 Set GAUSS_MDEF to "14GB".
 Entering Gaussian System, Link 0=g16
 Initial command:
 /home/sekinelabo/g16/l1.exe "/home/sekinelabo/g16temp/Gau-801310.inp" -scrdir="/home/sekinelabo/g16temp/"
 Entering Link 1 = /home/sekinelabo/g16/l1.exe PID=    801312.
  
 Copyright (c) 1988-2017, Gaussian, Inc.  All Rights Reserved.
  
 This is part of the Gaussian(R) 16 program.  It is based on
 the Gaussian(R) 09 system (copyright 2009, Gaussian, Inc.),
 the Gaussian(R) 03 system (copyright 2003, Gaussian, Inc.),
 the Gaussian(R) 98 system (copyright 1998, Gaussian, Inc.),
 the Gaussian(R) 94 system (copyright 1995, Gaussian, Inc.),
 the Gaussian 92(TM) system (copyright 1992, Gaussian, Inc.),
 the Gaussian 90(TM) system (copyright 1990, Gaussian, Inc.),
 the Gaussian 88(TM) system (copyright 1988, Gaussian, Inc.),
 the Gaussian 86(TM) system (copyright 1986, Carnegie Mellon
 University), and the Gaussian 82(TM) system (copyright 1983,
 Carnegie Mellon University). Gaussian is a federally registered
 trademark of Gaussian, Inc.
  
 This software contains proprietary and confidential information,
 including trade secrets, belonging to Gaussian, Inc.
  
 This software is provided under written license and may be
 used, copied, transmitted, or stored only in accord with that
 written license.
  
 The following legend is applicable only to US Government
 contracts under FAR:
  
                    RESTRICTED RIGHTS LEGEND
  
 Use, reproduction and disclosure by the US Government is
 subject to restrictions as set forth in subparagraphs (a)
 and (c) of the Commercial Computer Software - Restricted
 Rights clause in FAR 52.227-19.
  
 Gaussian, Inc.
 340 Quinnipiac St., Bldg. 40, Wallingford CT 06492
  
  
 ---------------------------------------------------------------
 Warning -- This program may not be used in any manner that
 competes with the business of Gaussian, Inc. or will provide
 assistance to any competitor of Gaussian, Inc.  The licensee
 of this program is prohibited from giving any competitor of
 Gaussian, Inc. access to this program.  By using this program,
 the user acknowledges that Gaussian, Inc. is engaged in the
 business of creating and licensing software in the field of
 computational chemistry and represents and warrants to the
 licensee that it is not a competitor of Gaussian, Inc. and that
 it will not use this program in any manner prohibited above.
 ---------------------------------------------------------------
  

 Cite this work as:
 Gaussian 16, Revision B.01,
 M. J. Frisch, G. W. Trucks, H. B. Schlegel, G. E. Scuseria, 
 M. A. Robb, J. R. Cheeseman, G. Scalmani, V. Barone, 
 G. A. Petersson, H. Nakatsuji, X. Li, M. Caricato, A. V. Marenich, 
 J. Bloino, B. G. Janesko, R. Gomperts, B. Mennucci, H. P. Hratchian, 
 J. V. Ortiz, A. F. Izmaylov, J. L. Sonnenberg, D. Williams-Young, 
 F. Ding, F. Lipparini, F. Egidi, J. Goings, B. Peng, A. Petrone, 
 T. Henderson, D. Ranasinghe, V. G. Zakrzewski, J. Gao, N. Rega, 
 G. Zheng, W. Liang, M. Hada, M. Ehara, K. Toyota, R. Fukuda, 
 J. Hasegawa, M. Ishida, T. Nakajima, Y. Honda, O. Kitao, H. Nakai, 
 T. Vreven, K. Throssell, J. A. Montgomery, Jr., J. E. Peralta, 
 F. Ogliaro, M. J. Bearpark, J. J. Heyd, E. N. Brothers, K. N. Kudin, 
 V. N. Staroverov, T. A. Keith, R. Kobayashi, J. Normand, 
 K. Raghavachari, A. P. Rendell, J. C. Burant, S. S. Iyengar, 
 J. Tomasi, M. Cossi, J. M. Millam, M. Klene, C. Adamo, R. Cammi, 
 J. W. Ochterski, R. L. Martin, K. Morokuma, O. Farkas, 
 J. B. Foresman, and D. J. Fox, Gaussian, Inc., Wallingford CT, 2016.
 
 ******************************************
 Gaussian 16:  ES64L-G16RevB.01 20-Dec-2017
                 7-Dec-2023 
 ******************************************
 %nproc=15
 Will use up to   15 processors via shared memory.
 -------------------------
 #P B3LYP/6-311+g(d) force
 -------------------------
 1/10=7,30=1,38=1/1,3;
 2/12=2,17=6,18=5,40=1/2;
 3/5=4,6=6,7=11,11=2,25=1,30=1,71=1,74=-5/1,2,3;
 4//1;
 5/5=2,38=5/2;
 6/7=2,8=2,9=2,10=2,28=1/1;
 7/29=1/1,2,3,16;
 1/10=7,30=1/3;
 99//99;
 Leave Link    1 at Thu Dec  7 06:27:30 2023, MaxMem=           0 cpu:               0.3 elap:               0.0
 (Enter /home/sekinelabo/g16/l101.exe)
 -----
 DPGEN
 -----
 Symbolic Z-matrix:
 Charge =  0 Multiplicity = 2
 Na                    11.381    13.9201   12.7007 
 Na                    14.8946   16.0049   12.3802 
 Na                    13.3175   15.1276   15.5219 
 Na                    14.7429   12.839    13.5405 
 Na                    12.4031   11.9158   16.1749 
 Na                    12.654    10.3643   12.8507 
 Na                    13.7433   12.9648   9.9677 
 
 ITRead=  0  0  0  0  0  0  0
 MicOpt= -1 -1 -1 -1 -1 -1 -1
 NAtoms=      7 NQM=        7 NQMF=       0 NMMI=      0 NMMIF=      0
                NMic=       0 NMicF=      0.
                    Isotopes and Nuclear Properties:
 (Nuclear quadrupole moments (NQMom) in fm**2, nuclear magnetic moments (NMagM)
  in nuclear magnetons)

  Atom         1           2           3           4           5           6           7
 IAtWgt=          23          23          23          23          23          23          23
 AtmWgt=  22.9897697  22.9897697  22.9897697  22.9897697  22.9897697  22.9897697  22.9897697
 NucSpn=           3           3           3           3           3           3           3
 AtZEff=  -0.0000000  -0.0000000  -0.0000000  -0.0000000  -0.0000000  -0.0000000  -0.0000000
 NQMom=   10.4000000  10.4000000  10.4000000  10.4000000  10.4000000  10.4000000  10.4000000
 NMagM=    2.2175200   2.2175200   2.2175200   2.2175200   2.2175200   2.2175200   2.2175200
 AtZNuc=  11.0000000  11.0000000  11.0000000  11.0000000  11.0000000  11.0000000  11.0000000
 Leave Link  101 at Thu Dec  7 06:27:30 2023, MaxMem=  1879048192 cpu:               2.4 elap:               0.2
 (Enter /home/sekinelabo/g16/l103.exe)

 GradGradGradGradGradGradGradGradGradGradGradGradGradGradGradGradGradGrad
 Berny optimization.
 Initialization pass.
 Trust Radius=3.00D-01 FncErr=1.00D-07 GrdErr=1.00D-07 EigMax=2.50D+02 EigMin=1.00D-04
 Number of steps in this run=      2 maximum allowed number of steps=      2.
 GradGradGradGradGradGradGradGradGradGradGradGradGradGradGradGradGradGrad

 Leave Link  103 at Thu Dec  7 06:27:30 2023, MaxMem=  1879048192 cpu:               0.2 elap:               0.0
 (Enter /home/sekinelabo/g16/l202.exe)
                          Input orientation:                          
 ---------------------------------------------------------------------
 Center     Atomic      Atomic             Coordinates (Angstroms)
 Number     Number       Type             X           Y           Z
 ---------------------------------------------------------------------
      1         11           0       11.381000   13.920100   12.700700
      2         11           0       14.894600   16.004900   12.380200
      3         11           0       13.317500   15.127600   15.521900
      4         11           0       14.742900   12.839000   13.540500
      5         11           0       12.403100   11.915800   16.174900
      6         11           0       12.654000   10.364300   12.850700
      7         11           0       13.743300   12.964800    9.967700
 ---------------------------------------------------------------------
                    Distance matrix (angstroms):
                    1          2          3          4          5
     1  Na   0.000000
     2  Na   4.098109   0.000000
     3  Na   3.628672   3.623145   0.000000
     4  Na   3.629933   3.375238   3.345953   0.000000
     5  Na   4.139079   6.109669   3.402675   3.642393   0.000000
     6  Na   3.779781   6.087530   5.501324   3.311113   3.677011
     7  Na   3.736623   4.048192   5.975629   3.712132   6.436293
                    6          7
     6  Na   0.000000
     7  Na   4.032476   0.000000
 Stoichiometry    Na7(2)
 Framework group  C1[X(Na7)]
 Deg. of freedom    15
 Full point group                 C1      NOp   1
 Largest Abelian subgroup         C1      NOp   1
 Largest concise Abelian subgroup C1      NOp   1
                         Standard orientation:                         
 ---------------------------------------------------------------------
 Center     Atomic      Atomic             Coordinates (Angstroms)
 Number     Number       Type             X           Y           Z
 ---------------------------------------------------------------------
      1         11           0        0.178581    0.182507    2.093056
      2         11           0        2.327234   -2.256542   -0.402705
      3         11           0       -1.227918   -2.584821    0.213984
      4         11           0        0.052604   -0.031423   -1.528377
      5         11           0       -3.309770    0.084249   -0.132640
      6         11           0       -0.932301    2.883895   -0.305941
      7         11           0        2.911569    1.722136    0.062622
 ---------------------------------------------------------------------
 Rotational constants (GHZ):           0.7294240           0.6409094           0.4365409
 Leave Link  202 at Thu Dec  7 06:27:30 2023, MaxMem=  1879048192 cpu:               0.0 elap:               0.0
 (Enter /home/sekinelabo/g16/l301.exe)
 Standard basis: 6-311+G(d) (5D, 7F)
 Ernie: Thresh=  0.10000D-02 Tol=  0.10000D-05 Strict=F.
 There are   217 symmetry adapted cartesian basis functions of A   symmetry.
 There are   210 symmetry adapted basis functions of A   symmetry.
   210 basis functions,   350 primitive gaussians,   217 cartesian basis functions
    39 alpha electrons       38 beta electrons
       nuclear repulsion energy       331.6300469516 Hartrees.
 IExCor=  402 DFT=T Ex+Corr=B3LYP ExCW=0 ScaHFX=  0.200000
 ScaDFX=  0.800000  0.720000  1.000000  0.810000 ScalE2=  1.000000  1.000000
 IRadAn=      5 IRanWt=     -1 IRanGd=            0 ICorTp=0 IEmpDi=  4
 NAtoms=    7 NActive=    7 NUniq=    7 SFac= 1.00D+00 NAtFMM=   60 NAOKFM=F Big=F
 Integral buffers will be    131072 words long.
 Raffenetti 2 integral format.
 Two-electron integral symmetry is turned on.
 Leave Link  301 at Thu Dec  7 06:27:30 2023, MaxMem=  1879048192 cpu:               0.5 elap:               0.0
 (Enter /home/sekinelabo/g16/l302.exe)
 NPDir=0 NMtPBC=     1 NCelOv=     1 NCel=       1 NClECP=     1 NCelD=      1
         NCelK=      1 NCelE2=     1 NClLst=     1 CellRange=     0.0.
 One-electron integrals computed using PRISM.
 One-electron integral symmetry used in STVInt
 NBasis=   210 RedAO= T EigKep=  5.32D-06  NBF=   210
 NBsUse=   210 1.00D-06 EigRej= -1.00D+00 NBFU=   210
 Precomputing XC quadrature grid using
 IXCGrd= 4 IRadAn=           5 IRanWt=          -1 IRanGd=           0 AccXCQ= 0.00D+00.
 Generated NRdTot=       0 NPtTot=           0 NUsed=           0 NTot=          32
 NSgBfM=   211   211   211   211   211 MxSgAt=     7 MxSgA2=     7.
 Leave Link  302 at Thu Dec  7 06:27:30 2023, MaxMem=  1879048192 cpu:               1.9 elap:               0.1
 (Enter /home/sekinelabo/g16/l303.exe)
 DipDrv:  MaxL=1.
 Leave Link  303 at Thu Dec  7 06:27:30 2023, MaxMem=  1879048192 cpu:               0.5 elap:               0.0
 (Enter /home/sekinelabo/g16/l401.exe)
 ExpMin= 7.60D-03 ExpMax= 3.62D+04 ExpMxC= 1.21D+03 IAcc=3 IRadAn=         5 AccDes= 0.00D+00
 Harris functional with IExCor=  402 and IRadAn=       5 diagonalized for initial guess.
 HarFok:  IExCor=  402 AccDes= 0.00D+00 IRadAn=         5 IDoV= 1 UseB2=F ITyADJ=14
 ICtDFT=  3500011 ScaDFX=  1.000000  1.000000  1.000000  1.000000
 FoFCou: FMM=F IPFlag=           0 FMFlag=      100000 FMFlg1=           0
         NFxFlg=           0 DoJE=T BraDBF=F KetDBF=T FulRan=T
         wScrn=  0.000000 ICntrl=       500 IOpCl=  0 I1Cent=   200000004 NGrid=           0
         NMat0=    1 NMatS0=      1 NMatT0=    0 NMatD0=    1 NMtDS0=    0 NMtDT0=    0
 Petite list used in FoFCou.
 Harris En= -1135.90613609542    
 JPrj=0 DoOrth=F DoCkMO=F.
 Initial guess <Sx>= 0.0000 <Sy>= 0.0000 <Sz>= 0.5000 <S**2>= 0.7500 S= 0.5000
 Leave Link  401 at Thu Dec  7 06:27:30 2023, MaxMem=  1879048192 cpu:               4.5 elap:               0.3
 (Enter /home/sekinelabo/g16/l502.exe)
 Keep R1 and R2 ints in memory in canonical form, NReq=506573335.
 FoFCou: FMM=F IPFlag=           0 FMFlag=           0 FMFlg1=           0
         NFxFlg=           0 DoJE=F BraDBF=F KetDBF=F FulRan=T
         wScrn=  0.000000 ICntrl=       600 IOpCl=  0 I1Cent=           0 NGrid=           0
         NMat0=    1 NMatS0=  22155 NMatT0=    0 NMatD0=    1 NMtDS0=    0 NMtDT0=    0
 Symmetry not used in FoFCou.
 Two-electron integral symmetry not used.
 UHF open shell SCF:
 Using DIIS extrapolation, IDIIS=  1040.
 NGot=  1879048192 LenX=  1388082565 LenY=  1388035035
 Requested convergence on RMS density matrix=1.00D-08 within 128 cycles.
 Requested convergence on MAX density matrix=1.00D-06.
 Requested convergence on             energy=1.00D-06.
 No special actions if energy rises.

 Cycle   1  Pass 1  IDiag  1:
 E= -1136.09782025154    
 DIIS: error= 1.39D-02 at cycle   1 NSaved=   1.
 NSaved= 1 IEnMin= 1 EnMin= -1136.09782025154     IErMin= 1 ErrMin= 1.39D-02
 ErrMax= 1.39D-02  0.00D+00 EMaxC= 1.00D-01 BMatC= 1.95D-01 BMatP= 1.95D-01
 IDIUse=3 WtCom= 8.61D-01 WtEn= 1.39D-01
 Coeff-Com:  0.100D+01
 Coeff-En:   0.100D+01
 Coeff:      0.100D+01
 Gap=     0.031 Goal=   None    Shift=    0.000
 Gap=     0.056 Goal=   None    Shift=    0.000
 GapD=    0.031 DampG=0.250 DampE=0.500 DampFc=0.2500 IDamp=-1.
 Damping current iteration by 2.50D-01
 RMSDP=2.29D-02 MaxDP=1.66D+00              OVMax= 2.57D-01

 Cycle   2  Pass 1  IDiag  1:
 E= -1136.11128404495     Delta-E=       -0.013463793405 Rises=F Damp=T
 DIIS: error= 9.63D-03 at cycle   2 NSaved=   2.
 NSaved= 2 IEnMin= 2 EnMin= -1136.11128404495     IErMin= 2 ErrMin= 9.63D-03
 ErrMax= 9.63D-03  0.00D+00 EMaxC= 1.00D-01 BMatC= 7.35D-02 BMatP= 1.95D-01
 IDIUse=3 WtCom= 9.04D-01 WtEn= 9.63D-02
 Coeff-Com: -0.125D+01 0.225D+01
 Coeff-En:   0.000D+00 0.100D+01
 Coeff:     -0.113D+01 0.213D+01
 Gap=     0.048 Goal=   None    Shift=    0.000
 Gap=     0.062 Goal=   None    Shift=    0.000
 RMSDP=1.35D-02 MaxDP=1.30D+00 DE=-1.35D-02 OVMax= 1.62D-01

 Cycle   3  Pass 1  IDiag  1:
 E= -1136.13328046371     Delta-E=       -0.021996418768 Rises=F Damp=F
 DIIS: error= 2.95D-03 at cycle   3 NSaved=   3.
 NSaved= 3 IEnMin= 3 EnMin= -1136.13328046371     IErMin= 3 ErrMin= 2.95D-03
 ErrMax= 2.95D-03  0.00D+00 EMaxC= 1.00D-01 BMatC= 3.26D-03 BMatP= 7.35D-02
 IDIUse=3 WtCom= 9.71D-01 WtEn= 2.95D-02
 Coeff-Com: -0.210D+00 0.387D+00 0.823D+00
 Coeff-En:   0.000D+00 0.000D+00 0.100D+01
 Coeff:     -0.204D+00 0.376D+00 0.828D+00
 Gap=     0.043 Goal=   None    Shift=    0.000
 Gap=     0.056 Goal=   None    Shift=    0.000
 RMSDP=6.20D-03 MaxDP=9.11D-01 DE=-2.20D-02 OVMax= 1.17D-01

 Cycle   4  Pass 1  IDiag  1:
 E= -1136.13022806685     Delta-E=        0.003052396860 Rises=F Damp=F
 DIIS: error= 3.49D-03 at cycle   4 NSaved=   4.
 NSaved= 4 IEnMin= 3 EnMin= -1136.13328046371     IErMin= 3 ErrMin= 2.95D-03
 ErrMax= 3.49D-03  0.00D+00 EMaxC= 1.00D-01 BMatC= 5.15D-03 BMatP= 3.26D-03
 IDIUse=3 WtCom= 1.45D-01 WtEn= 8.55D-01
 Coeff-Com:  0.865D-02-0.623D-02 0.558D+00 0.439D+00
 Coeff-En:   0.000D+00 0.000D+00 0.636D+00 0.364D+00
 Coeff:      0.125D-02-0.902D-03 0.625D+00 0.375D+00
 Gap=     0.044 Goal=   None    Shift=    0.000
 Gap=     0.056 Goal=   None    Shift=    0.000
 RMSDP=2.13D-03 MaxDP=3.47D-01 DE= 3.05D-03 OVMax= 7.58D-02

 Cycle   5  Pass 1  IDiag  1:
 E= -1136.13604247536     Delta-E=       -0.005814408503 Rises=F Damp=F
 DIIS: error= 9.86D-04 at cycle   5 NSaved=   5.
 NSaved= 5 IEnMin= 5 EnMin= -1136.13604247536     IErMin= 5 ErrMin= 9.86D-04
 ErrMax= 9.86D-04  0.00D+00 EMaxC= 1.00D-01 BMatC= 2.90D-04 BMatP= 3.26D-03
 IDIUse=3 WtCom= 9.90D-01 WtEn= 9.86D-03
 Coeff-Com:  0.608D-02-0.904D-02 0.339D+00 0.214D+00 0.450D+00
 Coeff-En:   0.000D+00 0.000D+00 0.000D+00 0.000D+00 0.100D+01
 Coeff:      0.602D-02-0.895D-02 0.336D+00 0.212D+00 0.455D+00
 Gap=     0.045 Goal=   None    Shift=    0.000
 Gap=     0.056 Goal=   None    Shift=    0.000
 RMSDP=9.36D-04 MaxDP=1.32D-01 DE=-5.81D-03 OVMax= 1.24D-02

 Cycle   6  Pass 1  IDiag  1:
 E= -1136.13625675981     Delta-E=       -0.000214284452 Rises=F Damp=F
 DIIS: error= 1.03D-04 at cycle   6 NSaved=   6.
 NSaved= 6 IEnMin= 6 EnMin= -1136.13625675981     IErMin= 6 ErrMin= 1.03D-04
 ErrMax= 1.03D-04  0.00D+00 EMaxC= 1.00D-01 BMatC= 4.02D-06 BMatP= 2.90D-04
 IDIUse=3 WtCom= 9.99D-01 WtEn= 1.03D-03
 Coeff-Com: -0.323D-02 0.388D-02 0.293D-01 0.960D-02 0.111D+00 0.850D+00
 Coeff-En:   0.000D+00 0.000D+00 0.000D+00 0.000D+00 0.000D+00 0.100D+01
 Coeff:     -0.323D-02 0.388D-02 0.293D-01 0.959D-02 0.110D+00 0.850D+00
 Gap=     0.046 Goal=   None    Shift=    0.000
 Gap=     0.056 Goal=   None    Shift=    0.000
 RMSDP=2.64D-04 MaxDP=4.02D-02 DE=-2.14D-04 OVMax= 3.58D-03

 Cycle   7  Pass 1  IDiag  1:
 E= -1136.13625876971     Delta-E=       -0.000002009899 Rises=F Damp=F
 DIIS: error= 7.61D-05 at cycle   7 NSaved=   7.
 NSaved= 7 IEnMin= 7 EnMin= -1136.13625876971     IErMin= 7 ErrMin= 7.61D-05
 ErrMax= 7.61D-05  0.00D+00 EMaxC= 1.00D-01 BMatC= 2.99D-06 BMatP= 4.02D-06
 IDIUse=1 WtCom= 1.00D+00 WtEn= 0.00D+00
 Coeff-Com: -0.303D-02 0.383D-02-0.280D-01-0.241D-01 0.132D-01 0.565D+00
 Coeff-Com:  0.474D+00
 Coeff:     -0.303D-02 0.383D-02-0.280D-01-0.241D-01 0.132D-01 0.565D+00
 Coeff:      0.474D+00
 Gap=     0.046 Goal=   None    Shift=    0.000
 Gap=     0.056 Goal=   None    Shift=    0.000
 RMSDP=1.53D-04 MaxDP=2.64D-02 DE=-2.01D-06 OVMax= 2.08D-03

 Cycle   8  Pass 1  IDiag  1:
 E= -1136.13626246062     Delta-E=       -0.000003690911 Rises=F Damp=F
 DIIS: error= 2.22D-05 at cycle   8 NSaved=   8.
 NSaved= 8 IEnMin= 8 EnMin= -1136.13626246062     IErMin= 8 ErrMin= 2.22D-05
 ErrMax= 2.22D-05  0.00D+00 EMaxC= 1.00D-01 BMatC= 1.51D-07 BMatP= 2.99D-06
 IDIUse=1 WtCom= 1.00D+00 WtEn= 0.00D+00
 Coeff-Com: -0.775D-03 0.965D-03-0.151D-01-0.114D-01-0.372D-02 0.156D+00
 Coeff-Com:  0.204D+00 0.671D+00
 Coeff:     -0.775D-03 0.965D-03-0.151D-01-0.114D-01-0.372D-02 0.156D+00
 Coeff:      0.204D+00 0.671D+00
 Gap=     0.046 Goal=   None    Shift=    0.000
 Gap=     0.056 Goal=   None    Shift=    0.000
 RMSDP=5.74D-05 MaxDP=9.85D-03 DE=-3.69D-06 OVMax= 7.64D-04

 Cycle   9  Pass 1  IDiag  1:
 E= -1136.13626263482     Delta-E=       -0.000000174202 Rises=F Damp=F
 DIIS: error= 1.39D-05 at cycle   9 NSaved=   9.
 NSaved= 9 IEnMin= 9 EnMin= -1136.13626263482     IErMin= 9 ErrMin= 1.39D-05
 ErrMax= 1.39D-05  0.00D+00 EMaxC= 1.00D-01 BMatC= 7.96D-08 BMatP= 1.51D-07
 IDIUse=1 WtCom= 1.00D+00 WtEn= 0.00D+00
 Coeff-Com:  0.633D-03-0.823D-03-0.112D-02 0.464D-03-0.820D-02-0.937D-01
 Coeff-Com: -0.294D-01 0.475D+00 0.657D+00
 Coeff:      0.633D-03-0.823D-03-0.112D-02 0.464D-03-0.820D-02-0.937D-01
 Coeff:     -0.294D-01 0.475D+00 0.657D+00
 Gap=     0.046 Goal=   None    Shift=    0.000
 Gap=     0.056 Goal=   None    Shift=    0.000
 RMSDP=2.43D-05 MaxDP=3.04D-03 DE=-1.74D-07 OVMax= 4.43D-04

 Cycle  10  Pass 1  IDiag  1:
 E= -1136.13626276803     Delta-E=       -0.000000133211 Rises=F Damp=F
 DIIS: error= 3.31D-06 at cycle  10 NSaved=  10.
 NSaved=10 IEnMin=10 EnMin= -1136.13626276803     IErMin=10 ErrMin= 3.31D-06
 ErrMax= 3.31D-06  0.00D+00 EMaxC= 1.00D-01 BMatC= 3.81D-09 BMatP= 7.96D-08
 IDIUse=1 WtCom= 1.00D+00 WtEn= 0.00D+00
 Coeff-Com:  0.221D-03-0.280D-03 0.113D-02 0.138D-02-0.260D-02-0.316D-01
 Coeff-Com: -0.265D-01-0.237D-02 0.120D+00 0.940D+00
 Coeff:      0.221D-03-0.280D-03 0.113D-02 0.138D-02-0.260D-02-0.316D-01
 Coeff:     -0.265D-01-0.237D-02 0.120D+00 0.940D+00
 Gap=     0.046 Goal=   None    Shift=    0.000
 Gap=     0.056 Goal=   None    Shift=    0.000
 RMSDP=9.61D-06 MaxDP=1.34D-03 DE=-1.33D-07 OVMax= 2.18D-04

 Cycle  11  Pass 1  IDiag  1:
 E= -1136.13626278318     Delta-E=       -0.000000015153 Rises=F Damp=F
 DIIS: error= 1.51D-06 at cycle  11 NSaved=  11.
 NSaved=11 IEnMin=11 EnMin= -1136.13626278318     IErMin=11 ErrMin= 1.51D-06
 ErrMax= 1.51D-06  0.00D+00 EMaxC= 1.00D-01 BMatC= 6.14D-10 BMatP= 3.81D-09
 IDIUse=1 WtCom= 1.00D+00 WtEn= 0.00D+00
 Coeff-Com: -0.602D-04 0.803D-04 0.491D-03 0.810D-04 0.112D-02 0.735D-02
 Coeff-Com:  0.346D-02-0.571D-01-0.932D-01-0.716D-01 0.121D+01
 Coeff:     -0.602D-04 0.803D-04 0.491D-03 0.810D-04 0.112D-02 0.735D-02
 Coeff:      0.346D-02-0.571D-01-0.932D-01-0.716D-01 0.121D+01
 Gap=     0.046 Goal=   None    Shift=    0.000
 Gap=     0.056 Goal=   None    Shift=    0.000
 RMSDP=6.33D-06 MaxDP=6.21D-04 DE=-1.52D-08 OVMax= 1.76D-04

 Cycle  12  Pass 1  IDiag  1:
 E= -1136.13626278778     Delta-E=       -0.000000004595 Rises=F Damp=F
 DIIS: error= 6.55D-07 at cycle  12 NSaved=  12.
 NSaved=12 IEnMin=12 EnMin= -1136.13626278778     IErMin=12 ErrMin= 6.55D-07
 ErrMax= 6.55D-07  0.00D+00 EMaxC= 1.00D-01 BMatC= 1.83D-10 BMatP= 6.14D-10
 IDIUse=1 WtCom= 1.00D+00 WtEn= 0.00D+00
 Coeff-Com: -0.627D-04 0.812D-04 0.104D-03-0.143D-03 0.988D-03 0.844D-02
 Coeff-Com:  0.481D-02-0.302D-01-0.602D-01-0.141D+00 0.423D+00 0.793D+00
 Coeff:     -0.627D-04 0.812D-04 0.104D-03-0.143D-03 0.988D-03 0.844D-02
 Coeff:      0.481D-02-0.302D-01-0.602D-01-0.141D+00 0.423D+00 0.793D+00
 Gap=     0.046 Goal=   None    Shift=    0.000
 Gap=     0.056 Goal=   None    Shift=    0.000
 RMSDP=2.35D-06 MaxDP=3.07D-04 DE=-4.60D-09 OVMax= 7.03D-05

 Cycle  13  Pass 1  IDiag  1:
 E= -1136.13626278860     Delta-E=       -0.000000000824 Rises=F Damp=F
 DIIS: error= 3.65D-07 at cycle  13 NSaved=  13.
 NSaved=13 IEnMin=13 EnMin= -1136.13626278860     IErMin=13 ErrMin= 3.65D-07
 ErrMax= 3.65D-07  0.00D+00 EMaxC= 1.00D-01 BMatC= 3.40D-11 BMatP= 1.83D-10
 IDIUse=1 WtCom= 1.00D+00 WtEn= 0.00D+00
 Coeff-Com:  0.978D-06-0.229D-05-0.900D-04-0.509D-04 0.133D-04-0.291D-03
 Coeff-Com:  0.547D-03 0.938D-02 0.868D-02-0.209D-01-0.216D+00 0.106D+00
 Coeff-Com:  0.111D+01
 Coeff:      0.978D-06-0.229D-05-0.900D-04-0.509D-04 0.133D-04-0.291D-03
 Coeff:      0.547D-03 0.938D-02 0.868D-02-0.209D-01-0.216D+00 0.106D+00
 Coeff:      0.111D+01
 Gap=     0.046 Goal=   None    Shift=    0.000
 Gap=     0.056 Goal=   None    Shift=    0.000
 RMSDP=1.59D-06 MaxDP=1.69D-04 DE=-8.24D-10 OVMax= 4.59D-05

 Cycle  14  Pass 1  IDiag  1:
 E= -1136.13626278885     Delta-E=       -0.000000000251 Rises=F Damp=F
 DIIS: error= 1.70D-07 at cycle  14 NSaved=  14.
 NSaved=14 IEnMin=14 EnMin= -1136.13626278885     IErMin=14 ErrMin= 1.70D-07
 ErrMax= 1.70D-07  0.00D+00 EMaxC= 1.00D-01 BMatC= 5.11D-12 BMatP= 3.40D-11
 IDIUse=1 WtCom= 1.00D+00 WtEn= 0.00D+00
 Coeff-Com:  0.888D-05-0.116D-04-0.471D-04 0.147D-04-0.189D-03-0.110D-02
 Coeff-Com: -0.685D-03 0.434D-02 0.997D-02 0.265D-01-0.814D-01-0.106D+00
 Coeff-Com: -0.538D-01 0.120D+01
 Coeff:      0.888D-05-0.116D-04-0.471D-04 0.147D-04-0.189D-03-0.110D-02
 Coeff:     -0.685D-03 0.434D-02 0.997D-02 0.265D-01-0.814D-01-0.106D+00
 Coeff:     -0.538D-01 0.120D+01
 Gap=     0.046 Goal=   None    Shift=    0.000
 Gap=     0.056 Goal=   None    Shift=    0.000
 RMSDP=5.37D-07 MaxDP=8.98D-05 DE=-2.51D-10 OVMax= 1.38D-05

 Cycle  15  Pass 1  IDiag  1:
 E= -1136.13626278891     Delta-E=       -0.000000000058 Rises=F Damp=F
 DIIS: error= 5.99D-08 at cycle  15 NSaved=  15.
 NSaved=15 IEnMin=15 EnMin= -1136.13626278891     IErMin=15 ErrMin= 5.99D-08
 ErrMax= 5.99D-08  0.00D+00 EMaxC= 1.00D-01 BMatC= 7.38D-13 BMatP= 5.11D-12
 IDIUse=1 WtCom= 1.00D+00 WtEn= 0.00D+00
 Coeff-Com: -0.963D-06 0.147D-05 0.246D-04 0.467D-05 0.303D-04 0.139D-03
 Coeff-Com: -0.186D-04-0.197D-02-0.274D-02-0.364D-02 0.555D-01-0.167D-03
 Coeff-Com: -0.184D+00-0.211D+00 0.135D+01
 Coeff:     -0.963D-06 0.147D-05 0.246D-04 0.467D-05 0.303D-04 0.139D-03
 Coeff:     -0.186D-04-0.197D-02-0.274D-02-0.364D-02 0.555D-01-0.167D-03
 Coeff:     -0.184D+00-0.211D+00 0.135D+01
 Gap=     0.046 Goal=   None    Shift=    0.000
 Gap=     0.056 Goal=   None    Shift=    0.000
 RMSDP=2.20D-07 MaxDP=2.37D-05 DE=-5.82D-11 OVMax= 6.15D-06

 Cycle  16  Pass 1  IDiag  1:
 E= -1136.13626278891     Delta-E=       -0.000000000002 Rises=F Damp=F
 DIIS: error= 1.92D-08 at cycle  16 NSaved=  16.
 NSaved=16 IEnMin=16 EnMin= -1136.13626278891     IErMin=16 ErrMin= 1.92D-08
 ErrMax= 1.92D-08  0.00D+00 EMaxC= 1.00D-01 BMatC= 9.82D-14 BMatP= 7.38D-13
 IDIUse=1 WtCom= 1.00D+00 WtEn= 0.00D+00
 Coeff-Com: -0.109D-05 0.142D-05 0.628D-05-0.257D-06 0.198D-04 0.102D-03
 Coeff-Com:  0.993D-04-0.396D-03-0.106D-02-0.162D-02 0.406D-02 0.107D-01
 Coeff-Com:  0.279D-01-0.147D+00-0.487D-01 0.116D+01
 Coeff:     -0.109D-05 0.142D-05 0.628D-05-0.257D-06 0.198D-04 0.102D-03
 Coeff:      0.993D-04-0.396D-03-0.106D-02-0.162D-02 0.406D-02 0.107D-01
 Coeff:      0.279D-01-0.147D+00-0.487D-01 0.116D+01
 Gap=     0.046 Goal=   None    Shift=    0.000
 Gap=     0.056 Goal=   None    Shift=    0.000
 RMSDP=8.31D-08 MaxDP=1.05D-05 DE=-1.82D-12 OVMax= 2.08D-06

 Cycle  17  Pass 1  IDiag  1:
 E= -1136.13626278891     Delta-E=        0.000000000007 Rises=F Damp=F
 DIIS: error= 9.01D-09 at cycle  17 NSaved=  17.
 NSaved=17 IEnMin=16 EnMin= -1136.13626278891     IErMin=17 ErrMin= 9.01D-09
 ErrMax= 9.01D-09  0.00D+00 EMaxC= 1.00D-01 BMatC= 2.57D-14 BMatP= 9.82D-14
 IDIUse=1 WtCom= 1.00D+00 WtEn= 0.00D+00
 Coeff-Com: -0.890D-07 0.840D-07-0.312D-05-0.955D-06-0.170D-05 0.513D-05
 Coeff-Com:  0.927D-05 0.259D-03 0.339D-03 0.254D-03-0.883D-02 0.333D-02
 Coeff-Com:  0.352D-01 0.956D-02-0.254D+00 0.260D+00 0.954D+00
 Coeff:     -0.890D-07 0.840D-07-0.312D-05-0.955D-06-0.170D-05 0.513D-05
 Coeff:      0.927D-05 0.259D-03 0.339D-03 0.254D-03-0.883D-02 0.333D-02
 Coeff:      0.352D-01 0.956D-02-0.254D+00 0.260D+00 0.954D+00
 Gap=     0.046 Goal=   None    Shift=    0.000
 Gap=     0.056 Goal=   None    Shift=    0.000
 RMSDP=2.87D-08 MaxDP=2.47D-06 DE= 6.82D-12 OVMax= 9.40D-07

 Cycle  18  Pass 1  IDiag  1:
 E= -1136.13626278891     Delta-E=       -0.000000000001 Rises=F Damp=F
 DIIS: error= 4.20D-09 at cycle  18 NSaved=  18.
 NSaved=18 IEnMin=16 EnMin= -1136.13626278891     IErMin=18 ErrMin= 4.20D-09
 ErrMax= 4.20D-09  0.00D+00 EMaxC= 1.00D-01 BMatC= 4.54D-15 BMatP= 2.57D-14
 IDIUse=1 WtCom= 1.00D+00 WtEn= 0.00D+00
 Coeff-Com:  0.312D-06-0.411D-06-0.183D-05-0.942D-07-0.480D-05-0.249D-04
 Coeff-Com: -0.258D-04 0.823D-04 0.295D-03 0.579D-03-0.124D-02-0.302D-02
 Coeff-Com: -0.827D-02 0.402D-01 0.139D-01-0.303D+00-0.323D-02 0.126D+01
 Coeff:      0.312D-06-0.411D-06-0.183D-05-0.942D-07-0.480D-05-0.249D-04
 Coeff:     -0.258D-04 0.823D-04 0.295D-03 0.579D-03-0.124D-02-0.302D-02
 Coeff:     -0.827D-02 0.402D-01 0.139D-01-0.303D+00-0.323D-02 0.126D+01
 Gap=     0.046 Goal=   None    Shift=    0.000
 Gap=     0.056 Goal=   None    Shift=    0.000
 RMSDP=1.48D-08 MaxDP=1.28D-06 DE=-9.09D-13 OVMax= 5.47D-07

 Cycle  19  Pass 1  IDiag  1:
 E= -1136.13626278892     Delta-E=       -0.000000000016 Rises=F Damp=F
 DIIS: error= 1.18D-09 at cycle  19 NSaved=  19.
 NSaved=19 IEnMin=19 EnMin= -1136.13626278892     IErMin=19 ErrMin= 1.18D-09
 ErrMax= 1.18D-09  0.00D+00 EMaxC= 1.00D-01 BMatC= 4.77D-16 BMatP= 4.54D-15
 IDIUse=1 WtCom= 1.00D+00 WtEn= 0.00D+00
 Large coefficients: NSaved= 19 BigCof=    0.00 CofMax=   10.00 Det=-1.04D-15
 Inversion failed.  Reducing to 18 matrices.
 Large coefficients: NSaved= 18 BigCof=    0.00 CofMax=   10.00 Det=-1.19D-15
 Inversion failed.  Reducing to 17 matrices.
 Large coefficients: NSaved= 17 BigCof=    0.00 CofMax=   10.00 Det=-1.20D-15
 Inversion failed.  Reducing to 16 matrices.
 Large coefficients: NSaved= 16 BigCof=    0.00 CofMax=   10.00 Det=-1.27D-15
 Inversion failed.  Reducing to 15 matrices.
 Coeff-Com: -0.237D-06-0.420D-07-0.112D-05-0.197D-04-0.105D-04-0.297D-04
 Coeff-Com:  0.823D-03-0.785D-03-0.398D-02 0.325D-02 0.253D-01-0.416D-01
 Coeff-Com: -0.116D+00 0.484D-01 0.108D+01
 Coeff:     -0.237D-06-0.420D-07-0.112D-05-0.197D-04-0.105D-04-0.297D-04
 Coeff:      0.823D-03-0.785D-03-0.398D-02 0.325D-02 0.253D-01-0.416D-01
 Coeff:     -0.116D+00 0.484D-01 0.108D+01
 Gap=     0.046 Goal=   None    Shift=    0.000
 Gap=     0.056 Goal=   None    Shift=    0.000
 RMSDP=4.03D-09 MaxDP=2.59D-07 DE=-1.59D-11 OVMax= 1.28D-07

 SCF Done:  E(UB3LYP) =  -1136.13626279     A.U. after   19 cycles
            NFock= 19  Conv=0.40D-08     -V/T= 2.0029
 <Sx>= 0.0000 <Sy>= 0.0000 <Sz>= 0.5000 <S**2>= 0.7599 S= 0.5049
 <L.S>= 0.000000000000E+00
 KE= 1.132843074500D+03 PE=-3.392684157690D+03 EE= 7.920747734489D+02
 Annihilation of the first spin contaminant:
 S**2 before annihilation     0.7599,   after     0.7501
 Leave Link  502 at Thu Dec  7 06:27:46 2023, MaxMem=  1879048192 cpu:             175.8 elap:              15.5
 (Enter /home/sekinelabo/g16/l601.exe)
 Copying SCF densities to generalized density rwf, IOpCl= 1 IROHF=0.

 **********************************************************************

            Population analysis using the SCF Density.

 **********************************************************************

 Orbital symmetries:
 Alpha Orbitals:
       Occupied  (A) (A) (A) (A) (A) (A) (A) (A) (A) (A) (A) (A)
                 (A) (A) (A) (A) (A) (A) (A) (A) (A) (A) (A) (A)
                 (A) (A) (A) (A) (A) (A) (A) (A) (A) (A) (A) (A)
                 (A) (A) (A)
       Virtual   (A) (A) (A) (A) (A) (A) (A) (A) (A) (A) (A) (A)
                 (A) (A) (A) (A) (A) (A) (A) (A) (A) (A) (A) (A)
                 (A) (A) (A) (A) (A) (A) (A) (A) (A) (A) (A) (A)
                 (A) (A) (A) (A) (A) (A) (A) (A) (A) (A) (A) (A)
                 (A) (A) (A) (A) (A) (A) (A) (A) (A) (A) (A) (A)
                 (A) (A) (A) (A) (A) (A) (A) (A) (A) (A) (A) (A)
                 (A) (A) (A) (A) (A) (A) (A) (A) (A) (A) (A) (A)
                 (A) (A) (A) (A) (A) (A) (A) (A) (A) (A) (A) (A)
                 (A) (A) (A) (A) (A) (A) (A) (A) (A) (A) (A) (A)
                 (A) (A) (A) (A) (A) (A) (A) (A) (A) (A) (A) (A)
                 (A) (A) (A) (A) (A) (A) (A) (A) (A) (A) (A) (A)
                 (A) (A) (A) (A) (A) (A) (A) (A) (A) (A) (A) (A)
                 (A) (A) (A) (A) (A) (A) (A) (A) (A) (A) (A) (A)
                 (A) (A) (A) (A) (A) (A) (A) (A) (A) (A) (A) (A)
                 (A) (A) (A)
 Beta  Orbitals:
       Occupied  (A) (A) (A) (A) (A) (A) (A) (A) (A) (A) (A) (A)
                 (A) (A) (A) (A) (A) (A) (A) (A) (A) (A) (A) (A)
                 (A) (A) (A) (A) (A) (A) (A) (A) (A) (A) (A) (A)
                 (A) (A)
       Virtual   (A) (A) (A) (A) (A) (A) (A) (A) (A) (A) (A) (A)
                 (A) (A) (A) (A) (A) (A) (A) (A) (A) (A) (A) (A)
                 (A) (A) (A) (A) (A) (A) (A) (A) (A) (A) (A) (A)
                 (A) (A) (A) (A) (A) (A) (A) (A) (A) (A) (A) (A)
                 (A) (A) (A) (A) (A) (A) (A) (A) (A) (A) (A) (A)
                 (A) (A) (A) (A) (A) (A) (A) (A) (A) (A) (A) (A)
                 (A) (A) (A) (A) (A) (A) (A) (A) (A) (A) (A) (A)
                 (A) (A) (A) (A) (A) (A) (A) (A) (A) (A) (A) (A)
                 (A) (A) (A) (A) (A) (A) (A) (A) (A) (A) (A) (A)
                 (A) (A) (A) (A) (A) (A) (A) (A) (A) (A) (A) (A)
                 (A) (A) (A) (A) (A) (A) (A) (A) (A) (A) (A) (A)
                 (A) (A) (A) (A) (A) (A) (A) (A) (A) (A) (A) (A)
                 (A) (A) (A) (A) (A) (A) (A) (A) (A) (A) (A) (A)
                 (A) (A) (A) (A) (A) (A) (A) (A) (A) (A) (A) (A)
                 (A) (A) (A) (A)
 The electronic state is 2-A.
 Alpha  occ. eigenvalues --  -38.44434 -38.44038 -38.43866 -38.43722 -38.43602
 Alpha  occ. eigenvalues --  -38.43340 -38.43112  -2.20200  -2.19848  -2.19671
 Alpha  occ. eigenvalues --   -2.19539  -2.19462  -2.19201  -2.19074  -1.13879
 Alpha  occ. eigenvalues --   -1.13853  -1.13841  -1.13521  -1.13510  -1.13493
 Alpha  occ. eigenvalues --   -1.13355  -1.13324  -1.13305  -1.13238  -1.13206
 Alpha  occ. eigenvalues --   -1.13156  -1.13132  -1.13088  -1.13075  -1.12901
 Alpha  occ. eigenvalues --   -1.12867  -1.12826  -1.12764  -1.12708  -1.12691
 Alpha  occ. eigenvalues --   -0.18227  -0.12740  -0.12443  -0.10495
 Alpha virt. eigenvalues --   -0.05923  -0.05373  -0.04730  -0.02994  -0.02828
 Alpha virt. eigenvalues --   -0.02435  -0.01728  -0.01388  -0.00626  -0.00466
 Alpha virt. eigenvalues --   -0.00024   0.00321   0.00730   0.00801   0.00865
 Alpha virt. eigenvalues --    0.00923   0.00950   0.01170   0.01244   0.01283
 Alpha virt. eigenvalues --    0.01338   0.01404   0.01736   0.01806   0.02162
 Alpha virt. eigenvalues --    0.02186   0.02272   0.02431   0.02490   0.02867
 Alpha virt. eigenvalues --    0.02879   0.03055   0.03087   0.03125   0.03182
 Alpha virt. eigenvalues --    0.03236   0.03241   0.03280   0.03303   0.03409
 Alpha virt. eigenvalues --    0.03953   0.04291   0.04435   0.04479   0.04728
 Alpha virt. eigenvalues --    0.04856   0.04923   0.04958   0.05229   0.05436
 Alpha virt. eigenvalues --    0.05925   0.06711   0.07140   0.07312   0.07337
 Alpha virt. eigenvalues --    0.07669   0.07811   0.07998   0.08084   0.09079
 Alpha virt. eigenvalues --    0.09465   0.09770   0.10473   0.10884   0.11167
 Alpha virt. eigenvalues --    0.11643   0.11890   0.12269   0.12560   0.12839
 Alpha virt. eigenvalues --    0.13511   0.14195   0.14319   0.14809   0.14985
 Alpha virt. eigenvalues --    0.15204   0.15401   0.15487   0.16156   0.17670
 Alpha virt. eigenvalues --    0.26628   0.26913   0.27514   0.28231   0.29272
 Alpha virt. eigenvalues --    0.29998   0.30574   0.31658   0.32232   0.33929
 Alpha virt. eigenvalues --    0.34535   0.35335   0.35926   0.37427   0.37878
 Alpha virt. eigenvalues --    0.38387   0.39839   0.40294   0.41703   0.42314
 Alpha virt. eigenvalues --    0.42939   0.43519   0.44088   0.44339   0.44484
 Alpha virt. eigenvalues --    0.44749   0.44964   0.45144   0.45294   0.45730
 Alpha virt. eigenvalues --    0.46168   0.46611   0.47084   0.47933   0.48487
 Alpha virt. eigenvalues --    0.49132   0.50159   0.50396   0.50766   0.51274
 Alpha virt. eigenvalues --    0.52086   0.52890   0.54112   0.54694   0.55951
 Alpha virt. eigenvalues --    0.56494   0.57867   0.58163   0.58958   0.59876
 Alpha virt. eigenvalues --    0.60283   0.60863   0.63247   0.63561   0.67187
 Alpha virt. eigenvalues --    0.68195   2.02338   2.12356   2.13830   2.16480
 Alpha virt. eigenvalues --    2.18017   2.20742   2.26406   4.44146   4.44860
 Alpha virt. eigenvalues --    4.45202   4.45406   4.45702   4.45910   4.46042
 Alpha virt. eigenvalues --    4.46445   4.46905   4.47265   4.48120   4.48345
 Alpha virt. eigenvalues --    4.48820   4.49418   4.51618   4.53218   4.53851
 Alpha virt. eigenvalues --    4.54243   4.55663   4.60664   4.66138  96.22035
 Alpha virt. eigenvalues --   96.33189  96.35191  96.38008  96.39715  96.43559
 Alpha virt. eigenvalues --   96.50147
  Beta  occ. eigenvalues --  -38.44433 -38.44037 -38.43856 -38.43714 -38.43503
  Beta  occ. eigenvalues --  -38.43333 -38.43058  -2.20201  -2.19849  -2.19655
  Beta  occ. eigenvalues --   -2.19527  -2.19279  -2.19191  -2.18977  -1.13862
  Beta  occ. eigenvalues --   -1.13855  -1.13844  -1.13521  -1.13500  -1.13491
  Beta  occ. eigenvalues --   -1.13334  -1.13308  -1.13298  -1.13223  -1.13186
  Beta  occ. eigenvalues --   -1.13147  -1.13010  -1.12963  -1.12942  -1.12891
  Beta  occ. eigenvalues --   -1.12838  -1.12818  -1.12694  -1.12639  -1.12620
  Beta  occ. eigenvalues --   -0.17527  -0.12533  -0.12198
  Beta virt. eigenvalues --   -0.06625  -0.05892  -0.05314  -0.04684  -0.02275
  Beta virt. eigenvalues --   -0.02100  -0.01652  -0.01384  -0.01293  -0.00672
  Beta virt. eigenvalues --   -0.00494   0.00125   0.00355   0.00760   0.00833
  Beta virt. eigenvalues --    0.00861   0.00996   0.01052   0.01305   0.01372
  Beta virt. eigenvalues --    0.01417   0.01481   0.01544   0.01776   0.01837
  Beta virt. eigenvalues --    0.02163   0.02186   0.02408   0.02430   0.02473
  Beta virt. eigenvalues --    0.02903   0.02988   0.03081   0.03106   0.03171
  Beta virt. eigenvalues --    0.03220   0.03289   0.03322   0.03348   0.03445
  Beta virt. eigenvalues --    0.03517   0.04021   0.04357   0.04465   0.04556
  Beta virt. eigenvalues --    0.04944   0.04975   0.05085   0.05190   0.05399
  Beta virt. eigenvalues --    0.05604   0.06262   0.06698   0.07180   0.07310
  Beta virt. eigenvalues --    0.07382   0.07920   0.07998   0.08141   0.08159
  Beta virt. eigenvalues --    0.09284   0.09723   0.10005   0.10598   0.11005
  Beta virt. eigenvalues --    0.11297   0.11781   0.12332   0.12541   0.12898
  Beta virt. eigenvalues --    0.12960   0.13647   0.14285   0.14502   0.14921
  Beta virt. eigenvalues --    0.15406   0.15583   0.15674   0.15720   0.16589
  Beta virt. eigenvalues --    0.18075   0.26843   0.27021   0.27742   0.28584
  Beta virt. eigenvalues --    0.29627   0.30113   0.30655   0.32184   0.32776
  Beta virt. eigenvalues --    0.34215   0.34784   0.35500   0.36157   0.37614
  Beta virt. eigenvalues --    0.37997   0.38575   0.39998   0.40467   0.42040
  Beta virt. eigenvalues --    0.42509   0.43060   0.43562   0.44189   0.44519
  Beta virt. eigenvalues --    0.44633   0.44999   0.45087   0.45209   0.45572
  Beta virt. eigenvalues --    0.45873   0.46415   0.46704   0.47260   0.48071
  Beta virt. eigenvalues --    0.48528   0.49240   0.50353   0.50552   0.50837
  Beta virt. eigenvalues --    0.51369   0.52198   0.53159   0.54283   0.54922
  Beta virt. eigenvalues --    0.56062   0.56788   0.58164   0.58557   0.59113
  Beta virt. eigenvalues --    0.60160   0.60614   0.61225   0.63236   0.63762
  Beta virt. eigenvalues --    0.67310   0.68413   2.02457   2.12347   2.13848
  Beta virt. eigenvalues --    2.16522   2.18265   2.20873   2.26628   4.44192
  Beta virt. eigenvalues --    4.44886   4.45232   4.45426   4.45711   4.45946
  Beta virt. eigenvalues --    4.46059   4.46490   4.46985   4.47322   4.48130
  Beta virt. eigenvalues --    4.48386   4.48924   4.49493   4.51663   4.53245
  Beta virt. eigenvalues --    4.53906   4.54277   4.55732   4.60725   4.66220
  Beta virt. eigenvalues --   96.22072  96.33189  96.35199  96.38027  96.39789
  Beta virt. eigenvalues --   96.43594  96.50214
          Condensed to atoms (all electrons):
               1          2          3          4          5          6
     1  Na  15.194009  -0.233505   0.334504  -3.616758   0.028615  -0.528529
     2  Na  -0.233505  10.743494   0.215685   0.202541  -0.061863  -0.151991
     3  Na   0.334504   0.215685  10.913094  -0.720479   0.173135  -0.077497
     4  Na  -3.616758   0.202541  -0.720479  15.328191  -0.058889   0.223255
     5  Na   0.028615  -0.061863   0.173135  -0.058889  10.570811   0.279384
     6  Na  -0.528529  -0.151991  -0.077497   0.223255   0.279384  10.963711
     7  Na   0.226460   0.145444  -0.071899  -0.129881  -0.005259   0.154061
               7
     1  Na   0.226460
     2  Na   0.145444
     3  Na  -0.071899
     4  Na  -0.129881
     5  Na  -0.005259
     6  Na   0.154061
     7  Na  10.633620
          Atomic-Atomic Spin Densities.
               1          2          3          4          5          6
     1  Na   4.310625  -0.200412   0.492021  -3.711961   0.052762  -0.350982
     2  Na  -0.200412  -0.008603  -0.044570   0.252960  -0.001930   0.023089
     3  Na   0.492021  -0.044570   0.022884  -0.427484  -0.001432  -0.021472
     4  Na  -3.711961   0.252960  -0.427484   3.970145   0.010094   0.412078
     5  Na   0.052762  -0.001930  -0.001432   0.010094  -0.040933  -0.043607
     6  Na  -0.350982   0.023089  -0.021472   0.412078  -0.043607  -0.032607
     7  Na   0.164714  -0.030075   0.034816  -0.127116  -0.010531  -0.050759
               7
     1  Na   0.164714
     2  Na  -0.030075
     3  Na   0.034816
     4  Na  -0.127116
     5  Na  -0.010531
     6  Na  -0.050759
     7  Na  -0.061915
 Mulliken charges and spin densities:
               1          2
     1  Na  -0.404796   0.756766
     2  Na   0.140195  -0.009541
     3  Na   0.233457   0.054762
     4  Na  -0.227980   0.378715
     5  Na   0.074066  -0.035576
     6  Na   0.137605  -0.064260
     7  Na   0.047453  -0.080865
 Sum of Mulliken charges =  -0.00000   1.00000
 Mulliken charges and spin densities with hydrogens summed into heavy atoms:
               1          2
     1  Na  -0.404796   0.756766
     2  Na   0.140195  -0.009541
     3  Na   0.233457   0.054762
     4  Na  -0.227980   0.378715
     5  Na   0.074066  -0.035576
     6  Na   0.137605  -0.064260
     7  Na   0.047453  -0.080865
 Electronic spatial extent (au):  <R**2>=           2397.4672
 Charge=             -0.0000 electrons
 Dipole moment (field-independent basis, Debye):
    X=              0.2445    Y=              0.2309    Z=              0.0998  Tot=              0.3508
 Quadrupole moment (field-independent basis, Debye-Ang):
   XX=            -54.4588   YY=            -61.6429   ZZ=            -76.0081
   XY=              0.2165   XZ=             -0.3256   YZ=             -0.3897
 Traceless Quadrupole moment (field-independent basis, Debye-Ang):
   XX=              9.5778   YY=              2.3937   ZZ=            -11.9715
   XY=              0.2165   XZ=             -0.3256   YZ=             -0.3897
 Octapole moment (field-independent basis, Debye-Ang**2):
  XXX=              2.6443  YYY=              2.9203  ZZZ=             -0.0407  XYY=              6.7863
  XXY=              3.5164  XXZ=             -1.3561  XZZ=             -0.0725  YZZ=              0.4231
  YYZ=             -0.4168  XYZ=              0.7938
 Hexadecapole moment (field-independent basis, Debye-Ang**3):
 XXXX=          -1519.5205 YYYY=          -1480.3004 ZZZZ=           -779.4618 XXXY=             32.5889
 XXXZ=             -0.2555 YYYX=            -23.4270 YYYZ=            -19.7365 ZZZX=              0.9712
 ZZZY=              2.4498 XXYY=           -488.0883 XXZZ=           -475.0789 YYZZ=           -440.3269
 XXYZ=              8.2355 YYXZ=             -9.4638 ZZXY=             -1.0318
 N-N= 3.316300469516D+02 E-N=-3.392684157727D+03  KE= 1.132843074500D+03
                          Isotropic Fermi Contact Couplings
        Atom                 a.u.       MegaHertz       Gauss      10(-4) cm-1
     1  Na(23)             0.40980     484.80517     172.99054     161.71360
     2  Na(23)             0.01666      19.71454       7.03464       6.57606
     3  Na(23)            -0.00772      -9.13799      -3.26066      -3.04811
     4  Na(23)             0.19936     235.84548      84.15553      78.66958
     5  Na(23)            -0.02236     -26.45689      -9.44047      -8.82507
     6  Na(23)             0.00414       4.89899       1.74808       1.63413
     7  Na(23)            -0.02289     -27.08231      -9.66364      -9.03368
 --------------------------------------------------------
       Center         ----  Spin Dipole Couplings  ----
                      3XX-RR        3YY-RR        3ZZ-RR
 --------------------------------------------------------
     1   Atom        0.001369      0.002063     -0.003432
     2   Atom       -0.008789     -0.008755      0.017544
     3   Atom       -0.016906     -0.011482      0.028389
     4   Atom       -0.003793     -0.002559      0.006352
     5   Atom       -0.006852     -0.010448      0.017299
     6   Atom       -0.013241     -0.008818      0.022059
     7   Atom       -0.008141     -0.010604      0.018745
 --------------------------------------------------------
                        XY            XZ            YZ
 --------------------------------------------------------
     1   Atom        0.005472     -0.000475     -0.001247
     2   Atom       -0.002533      0.004095     -0.003440
     3   Atom        0.002009     -0.003149      0.008889
     4   Atom       -0.006089     -0.000953     -0.000378
     5   Atom        0.000395     -0.000935     -0.007635
     6   Atom       -0.000507      0.004608      0.005744
     7   Atom        0.002009     -0.003673      0.001100
 --------------------------------------------------------


 ---------------------------------------------------------------------------------
              Anisotropic Spin Dipole Couplings in Principal Axis System
 ---------------------------------------------------------------------------------

       Atom             a.u.   MegaHertz   Gauss  10(-4) cm-1        Axes

              Baa    -0.0042    -0.591    -0.211    -0.197 -0.5150  0.5775  0.6334
     1 Na(23) Bbb    -0.0032    -0.446    -0.159    -0.149  0.5270 -0.3695  0.7653
              Bcc     0.0073     1.037     0.370     0.346  0.6761  0.7279 -0.1140
 
              Baa    -0.0113    -1.598    -0.570    -0.533  0.7245  0.6890 -0.0207
     2 Na(23) Bbb    -0.0074    -1.041    -0.372    -0.347 -0.6709  0.7117  0.2085
              Bcc     0.0187     2.639     0.942     0.880  0.1584 -0.1372  0.9778
 
              Baa    -0.0184    -2.600    -0.928    -0.867  0.8862 -0.4406  0.1433
     3 Na(23) Bbb    -0.0120    -1.697    -0.605    -0.566  0.4599  0.8741 -0.1565
              Bcc     0.0304     4.297     1.533     1.433 -0.0563  0.2045  0.9772
 
              Baa    -0.0094    -1.321    -0.471    -0.441  0.7417  0.6680  0.0611
     4 Na(23) Bbb     0.0029     0.411     0.147     0.137 -0.6611  0.7434 -0.1015
              Bcc     0.0064     0.910     0.325     0.304 -0.1132  0.0349  0.9930
 
              Baa    -0.0124    -1.753    -0.626    -0.585 -0.0272  0.9684  0.2480
     5 Na(23) Bbb    -0.0069    -0.972    -0.347    -0.324  0.9989  0.0168  0.0439
              Bcc     0.0193     2.725     0.973     0.909 -0.0383 -0.2489  0.9678
 
              Baa    -0.0142    -2.001    -0.714    -0.668  0.9505  0.2648 -0.1629
     6 Na(23) Bbb    -0.0095    -1.336    -0.477    -0.445 -0.2868  0.9490 -0.1310
              Bcc     0.0236     3.337     1.191     1.113  0.1199  0.1712  0.9779
 
              Baa    -0.0120    -1.693    -0.604    -0.565 -0.5296  0.8431 -0.0935
     7 Na(23) Bbb    -0.0073    -1.027    -0.366    -0.343  0.8381  0.5370  0.0956
              Bcc     0.0193     2.720     0.971     0.907 -0.1308  0.0277  0.9910
 

 ---------------------------------------------------------------------------------

 No NMR shielding tensors so no spin-rotation constants.
 Leave Link  601 at Thu Dec  7 06:27:46 2023, MaxMem=  1879048192 cpu:               2.3 elap:               0.2
 (Enter /home/sekinelabo/g16/l701.exe)
 ... and contract with generalized density number  0.
 Compute integral first derivatives.
 Leave Link  701 at Thu Dec  7 06:27:46 2023, MaxMem=  1879048192 cpu:               1.6 elap:               0.1
 (Enter /home/sekinelabo/g16/l702.exe)
 L702 exits ... SP integral derivatives will be done elsewhere.
 Leave Link  702 at Thu Dec  7 06:27:47 2023, MaxMem=  1879048192 cpu:               0.5 elap:               0.0
 (Enter /home/sekinelabo/g16/l703.exe)
 Integral derivatives from FoFJK, PRISM(SPDF).
 Compute integral first derivatives, UseDBF=F ICtDFT=           0.
 Calling FoFJK, ICntrl=      2127 FMM=F ISym2X=0 I1Cent= 0 IOpClX= 1 NMat=1 NMatS=1 NMatT=0.
 FoFJK:  IHMeth= 1 ICntrl=    2127 DoSepK=F KAlg= 0 I1Cent=           0 FoldK=F
 IRaf=         0 NMat=       1 IRICut=       1 DoRegI=T DoRafI=F ISym2E= 0 IDoP0=0 IntGTp=1.
 FoFCou: FMM=F IPFlag=           0 FMFlag=      100000 FMFlg1=         800
         NFxFlg=           0 DoJE=F BraDBF=F KetDBF=F FulRan=T
         wScrn=  0.000000 ICntrl=      2127 IOpCl=  1 I1Cent=           0 NGrid=           0
         NMat0=    1 NMatS0=      1 NMatT0=    0 NMatD0=    1 NMtDS0=    0 NMtDT0=    0
 Symmetry not used in FoFCou.
 Leave Link  703 at Thu Dec  7 06:27:49 2023, MaxMem=  1879048192 cpu:              32.3 elap:               2.2
 (Enter /home/sekinelabo/g16/l716.exe)
 Dipole        = 9.61825846D-02 9.08483750D-02 3.92487755D-02
 ***** Axes restored to original set *****
 -------------------------------------------------------------------
 Center     Atomic                   Forces (Hartrees/Bohr)
 Number     Number              X              Y              Z
 -------------------------------------------------------------------
      1       11           0.001797761   -0.000683261    0.000094920
      2       11          -0.001941318   -0.002025738    0.000173702
      3       11          -0.000099603    0.002053205   -0.000696183
      4       11           0.001333390   -0.000723167   -0.000703102
      5       11           0.000351688   -0.000193383   -0.003513354
      6       11          -0.000448488    0.001573656   -0.000966817
      7       11          -0.000993430   -0.000001312    0.005610834
 -------------------------------------------------------------------
 Cartesian Forces:  Max     0.005610834 RMS     0.001795513
 Z-matrix is all fixed cartesians, so copy forces.
 Force constants in Cartesian coordinates: 
                1             2             3             4             5 
      1  0.134206D+00
      2 -0.167171D-01  0.881263D-01
      3  0.119870D-01 -0.420518D-02  0.909826D-01
      4 -0.213917D-01 -0.164979D-01  0.536700D-02  0.529954D-01
      5  0.113715D-01 -0.100110D-01  0.292673D-02  0.165432D-01  0.756336D-01
      6 -0.695761D-02 -0.131307D-02 -0.820274D-02 -0.669910D-02 -0.649574D-02
      7 -0.228105D-01 -0.119109D-01 -0.184339D-01 -0.105703D-01 -0.290952D-03
      8  0.886642D-02 -0.152724D-01  0.506381D-02 -0.110770D-01 -0.177473D-01
      9  0.631266D-02 -0.949494D-02 -0.212111D-01 -0.122798D-02 -0.165616D-01
     10 -0.334569D-01  0.602625D-02 -0.133290D-02 -0.246992D-01 -0.111444D-01
     11  0.553961D-02 -0.176860D-01  0.152452D-02  0.210669D-01 -0.328420D-01
     12 -0.499323D-02  0.284486D-02 -0.172905D-01 -0.945963D-02  0.401429D-02
     13 -0.140001D-01  0.116847D-01 -0.177902D-01  0.449178D-02 -0.424020D-02
     14 -0.331272D-02 -0.980699D-02  0.693581D-02 -0.361536D-02  0.229812D-02
     15  0.977573D-02  0.317284D-02 -0.145991D-01  0.145491D-02  0.535405D-02
     16 -0.176721D-01  0.220190D-01  0.666730D-04  0.585850D-02 -0.429299D-02
     17 -0.935325D-02 -0.211382D-01 -0.458613D-02 -0.391275D-02 -0.363957D-02
     18 -0.254764D-02  0.497099D-02 -0.129668D-01  0.186102D-02 -0.162049D-04
     19 -0.248746D-01  0.539605D-02  0.201364D-01 -0.668442D-02 -0.794619D-02
     20  0.360554D-02 -0.142118D-01 -0.765957D-02 -0.250702D-02 -0.136919D-01
     21 -0.135769D-01  0.402449D-02 -0.167124D-01  0.870378D-02  0.107785D-01
                6             7             8             9            10 
      6  0.590676D-01
      7  0.114373D-01  0.572880D-01
      8  0.125806D-01  0.599888D-02  0.890581D-01
      9 -0.226082D-01 -0.496726D-02  0.199281D-01  0.921624D-01
     10  0.273015D-02 -0.287182D-01 -0.155038D-02 -0.760951D-02  0.172471D+00
     11  0.491821D-02  0.164141D-01 -0.281027D-01  0.269431D-03 -0.136256D-01
     12 -0.230385D-01  0.139846D-01 -0.101087D-01 -0.227878D-01  0.886040D-02
     13  0.245353D-02 -0.904314D-02 -0.137610D-02  0.694421D-02 -0.288370D-01
     14  0.602254D-02 -0.827615D-02 -0.285126D-01  0.154756D-01  0.728453D-02
     15  0.250271D-02 -0.122293D-02 -0.178843D-01 -0.247642D-01 -0.818951D-02
     16  0.206612D-02  0.674505D-02 -0.946941D-03 -0.110957D-02 -0.343406D-01
     17  0.360805D-03 -0.171296D-02 -0.391129D-02 -0.539016D-02  0.104136D-01
     18  0.654100D-02 -0.160963D-02 -0.581837D-02  0.334882D-02 -0.228169D-02
     19 -0.503039D-02  0.710918D-02  0.851406D-04  0.165746D-02 -0.224191D-01
     20 -0.160734D-01 -0.221945D-03  0.448817D-02 -0.422641D-02  0.259603D-02
     21 -0.142619D-01  0.811776D-03 -0.376117D-02 -0.413993D-02  0.782306D-02
               11            12            13            14            15 
     11  0.134649D+00
     12 -0.402550D-02  0.128630D+00
     13 -0.793484D-02  0.184824D-01  0.460378D-01
     14 -0.150421D-01 -0.178430D-02  0.754712D-02  0.663399D-01
     15  0.445024D-02 -0.189346D-01 -0.107129D-01 -0.106256D-01  0.812151D-01
     16 -0.223785D-01 -0.657348D-02 -0.514891D-02  0.635767D-03  0.627422D-02
     17 -0.259244D-01  0.224141D-02 -0.550346D-02 -0.212697D-01  0.141771D-01
     18 -0.391152D-02 -0.236394D-01 -0.178742D-02 -0.176469D-01 -0.215327D-01
     19  0.918428D-03 -0.203010D-01  0.649961D-02 -0.263188D-03  0.262047D-02
     20 -0.150521D-01  0.681793D-02 -0.177216D-03  0.599350D-02  0.135567D-02
     21 -0.322537D-02 -0.229396D-01  0.241043D-02  0.162280D-02 -0.388727D-02
               16            17            18            19            20 
     16  0.487491D-01
     17  0.106435D-01  0.921018D-01
     18  0.126382D-03  0.683294D-02  0.632480D-01
     19 -0.419102D-02 -0.574624D-03  0.623899D-02  0.445604D-01
     20 -0.567977D-02 -0.162186D-01  0.155890D-01  0.238438D-02  0.486927D-01
     21 -0.850340D-03 -0.136360D-01 -0.149990D-01 -0.532184D-02  0.419673D-02
               21 
     21  0.769401D-01
 Leave Link  716 at Thu Dec  7 06:27:49 2023, MaxMem=  1879048192 cpu:               0.4 elap:               0.0
 (Enter /home/sekinelabo/g16/l103.exe)

 GradGradGradGradGradGradGradGradGradGradGradGradGradGradGradGradGradGrad
 Berny optimization.
 Search for a local minimum.
 Step number   1 out of a maximum of    2
 All quantities printed in internal units (Hartrees-Bohrs-Radians)
 Second derivative matrix not updated -- first step.
 ITU=  0
     Eigenvalues ---    0.05360   0.05388   0.06010   0.07595   0.08418
     Eigenvalues ---    0.08746   0.09706   0.11115   0.11624   0.13332
     Eigenvalues ---    0.14616   0.16014   0.16701   0.16821   0.21409
 Angle between quadratic step and forces=  20.19 degrees.
 Linear search not attempted -- first point.
 B after Tr=     0.000000    0.000000    0.000000
         Rot=    1.000000    0.000000    0.000000    0.000000 Ang=   0.00 deg.
 Variable       Old X    -DE/DX   Delta X   Delta X   Delta X     New X
                                 (Linear)    (Quad)   (Total)
    X1       21.50697   0.00180   0.00000   0.02599   0.02599  21.53296
    Y1       26.30518  -0.00068   0.00000  -0.00673  -0.00673  26.29845
    Z1       24.00084   0.00009   0.00000   0.00536   0.00536  24.00621
    X2       28.14671  -0.00194   0.00000  -0.02921  -0.02921  28.11750
    Y2       30.24488  -0.00203   0.00000  -0.03668  -0.03668  30.20819
    Z2       23.39519   0.00017   0.00000   0.00645   0.00645  23.40164
    X3       25.16643  -0.00010   0.00000   0.00206   0.00206  25.16849
    Y3       28.58702   0.00205   0.00000   0.00699   0.00699  28.59401
    Z3       29.33214  -0.00070   0.00000  -0.02648  -0.02648  29.30566
    X4       27.86004   0.00133   0.00000  -0.00207  -0.00207  27.85798
    Y4       24.26219  -0.00072   0.00000   0.00023   0.00023  24.26242
    Z4       25.58784  -0.00070   0.00000  -0.00626  -0.00626  25.58157
    X5       23.43846   0.00035   0.00000   0.01284   0.01284  23.45130
    Y5       22.51760  -0.00019   0.00000   0.00231   0.00231  22.51991
    Z5       30.56613  -0.00351   0.00000  -0.05377  -0.05377  30.51236
    X6       23.91259  -0.00045   0.00000   0.00015   0.00015  23.91274
    Y6       19.58569   0.00157   0.00000   0.03758   0.03758  19.62327
    Z6       24.28430  -0.00097   0.00000  -0.01184  -0.01184  24.27246
    X7       25.97107  -0.00099   0.00000  -0.00976  -0.00976  25.96132
    Y7       24.49992  -0.00000   0.00000  -0.00370  -0.00370  24.49622
    Z7       18.83622   0.00561   0.00000   0.08654   0.08654  18.92276
         Item               Value     Threshold  Converged?
 Maximum Force            0.005611     0.000450     NO 
 RMS     Force            0.001796     0.000300     NO 
 Maximum Displacement     0.086538     0.001800     NO 
 RMS     Displacement     0.027602     0.001200     NO 
 Predicted change in Energy=-4.883905D-04
 GradGradGradGradGradGradGradGradGradGradGradGradGradGradGradGradGradGrad

 Leave Link  103 at Thu Dec  7 06:27:49 2023, MaxMem=  1879048192 cpu:               0.2 elap:               0.0
 (Enter /home/sekinelabo/g16/l9999.exe)
 1\1\GINC-SEKINELABO-XA7R-R37\Force\UB3LYP\6-311+G(d)\Na7(2)\SEKINELABO
 \07-Dec-2023\0\\#P B3LYP/6-311+g(d) force\\DPGEN\\0,2\Na,11.381,13.920
 1,12.7007\Na,14.8946,16.0049,12.3802\Na,13.3175,15.1276,15.5219\Na,14.
 7429,12.839,13.5405\Na,12.4031,11.9158,16.1749\Na,12.654,10.3643,12.85
 07\Na,13.7433,12.9648,9.9677\\Version=ES64L-G16RevB.01\State=2-A\HF=-1
 136.1362628\S2=0.759868\S2-1=0.\S2A=0.750067\RMSD=4.030e-09\RMSF=1.796
 e-03\Dipole=-0.0276064,-0.0279539,-0.132293\Quadrupole=-6.8835073,1.36
 21026,5.5214047,3.7417292,-3.4475386,-0.9831675\PG=C01 [X(Na7)]\\@


 I SUPPOSE A BABY LLAMA HAS A MMAMA AND A PPOPA.
     -- RICHARD AMOUR
 Job cpu time:       0 days  0 hours  3 minutes 44.1 seconds.
 Elapsed time:       0 days  0 hours  0 minutes 18.7 seconds.
 File lengths (MBytes):  RWF=     32 Int=      0 D2E=      0 Chk=      4 Scr=      1
 Normal termination of Gaussian 16 at Thu Dec  7 06:27:49 2023.
