ITEM: TIMESTEP
1030
ITEM: NUMBER OF ATOMS
7
ITEM: BOX BOUNDS xy xz yz ff ff ff
0.0000000000000000e+00 2.2586218085100001e+01 0.0000000000000000e+00
0.0000000000000000e+00 2.2586218085100001e+01 0.0000000000000000e+00
0.0000000000000000e+00 2.2586218085100001e+01 0.0000000000000000e+00
ITEM: ATOMS id type x y z fx fy fz
7 1 10.853 9.90561 10.2764 0.202307 -0.0542668 0.0231998
3 1 14.3421 11.1119 10.7634 -0.0564871 -0.0162475 -0.0870559
5 1 11.3273 12.6956 8.43994 0.0814999 -0.0122792 0.0738097
1 1 8.88706 12.2852 10.8131 -0.171283 0.17942 0.0106101
4 1 9.172 10.2856 13.4626 0.0521056 0.0451905 -0.0120745
6 1 12.4613 9.71291 13.2315 0.0259632 -0.00164236 0.0285603
2 1 12.009 13.055 12.0647 -0.134106 -0.140174 -0.0370495
