 Set GAUSS_MDEF to "14GB".
 Entering Gaussian System, Link 0=g16
 Initial command:
 /home/sekinelabo/g16/l1.exe "/home/sekinelabo/g16temp/Gau-202368.inp" -scrdir="/home/sekinelabo/g16temp/"
 Entering Link 1 = /home/sekinelabo/g16/l1.exe PID=    202370.
  
 Copyright (c) 1988-2017, Gaussian, Inc.  All Rights Reserved.
  
 This is part of the Gaussian(R) 16 program.  It is based on
 the Gaussian(R) 09 system (copyright 2009, Gaussian, Inc.),
 the Gaussian(R) 03 system (copyright 2003, Gaussian, Inc.),
 the Gaussian(R) 98 system (copyright 1998, Gaussian, Inc.),
 the Gaussian(R) 94 system (copyright 1995, Gaussian, Inc.),
 the Gaussian 92(TM) system (copyright 1992, Gaussian, Inc.),
 the Gaussian 90(TM) system (copyright 1990, Gaussian, Inc.),
 the Gaussian 88(TM) system (copyright 1988, Gaussian, Inc.),
 the Gaussian 86(TM) system (copyright 1986, Carnegie Mellon
 University), and the Gaussian 82(TM) system (copyright 1983,
 Carnegie Mellon University). Gaussian is a federally registered
 trademark of Gaussian, Inc.
  
 This software contains proprietary and confidential information,
 including trade secrets, belonging to Gaussian, Inc.
  
 This software is provided under written license and may be
 used, copied, transmitted, or stored only in accord with that
 written license.
  
 The following legend is applicable only to US Government
 contracts under FAR:
  
                    RESTRICTED RIGHTS LEGEND
  
 Use, reproduction and disclosure by the US Government is
 subject to restrictions as set forth in subparagraphs (a)
 and (c) of the Commercial Computer Software - Restricted
 Rights clause in FAR 52.227-19.
  
 Gaussian, Inc.
 340 Quinnipiac St., Bldg. 40, Wallingford CT 06492
  
  
 ---------------------------------------------------------------
 Warning -- This program may not be used in any manner that
 competes with the business of Gaussian, Inc. or will provide
 assistance to any competitor of Gaussian, Inc.  The licensee
 of this program is prohibited from giving any competitor of
 Gaussian, Inc. access to this program.  By using this program,
 the user acknowledges that Gaussian, Inc. is engaged in the
 business of creating and licensing software in the field of
 computational chemistry and represents and warrants to the
 licensee that it is not a competitor of Gaussian, Inc. and that
 it will not use this program in any manner prohibited above.
 ---------------------------------------------------------------
  

 Cite this work as:
 Gaussian 16, Revision B.01,
 M. J. Frisch, G. W. Trucks, H. B. Schlegel, G. E. Scuseria, 
 M. A. Robb, J. R. Cheeseman, G. Scalmani, V. Barone, 
 G. A. Petersson, H. Nakatsuji, X. Li, M. Caricato, A. V. Marenich, 
 J. Bloino, B. G. Janesko, R. Gomperts, B. Mennucci, H. P. Hratchian, 
 J. V. Ortiz, A. F. Izmaylov, J. L. Sonnenberg, D. Williams-Young, 
 F. Ding, F. Lipparini, F. Egidi, J. Goings, B. Peng, A. Petrone, 
 T. Henderson, D. Ranasinghe, V. G. Zakrzewski, J. Gao, N. Rega, 
 G. Zheng, W. Liang, M. Hada, M. Ehara, K. Toyota, R. Fukuda, 
 J. Hasegawa, M. Ishida, T. Nakajima, Y. Honda, O. Kitao, H. Nakai, 
 T. Vreven, K. Throssell, J. A. Montgomery, Jr., J. E. Peralta, 
 F. Ogliaro, M. J. Bearpark, J. J. Heyd, E. N. Brothers, K. N. Kudin, 
 V. N. Staroverov, T. A. Keith, R. Kobayashi, J. Normand, 
 K. Raghavachari, A. P. Rendell, J. C. Burant, S. S. Iyengar, 
 J. Tomasi, M. Cossi, J. M. Millam, M. Klene, C. Adamo, R. Cammi, 
 J. W. Ochterski, R. L. Martin, K. Morokuma, O. Farkas, 
 J. B. Foresman, and D. J. Fox, Gaussian, Inc., Wallingford CT, 2016.
 
 ******************************************
 Gaussian 16:  ES64L-G16RevB.01 20-Dec-2017
                28-Nov-2023 
 ******************************************
 %nproc=15
 Will use up to   15 processors via shared memory.
 -------------------------
 #P B3LYP/6-311+g(d) force
 -------------------------
 1/10=7,30=1,38=1/1,3;
 2/12=2,17=6,18=5,40=1/2;
 3/5=4,6=6,7=11,11=2,25=1,30=1,71=1,74=-5/1,2,3;
 4//1;
 5/5=2,38=5/2;
 6/7=2,8=2,9=2,10=2,28=1/1;
 7/29=1/1,2,3,16;
 1/10=7,30=1/3;
 99//99;
 Leave Link    1 at Tue Nov 28 23:38:34 2023, MaxMem=           0 cpu:               0.3 elap:               0.0
 (Enter /home/sekinelabo/g16/l101.exe)
 -----
 DPGEN
 -----
 Symbolic Z-matrix:
 Charge =  0 Multiplicity = 2
 Na                    14.5092   18.3661   15.8851 
 Na                    17.3959   17.146    14.3285 
 Na                    17.3019   13.5036   14.5236 
 Na                    15.0449   15.357    13.5823 
 Na                    14.438    12.3127   15.3232 
 Na                    15.9196   15.5257   16.8676 
 Na                    12.8159   15.2143   16.9152 
 
 ITRead=  0  0  0  0  0  0  0
 MicOpt= -1 -1 -1 -1 -1 -1 -1
 NAtoms=      7 NQM=        7 NQMF=       0 NMMI=      0 NMMIF=      0
                NMic=       0 NMicF=      0.
                    Isotopes and Nuclear Properties:
 (Nuclear quadrupole moments (NQMom) in fm**2, nuclear magnetic moments (NMagM)
  in nuclear magnetons)

  Atom         1           2           3           4           5           6           7
 IAtWgt=          23          23          23          23          23          23          23
 AtmWgt=  22.9897697  22.9897697  22.9897697  22.9897697  22.9897697  22.9897697  22.9897697
 NucSpn=           3           3           3           3           3           3           3
 AtZEff=  -0.0000000  -0.0000000  -0.0000000  -0.0000000  -0.0000000  -0.0000000  -0.0000000
 NQMom=   10.4000000  10.4000000  10.4000000  10.4000000  10.4000000  10.4000000  10.4000000
 NMagM=    2.2175200   2.2175200   2.2175200   2.2175200   2.2175200   2.2175200   2.2175200
 AtZNuc=  11.0000000  11.0000000  11.0000000  11.0000000  11.0000000  11.0000000  11.0000000
 Leave Link  101 at Tue Nov 28 23:38:35 2023, MaxMem=  1879048192 cpu:               2.4 elap:               0.2
 (Enter /home/sekinelabo/g16/l103.exe)

 GradGradGradGradGradGradGradGradGradGradGradGradGradGradGradGradGradGrad
 Berny optimization.
 Initialization pass.
 Trust Radius=3.00D-01 FncErr=1.00D-07 GrdErr=1.00D-07 EigMax=2.50D+02 EigMin=1.00D-04
 Number of steps in this run=      2 maximum allowed number of steps=      2.
 GradGradGradGradGradGradGradGradGradGradGradGradGradGradGradGradGradGrad

 Leave Link  103 at Tue Nov 28 23:38:35 2023, MaxMem=  1879048192 cpu:               0.2 elap:               0.0
 (Enter /home/sekinelabo/g16/l202.exe)
                          Input orientation:                          
 ---------------------------------------------------------------------
 Center     Atomic      Atomic             Coordinates (Angstroms)
 Number     Number       Type             X           Y           Z
 ---------------------------------------------------------------------
      1         11           0       14.509200   18.366100   15.885100
      2         11           0       17.395900   17.146000   14.328500
      3         11           0       17.301900   13.503600   14.523600
      4         11           0       15.044900   15.357000   13.582300
      5         11           0       14.438000   12.312700   15.323200
      6         11           0       15.919600   15.525700   16.867600
      7         11           0       12.815900   15.214300   16.915200
 ---------------------------------------------------------------------
                    Distance matrix (angstroms):
                    1          2          3          4          5
     1  Na   0.000000
     2  Na   3.499241   0.000000
     3  Na   5.770335   3.648832   0.000000
     4  Na   3.826819   3.047054   3.068418   0.000000
     5  Na   6.079840   5.753207   3.203050   3.559048   0.000000
     6  Na   3.320001   3.354380   3.390277   3.403932   3.860528
     7  Na   3.723199   5.603471   5.363808   4.012110   3.685777
                    6          7
     6  Na   0.000000
     7  Na   3.119646   0.000000
 Stoichiometry    Na7(2)
 Framework group  C1[X(Na7)]
 Deg. of freedom    15
 Full point group                 C1      NOp   1
 Largest Abelian subgroup         C1      NOp   1
 Largest concise Abelian subgroup C1      NOp   1
                         Standard orientation:                         
 ---------------------------------------------------------------------
 Center     Atomic      Atomic             Coordinates (Angstroms)
 Number     Number       Type             X           Y           Z
 ---------------------------------------------------------------------
      1         11           0       -3.036545    0.912550    0.236328
      2         11           0       -1.748731   -2.326146   -0.075226
      3         11           0        1.865394   -2.043747   -0.490350
      4         11           0        0.144478   -0.676498    1.650740
      5         11           0        3.042864    0.841529    0.250107
      6         11           0       -0.318534    0.312455   -1.573287
      7         11           0        0.051076    2.979857    0.001689
 ---------------------------------------------------------------------
 Rotational constants (GHZ):           0.8413405           0.7158879           0.4809612
 Leave Link  202 at Tue Nov 28 23:38:35 2023, MaxMem=  1879048192 cpu:               0.0 elap:               0.0
 (Enter /home/sekinelabo/g16/l301.exe)
 Standard basis: 6-311+G(d) (5D, 7F)
 Ernie: Thresh=  0.10000D-02 Tol=  0.10000D-05 Strict=F.
 There are   217 symmetry adapted cartesian basis functions of A   symmetry.
 There are   210 symmetry adapted basis functions of A   symmetry.
   210 basis functions,   350 primitive gaussians,   217 cartesian basis functions
    39 alpha electrons       38 beta electrons
       nuclear repulsion energy       352.2756873761 Hartrees.
 IExCor=  402 DFT=T Ex+Corr=B3LYP ExCW=0 ScaHFX=  0.200000
 ScaDFX=  0.800000  0.720000  1.000000  0.810000 ScalE2=  1.000000  1.000000
 IRadAn=      5 IRanWt=     -1 IRanGd=            0 ICorTp=0 IEmpDi=  4
 NAtoms=    7 NActive=    7 NUniq=    7 SFac= 1.00D+00 NAtFMM=   60 NAOKFM=F Big=F
 Integral buffers will be    131072 words long.
 Raffenetti 2 integral format.
 Two-electron integral symmetry is turned on.
 Leave Link  301 at Tue Nov 28 23:38:35 2023, MaxMem=  1879048192 cpu:               0.5 elap:               0.0
 (Enter /home/sekinelabo/g16/l302.exe)
 NPDir=0 NMtPBC=     1 NCelOv=     1 NCel=       1 NClECP=     1 NCelD=      1
         NCelK=      1 NCelE2=     1 NClLst=     1 CellRange=     0.0.
 One-electron integrals computed using PRISM.
 One-electron integral symmetry used in STVInt
 NBasis=   210 RedAO= T EigKep=  3.47D-06  NBF=   210
 NBsUse=   210 1.00D-06 EigRej= -1.00D+00 NBFU=   210
 Precomputing XC quadrature grid using
 IXCGrd= 4 IRadAn=           5 IRanWt=          -1 IRanGd=           0 AccXCQ= 0.00D+00.
 Generated NRdTot=       0 NPtTot=           0 NUsed=           0 NTot=          32
 NSgBfM=   211   211   211   211   211 MxSgAt=     7 MxSgA2=     7.
 Leave Link  302 at Tue Nov 28 23:38:35 2023, MaxMem=  1879048192 cpu:               1.9 elap:               0.1
 (Enter /home/sekinelabo/g16/l303.exe)
 DipDrv:  MaxL=1.
 Leave Link  303 at Tue Nov 28 23:38:35 2023, MaxMem=  1879048192 cpu:               0.5 elap:               0.0
 (Enter /home/sekinelabo/g16/l401.exe)
 ExpMin= 7.60D-03 ExpMax= 3.62D+04 ExpMxC= 1.21D+03 IAcc=3 IRadAn=         5 AccDes= 0.00D+00
 Harris functional with IExCor=  402 and IRadAn=       5 diagonalized for initial guess.
 HarFok:  IExCor=  402 AccDes= 0.00D+00 IRadAn=         5 IDoV= 1 UseB2=F ITyADJ=14
 ICtDFT=  3500011 ScaDFX=  1.000000  1.000000  1.000000  1.000000
 FoFCou: FMM=F IPFlag=           0 FMFlag=      100000 FMFlg1=           0
         NFxFlg=           0 DoJE=T BraDBF=F KetDBF=T FulRan=T
         wScrn=  0.000000 ICntrl=       500 IOpCl=  0 I1Cent=   200000004 NGrid=           0
         NMat0=    1 NMatS0=      1 NMatT0=    0 NMatD0=    1 NMtDS0=    0 NMtDT0=    0
 Petite list used in FoFCou.
 Harris En= -1135.90520238381    
 JPrj=0 DoOrth=F DoCkMO=F.
 Initial guess <Sx>= 0.0000 <Sy>= 0.0000 <Sz>= 0.5000 <S**2>= 0.7500 S= 0.5000
 Leave Link  401 at Tue Nov 28 23:38:35 2023, MaxMem=  1879048192 cpu:               4.5 elap:               0.3
 (Enter /home/sekinelabo/g16/l502.exe)
 Keep R1 and R2 ints in memory in canonical form, NReq=506573321.
 FoFCou: FMM=F IPFlag=           0 FMFlag=           0 FMFlg1=           0
         NFxFlg=           0 DoJE=F BraDBF=F KetDBF=F FulRan=T
         wScrn=  0.000000 ICntrl=       600 IOpCl=  0 I1Cent=           0 NGrid=           0
         NMat0=    1 NMatS0=  22155 NMatT0=    0 NMatD0=    1 NMtDS0=    0 NMtDT0=    0
 Symmetry not used in FoFCou.
 Two-electron integral symmetry not used.
 UHF open shell SCF:
 Using DIIS extrapolation, IDIIS=  1040.
 NGot=  1879048192 LenX=  1388082579 LenY=  1388035049
 Requested convergence on RMS density matrix=1.00D-08 within 128 cycles.
 Requested convergence on MAX density matrix=1.00D-06.
 Requested convergence on             energy=1.00D-06.
 No special actions if energy rises.

 Cycle   1  Pass 1  IDiag  1:
 E= -1136.09261695283    
 DIIS: error= 1.28D-02 at cycle   1 NSaved=   1.
 NSaved= 1 IEnMin= 1 EnMin= -1136.09261695283     IErMin= 1 ErrMin= 1.28D-02
 ErrMax= 1.28D-02  0.00D+00 EMaxC= 1.00D-01 BMatC= 1.98D-01 BMatP= 1.98D-01
 IDIUse=3 WtCom= 8.72D-01 WtEn= 1.28D-01
 Coeff-Com:  0.100D+01
 Coeff-En:   0.100D+01
 Coeff:      0.100D+01
 Gap=     0.031 Goal=   None    Shift=    0.000
 Gap=     0.061 Goal=   None    Shift=    0.000
 GapD=    0.031 DampG=0.250 DampE=0.500 DampFc=0.2500 IDamp=-1.
 Damping current iteration by 2.50D-01
 RMSDP=3.87D-02 MaxDP=3.39D+00              OVMax= 2.65D-01

 Cycle   2  Pass 1  IDiag  1:
 E= -1136.10727139454     Delta-E=       -0.014654441704 Rises=F Damp=T
 DIIS: error= 7.65D-03 at cycle   2 NSaved=   2.
 NSaved= 2 IEnMin= 2 EnMin= -1136.10727139454     IErMin= 2 ErrMin= 7.65D-03
 ErrMax= 7.65D-03  0.00D+00 EMaxC= 1.00D-01 BMatC= 7.45D-02 BMatP= 1.98D-01
 IDIUse=3 WtCom= 9.23D-01 WtEn= 7.65D-02
 Coeff-Com: -0.126D+01 0.226D+01
 Coeff-En:   0.000D+00 0.100D+01
 Coeff:     -0.116D+01 0.216D+01
 Gap=     0.048 Goal=   None    Shift=    0.000
 Gap=     0.067 Goal=   None    Shift=    0.000
 RMSDP=2.28D-02 MaxDP=2.03D+00 DE=-1.47D-02 OVMax= 1.71D-01

 Cycle   3  Pass 1  IDiag  1:
 E= -1136.13125097549     Delta-E=       -0.023979580950 Rises=F Damp=F
 DIIS: error= 3.28D-03 at cycle   3 NSaved=   3.
 NSaved= 3 IEnMin= 3 EnMin= -1136.13125097549     IErMin= 3 ErrMin= 3.28D-03
 ErrMax= 3.28D-03  0.00D+00 EMaxC= 1.00D-01 BMatC= 3.47D-03 BMatP= 7.45D-02
 IDIUse=3 WtCom= 9.67D-01 WtEn= 3.28D-02
 Coeff-Com: -0.246D+00 0.438D+00 0.808D+00
 Coeff-En:   0.000D+00 0.000D+00 0.100D+01
 Coeff:     -0.238D+00 0.424D+00 0.814D+00
 Gap=     0.041 Goal=   None    Shift=    0.000
 Gap=     0.061 Goal=   None    Shift=    0.000
 RMSDP=1.17D-02 MaxDP=1.37D+00 DE=-2.40D-02 OVMax= 9.79D-02

 Cycle   4  Pass 1  IDiag  1:
 E= -1136.13029899483     Delta-E=        0.000951980662 Rises=F Damp=F
 DIIS: error= 3.27D-03 at cycle   4 NSaved=   4.
 NSaved= 4 IEnMin= 3 EnMin= -1136.13125097549     IErMin= 4 ErrMin= 3.27D-03
 ErrMax= 3.27D-03  0.00D+00 EMaxC= 1.00D-01 BMatC= 3.86D-03 BMatP= 3.47D-03
 IDIUse=3 WtCom= 1.49D-01 WtEn= 8.51D-01
 Coeff-Com: -0.965D-02 0.166D-01 0.512D+00 0.481D+00
 Coeff-En:   0.000D+00 0.000D+00 0.559D+00 0.441D+00
 Coeff:     -0.144D-02 0.247D-02 0.552D+00 0.447D+00
 Gap=     0.044 Goal=   None    Shift=    0.000
 Gap=     0.060 Goal=   None    Shift=    0.000
 RMSDP=2.66D-03 MaxDP=2.27D-01 DE= 9.52D-04 OVMax= 6.29D-02

 Cycle   5  Pass 1  IDiag  1:
 E= -1136.13388631214     Delta-E=       -0.003587317317 Rises=F Damp=F
 DIIS: error= 7.50D-04 at cycle   5 NSaved=   5.
 NSaved= 5 IEnMin= 5 EnMin= -1136.13388631214     IErMin= 5 ErrMin= 7.50D-04
 ErrMax= 7.50D-04  0.00D+00 EMaxC= 1.00D-01 BMatC= 2.06D-04 BMatP= 3.47D-03
 IDIUse=3 WtCom= 9.93D-01 WtEn= 7.50D-03
 Coeff-Com: -0.979D-03 0.617D-03 0.313D+00 0.275D+00 0.413D+00
 Coeff-En:   0.000D+00 0.000D+00 0.000D+00 0.000D+00 0.100D+01
 Coeff:     -0.972D-03 0.613D-03 0.311D+00 0.273D+00 0.417D+00
 Gap=     0.045 Goal=   None    Shift=    0.000
 Gap=     0.059 Goal=   None    Shift=    0.000
 RMSDP=7.65D-04 MaxDP=6.35D-02 DE=-3.59D-03 OVMax= 1.28D-02

 Cycle   6  Pass 1  IDiag  1:
 E= -1136.13407574325     Delta-E=       -0.000189431103 Rises=F Damp=F
 DIIS: error= 5.72D-05 at cycle   6 NSaved=   6.
 NSaved= 6 IEnMin= 6 EnMin= -1136.13407574325     IErMin= 6 ErrMin= 5.72D-05
 ErrMax= 5.72D-05  0.00D+00 EMaxC= 1.00D-01 BMatC= 1.63D-06 BMatP= 2.06D-04
 IDIUse=1 WtCom= 1.00D+00 WtEn= 0.00D+00
 Coeff-Com: -0.274D-02 0.337D-02-0.198D-01-0.206D-01 0.401D-01 0.100D+01
 Coeff:     -0.274D-02 0.337D-02-0.198D-01-0.206D-01 0.401D-01 0.100D+01
 Gap=     0.045 Goal=   None    Shift=    0.000
 Gap=     0.060 Goal=   None    Shift=    0.000
 RMSDP=7.09D-04 MaxDP=1.21D-01 DE=-1.89D-04 OVMax= 2.09D-03

 Cycle   7  Pass 1  IDiag  1:
 E= -1136.13407762391     Delta-E=       -0.000001880663 Rises=F Damp=F
 DIIS: error= 3.95D-05 at cycle   7 NSaved=   7.
 NSaved= 7 IEnMin= 7 EnMin= -1136.13407762391     IErMin= 7 ErrMin= 3.95D-05
 ErrMax= 3.95D-05  0.00D+00 EMaxC= 1.00D-01 BMatC= 7.35D-07 BMatP= 1.63D-06
 IDIUse=1 WtCom= 1.00D+00 WtEn= 0.00D+00
 Coeff-Com: -0.136D-02 0.167D-02-0.272D-01-0.255D-01 0.271D-02 0.557D+00
 Coeff-Com:  0.493D+00
 Coeff:     -0.136D-02 0.167D-02-0.272D-01-0.255D-01 0.271D-02 0.557D+00
 Coeff:      0.493D+00
 Gap=     0.045 Goal=   None    Shift=    0.000
 Gap=     0.060 Goal=   None    Shift=    0.000
 RMSDP=1.56D-04 MaxDP=2.94D-02 DE=-1.88D-06 OVMax= 1.20D-03

 Cycle   8  Pass 1  IDiag  1:
 E= -1136.13407842742     Delta-E=       -0.000000803507 Rises=F Damp=F
 DIIS: error= 2.17D-05 at cycle   8 NSaved=   8.
 NSaved= 8 IEnMin= 8 EnMin= -1136.13407842742     IErMin= 8 ErrMin= 2.17D-05
 ErrMax= 2.17D-05  0.00D+00 EMaxC= 1.00D-01 BMatC= 1.12D-07 BMatP= 7.35D-07
 IDIUse=1 WtCom= 1.00D+00 WtEn= 0.00D+00
 Coeff-Com:  0.172D-03-0.253D-03-0.971D-02-0.822D-02-0.858D-02 0.382D-01
 Coeff-Com:  0.256D+00 0.733D+00
 Coeff:      0.172D-03-0.253D-03-0.971D-02-0.822D-02-0.858D-02 0.382D-01
 Coeff:      0.256D+00 0.733D+00
 Gap=     0.045 Goal=   None    Shift=    0.000
 Gap=     0.060 Goal=   None    Shift=    0.000
 RMSDP=8.61D-05 MaxDP=1.15D-02 DE=-8.04D-07 OVMax= 6.25D-04

 Cycle   9  Pass 1  IDiag  1:
 E= -1136.13407856578     Delta-E=       -0.000000138366 Rises=F Damp=F
 DIIS: error= 1.49D-05 at cycle   9 NSaved=   9.
 NSaved= 9 IEnMin= 9 EnMin= -1136.13407856578     IErMin= 9 ErrMin= 1.49D-05
 ErrMax= 1.49D-05  0.00D+00 EMaxC= 1.00D-01 BMatC= 5.89D-08 BMatP= 1.12D-07
 IDIUse=1 WtCom= 1.00D+00 WtEn= 0.00D+00
 Coeff-Com:  0.489D-03-0.635D-03-0.782D-03 0.120D-03-0.763D-02-0.103D+00
 Coeff-Com:  0.673D-01 0.517D+00 0.526D+00
 Coeff:      0.489D-03-0.635D-03-0.782D-03 0.120D-03-0.763D-02-0.103D+00
 Coeff:      0.673D-01 0.517D+00 0.526D+00
 Gap=     0.045 Goal=   None    Shift=    0.000
 Gap=     0.060 Goal=   None    Shift=    0.000
 RMSDP=3.77D-05 MaxDP=6.28D-03 DE=-1.38D-07 OVMax= 3.85D-04

 Cycle  10  Pass 1  IDiag  1:
 E= -1136.13407865503     Delta-E=       -0.000000089244 Rises=F Damp=F
 DIIS: error= 4.62D-06 at cycle  10 NSaved=  10.
 NSaved=10 IEnMin=10 EnMin= -1136.13407865503     IErMin=10 ErrMin= 4.62D-06
 ErrMax= 4.62D-06  0.00D+00 EMaxC= 1.00D-01 BMatC= 5.39D-09 BMatP= 5.89D-08
 IDIUse=1 WtCom= 1.00D+00 WtEn= 0.00D+00
 Coeff-Com:  0.157D-03-0.196D-03 0.158D-02 0.174D-02-0.200D-02-0.439D-01
 Coeff-Com: -0.264D-01 0.212D-01 0.216D+00 0.832D+00
 Coeff:      0.157D-03-0.196D-03 0.158D-02 0.174D-02-0.200D-02-0.439D-01
 Coeff:     -0.264D-01 0.212D-01 0.216D+00 0.832D+00
 Gap=     0.045 Goal=   None    Shift=    0.000
 Gap=     0.060 Goal=   None    Shift=    0.000
 RMSDP=1.84D-05 MaxDP=1.19D-03 DE=-8.92D-08 OVMax= 2.70D-04

 Cycle  11  Pass 1  IDiag  1:
 E= -1136.13407867249     Delta-E=       -0.000000017464 Rises=F Damp=F
 DIIS: error= 1.51D-06 at cycle  11 NSaved=  11.
 NSaved=11 IEnMin=11 EnMin= -1136.13407867249     IErMin=11 ErrMin= 1.51D-06
 ErrMax= 1.51D-06  0.00D+00 EMaxC= 1.00D-01 BMatC= 7.30D-10 BMatP= 5.39D-09
 IDIUse=1 WtCom= 1.00D+00 WtEn= 0.00D+00
 Coeff-Com: -0.737D-04 0.992D-04 0.459D-03 0.177D-03 0.130D-02 0.970D-02
 Coeff-Com: -0.113D-01-0.826D-01-0.872D-01 0.381D-02 0.117D+01
 Coeff:     -0.737D-04 0.992D-04 0.459D-03 0.177D-03 0.130D-02 0.970D-02
 Coeff:     -0.113D-01-0.826D-01-0.872D-01 0.381D-02 0.117D+01
 Gap=     0.045 Goal=   None    Shift=    0.000
 Gap=     0.060 Goal=   None    Shift=    0.000
 RMSDP=1.62D-05 MaxDP=1.37D-03 DE=-1.75D-08 OVMax= 2.13D-04

 Cycle  12  Pass 1  IDiag  1:
 E= -1136.13407867765     Delta-E=       -0.000000005161 Rises=F Damp=F
 DIIS: error= 6.92D-07 at cycle  12 NSaved=  12.
 NSaved=12 IEnMin=12 EnMin= -1136.13407867765     IErMin=12 ErrMin= 6.92D-07
 ErrMax= 6.92D-07  0.00D+00 EMaxC= 1.00D-01 BMatC= 2.32D-10 BMatP= 7.30D-10
 IDIUse=1 WtCom= 1.00D+00 WtEn= 0.00D+00
 Coeff-Com: -0.678D-04 0.879D-04-0.238D-04-0.223D-03 0.116D-02 0.138D-01
 Coeff-Com: -0.189D-02-0.502D-01-0.847D-01-0.144D+00 0.481D+00 0.785D+00
 Coeff:     -0.678D-04 0.879D-04-0.238D-04-0.223D-03 0.116D-02 0.138D-01
 Coeff:     -0.189D-02-0.502D-01-0.847D-01-0.144D+00 0.481D+00 0.785D+00
 Gap=     0.045 Goal=   None    Shift=    0.000
 Gap=     0.060 Goal=   None    Shift=    0.000
 RMSDP=6.81D-06 MaxDP=5.76D-04 DE=-5.16D-09 OVMax= 9.57D-05

 Cycle  13  Pass 1  IDiag  1:
 E= -1136.13407867856     Delta-E=       -0.000000000912 Rises=F Damp=F
 DIIS: error= 2.95D-07 at cycle  13 NSaved=  13.
 NSaved=13 IEnMin=13 EnMin= -1136.13407867856     IErMin=13 ErrMin= 2.95D-07
 ErrMax= 2.95D-07  0.00D+00 EMaxC= 1.00D-01 BMatC= 2.07D-11 BMatP= 2.32D-10
 IDIUse=1 WtCom= 1.00D+00 WtEn= 0.00D+00
 Coeff-Com:  0.545D-05-0.807D-05-0.463D-04-0.333D-04 0.131D-04-0.202D-03
 Coeff-Com:  0.207D-02 0.727D-02 0.138D-02-0.209D-01-0.133D+00 0.303D-01
 Coeff-Com:  0.111D+01
 Coeff:      0.545D-05-0.807D-05-0.463D-04-0.333D-04 0.131D-04-0.202D-03
 Coeff:      0.207D-02 0.727D-02 0.138D-02-0.209D-01-0.133D+00 0.303D-01
 Coeff:      0.111D+01
 Gap=     0.045 Goal=   None    Shift=    0.000
 Gap=     0.060 Goal=   None    Shift=    0.000
 RMSDP=3.00D-06 MaxDP=2.34D-04 DE=-9.12D-10 OVMax= 4.71D-05

 Cycle  14  Pass 1  IDiag  1:
 E= -1136.13407867872     Delta-E=       -0.000000000153 Rises=F Damp=F
 DIIS: error= 1.05D-07 at cycle  14 NSaved=  14.
 NSaved=14 IEnMin=14 EnMin= -1136.13407867872     IErMin=14 ErrMin= 1.05D-07
 ErrMax= 1.05D-07  0.00D+00 EMaxC= 1.00D-01 BMatC= 2.66D-12 BMatP= 2.07D-11
 IDIUse=1 WtCom= 1.00D+00 WtEn= 0.00D+00
 Coeff-Com:  0.631D-05-0.826D-05-0.251D-04 0.100D-04-0.141D-03-0.134D-02
 Coeff-Com:  0.437D-03 0.602D-02 0.981D-02 0.173D-01-0.602D-01-0.767D-01
 Coeff-Com: -0.759D-01 0.118D+01
 Coeff:      0.631D-05-0.826D-05-0.251D-04 0.100D-04-0.141D-03-0.134D-02
 Coeff:      0.437D-03 0.602D-02 0.981D-02 0.173D-01-0.602D-01-0.767D-01
 Coeff:     -0.759D-01 0.118D+01
 Gap=     0.045 Goal=   None    Shift=    0.000
 Gap=     0.060 Goal=   None    Shift=    0.000
 RMSDP=7.70D-07 MaxDP=5.08D-05 DE=-1.53D-10 OVMax= 1.54D-05

 Cycle  15  Pass 1  IDiag  1:
 E= -1136.13407867874     Delta-E=       -0.000000000018 Rises=F Damp=F
 DIIS: error= 3.05D-08 at cycle  15 NSaved=  15.
 NSaved=15 IEnMin=15 EnMin= -1136.13407867874     IErMin=15 ErrMin= 3.05D-08
 ErrMax= 3.05D-08  0.00D+00 EMaxC= 1.00D-01 BMatC= 2.91D-13 BMatP= 2.66D-12
 IDIUse=1 WtCom= 1.00D+00 WtEn= 0.00D+00
 Coeff-Com: -0.116D-05 0.167D-05 0.121D-04 0.191D-05 0.216D-04 0.157D-03
 Coeff-Com: -0.269D-03-0.172D-02-0.216D-02-0.260D-02 0.310D-01 0.844D-02
 Coeff-Com: -0.114D+00-0.226D+00 0.131D+01
 Coeff:     -0.116D-05 0.167D-05 0.121D-04 0.191D-05 0.216D-04 0.157D-03
 Coeff:     -0.269D-03-0.172D-02-0.216D-02-0.260D-02 0.310D-01 0.844D-02
 Coeff:     -0.114D+00-0.226D+00 0.131D+01
 Gap=     0.045 Goal=   None    Shift=    0.000
 Gap=     0.060 Goal=   None    Shift=    0.000
 RMSDP=2.38D-07 MaxDP=2.88D-05 DE=-1.82D-11 OVMax= 4.90D-06

 Cycle  16  Pass 1  IDiag  1:
 E= -1136.13407867874     Delta-E=       -0.000000000010 Rises=F Damp=F
 DIIS: error= 1.03D-08 at cycle  16 NSaved=  16.
 NSaved=16 IEnMin=16 EnMin= -1136.13407867874     IErMin=16 ErrMin= 1.03D-08
 ErrMax= 1.03D-08  0.00D+00 EMaxC= 1.00D-01 BMatC= 3.30D-14 BMatP= 2.91D-13
 IDIUse=1 WtCom= 1.00D+00 WtEn= 0.00D+00
 Coeff-Com: -0.376D-06 0.480D-06 0.338D-05 0.622D-06 0.116D-04 0.652D-04
 Coeff-Com:  0.163D-04-0.301D-03-0.570D-03-0.999D-03 0.170D-02 0.541D-02
 Coeff-Com:  0.199D-01-0.872D-01-0.133D+00 0.120D+01
 Coeff:     -0.376D-06 0.480D-06 0.338D-05 0.622D-06 0.116D-04 0.652D-04
 Coeff:      0.163D-04-0.301D-03-0.570D-03-0.999D-03 0.170D-02 0.541D-02
 Coeff:      0.199D-01-0.872D-01-0.133D+00 0.120D+01
 Gap=     0.045 Goal=   None    Shift=    0.000
 Gap=     0.060 Goal=   None    Shift=    0.000
 RMSDP=6.81D-08 MaxDP=9.63D-06 DE=-9.55D-12 OVMax= 1.46D-06

 Cycle  17  Pass 1  IDiag  1:
 E= -1136.13407867876     Delta-E=       -0.000000000015 Rises=F Damp=F
 DIIS: error= 4.57D-09 at cycle  17 NSaved=  17.
 NSaved=17 IEnMin=17 EnMin= -1136.13407867876     IErMin=17 ErrMin= 4.57D-09
 ErrMax= 4.57D-09  0.00D+00 EMaxC= 1.00D-01 BMatC= 7.15D-15 BMatP= 3.30D-14
 IDIUse=1 WtCom= 1.00D+00 WtEn= 0.00D+00
 Coeff-Com:  0.255D-07-0.545D-07-0.180D-05-0.341D-06-0.308D-05-0.840D-07
 Coeff-Com:  0.312D-04 0.180D-03 0.206D-03 0.324D-03-0.406D-02-0.392D-03
 Coeff-Com:  0.165D-01 0.281D-01-0.206D+00 0.110D+00 0.106D+01
 Coeff:      0.255D-07-0.545D-07-0.180D-05-0.341D-06-0.308D-05-0.840D-07
 Coeff:      0.312D-04 0.180D-03 0.206D-03 0.324D-03-0.406D-02-0.392D-03
 Coeff:      0.165D-01 0.281D-01-0.206D+00 0.110D+00 0.106D+01
 Gap=     0.045 Goal=   None    Shift=    0.000
 Gap=     0.060 Goal=   None    Shift=    0.000
 RMSDP=2.56D-08 MaxDP=1.94D-06 DE=-1.48D-11 OVMax= 5.60D-07

 Cycle  18  Pass 1  IDiag  1:
 E= -1136.13407867876     Delta-E=        0.000000000002 Rises=F Damp=F
 DIIS: error= 2.03D-09 at cycle  18 NSaved=  18.
 NSaved=18 IEnMin=17 EnMin= -1136.13407867876     IErMin=18 ErrMin= 2.03D-09
 ErrMax= 2.03D-09  0.00D+00 EMaxC= 1.00D-01 BMatC= 1.54D-15 BMatP= 7.15D-15
 IDIUse=1 WtCom= 1.00D+00 WtEn= 0.00D+00
 Large coefficients: NSaved= 18 BigCof=    0.00 CofMax=   10.00 Det=-3.91D-15
 Inversion failed.  Reducing to 17 matrices.
 Large coefficients: NSaved= 17 BigCof=    0.00 CofMax=   10.00 Det=-3.91D-15
 Inversion failed.  Reducing to 16 matrices.
 Large coefficients: NSaved= 16 BigCof=    0.00 CofMax=   10.00 Det=-3.93D-15
 Inversion failed.  Reducing to 15 matrices.
 Coeff-Com: -0.470D-06-0.936D-06-0.189D-05-0.573D-06 0.208D-04 0.866D-04
 Coeff-Com:  0.174D-03-0.623D-03-0.799D-03-0.974D-03 0.190D-01-0.797D-02
 Coeff-Com: -0.225D+00 0.233D+00 0.983D+00
 Coeff:     -0.470D-06-0.936D-06-0.189D-05-0.573D-06 0.208D-04 0.866D-04
 Coeff:      0.174D-03-0.623D-03-0.799D-03-0.974D-03 0.190D-01-0.797D-02
 Coeff:     -0.225D+00 0.233D+00 0.983D+00
 Gap=     0.045 Goal=   None    Shift=    0.000
 Gap=     0.060 Goal=   None    Shift=    0.000
 RMSDP=1.08D-08 MaxDP=7.70D-07 DE= 1.82D-12 OVMax= 2.37D-07

 Cycle  19  Pass 1  IDiag  1:
 E= -1136.13407867876     Delta-E=       -0.000000000002 Rises=F Damp=F
 DIIS: error= 8.52D-10 at cycle  19 NSaved=  16.
 NSaved=16 IEnMin=14 EnMin= -1136.13407867876     IErMin=16 ErrMin= 8.52D-10
 ErrMax= 8.52D-10  0.00D+00 EMaxC= 1.00D-01 BMatC= 1.66D-16 BMatP= 1.54D-15
 IDIUse=1 WtCom= 1.00D+00 WtEn= 0.00D+00
 Large coefficients: NSaved= 16 BigCof=    0.00 CofMax=   10.00 Det=-6.63D-16
 Inversion failed.  Reducing to 15 matrices.
 Coeff-Com: -0.214D-06-0.409D-05-0.674D-05-0.102D-04 0.470D-05 0.168D-04
 Coeff-Com:  0.512D-03-0.256D-03-0.361D-02 0.225D-03 0.351D-01-0.575D-01
 Coeff-Com: -0.146D+00 0.116D+00 0.106D+01
 Coeff:     -0.214D-06-0.409D-05-0.674D-05-0.102D-04 0.470D-05 0.168D-04
 Coeff:      0.512D-03-0.256D-03-0.361D-02 0.225D-03 0.351D-01-0.575D-01
 Coeff:     -0.146D+00 0.116D+00 0.106D+01
 Gap=     0.045 Goal=   None    Shift=    0.000
 Gap=     0.060 Goal=   None    Shift=    0.000
 RMSDP=1.14D-08 MaxDP=1.86D-06 DE=-1.59D-12 OVMax= 8.08D-08

 Cycle  20  Pass 1  IDiag  1:
 E= -1136.13407867876     Delta-E=        0.000000000003 Rises=F Damp=F
 DIIS: error= 1.14D-10 at cycle  20 NSaved=  16.
 NSaved=16 IEnMin=13 EnMin= -1136.13407867876     IErMin=16 ErrMin= 1.14D-10
 ErrMax= 1.14D-10  0.00D+00 EMaxC= 1.00D-01 BMatC= 5.18D-18 BMatP= 1.66D-16
 IDIUse=1 WtCom= 1.00D+00 WtEn= 0.00D+00
 Large coefficients: NSaved= 16 BigCof=    0.00 CofMax=   10.00 Det=-2.28D-17
 Inversion failed.  Reducing to 15 matrices.
 Coeff-Com:  0.527D-06 0.160D-05 0.172D-05-0.256D-05-0.439D-05-0.536D-04
 Coeff-Com:  0.250D-04 0.330D-03-0.134D-03-0.333D-02 0.937D-02 0.497D-02
 Coeff-Com: -0.352D-01-0.647D-01 0.109D+01
 Coeff:      0.527D-06 0.160D-05 0.172D-05-0.256D-05-0.439D-05-0.536D-04
 Coeff:      0.250D-04 0.330D-03-0.134D-03-0.333D-02 0.937D-02 0.497D-02
 Coeff:     -0.352D-01-0.647D-01 0.109D+01
 Gap=     0.045 Goal=   None    Shift=    0.000
 Gap=     0.060 Goal=   None    Shift=    0.000
 RMSDP=4.59D-09 MaxDP=7.09D-07 DE= 2.96D-12 OVMax= 1.27D-08

 SCF Done:  E(UB3LYP) =  -1136.13407868     A.U. after   20 cycles
            NFock= 20  Conv=0.46D-08     -V/T= 2.0028
 <Sx>= 0.0000 <Sy>= 0.0000 <Sz>= 0.5000 <S**2>= 0.7580 S= 0.5040
 <L.S>= 0.000000000000E+00
 KE= 1.132996270373D+03 PE=-3.434167931665D+03 EE= 8.127618952371D+02
 Annihilation of the first spin contaminant:
 S**2 before annihilation     0.7580,   after     0.7500
 Leave Link  502 at Tue Nov 28 23:38:52 2023, MaxMem=  1879048192 cpu:             189.6 elap:              16.9
 (Enter /home/sekinelabo/g16/l601.exe)
 Copying SCF densities to generalized density rwf, IOpCl= 1 IROHF=0.

 **********************************************************************

            Population analysis using the SCF Density.

 **********************************************************************

 Orbital symmetries:
 Alpha Orbitals:
       Occupied  (A) (A) (A) (A) (A) (A) (A) (A) (A) (A) (A) (A)
                 (A) (A) (A) (A) (A) (A) (A) (A) (A) (A) (A) (A)
                 (A) (A) (A) (A) (A) (A) (A) (A) (A) (A) (A) (A)
                 (A) (A) (A)
       Virtual   (A) (A) (A) (A) (A) (A) (A) (A) (A) (A) (A) (A)
                 (A) (A) (A) (A) (A) (A) (A) (A) (A) (A) (A) (A)
                 (A) (A) (A) (A) (A) (A) (A) (A) (A) (A) (A) (A)
                 (A) (A) (A) (A) (A) (A) (A) (A) (A) (A) (A) (A)
                 (A) (A) (A) (A) (A) (A) (A) (A) (A) (A) (A) (A)
                 (A) (A) (A) (A) (A) (A) (A) (A) (A) (A) (A) (A)
                 (A) (A) (A) (A) (A) (A) (A) (A) (A) (A) (A) (A)
                 (A) (A) (A) (A) (A) (A) (A) (A) (A) (A) (A) (A)
                 (A) (A) (A) (A) (A) (A) (A) (A) (A) (A) (A) (A)
                 (A) (A) (A) (A) (A) (A) (A) (A) (A) (A) (A) (A)
                 (A) (A) (A) (A) (A) (A) (A) (A) (A) (A) (A) (A)
                 (A) (A) (A) (A) (A) (A) (A) (A) (A) (A) (A) (A)
                 (A) (A) (A) (A) (A) (A) (A) (A) (A) (A) (A) (A)
                 (A) (A) (A) (A) (A) (A) (A) (A) (A) (A) (A) (A)
                 (A) (A) (A)
 Beta  Orbitals:
       Occupied  (A) (A) (A) (A) (A) (A) (A) (A) (A) (A) (A) (A)
                 (A) (A) (A) (A) (A) (A) (A) (A) (A) (A) (A) (A)
                 (A) (A) (A) (A) (A) (A) (A) (A) (A) (A) (A) (A)
                 (A) (A)
       Virtual   (A) (A) (A) (A) (A) (A) (A) (A) (A) (A) (A) (A)
                 (A) (A) (A) (A) (A) (A) (A) (A) (A) (A) (A) (A)
                 (A) (A) (A) (A) (A) (A) (A) (A) (A) (A) (A) (A)
                 (A) (A) (A) (A) (A) (A) (A) (A) (A) (A) (A) (A)
                 (A) (A) (A) (A) (A) (A) (A) (A) (A) (A) (A) (A)
                 (A) (A) (A) (A) (A) (A) (A) (A) (A) (A) (A) (A)
                 (A) (A) (A) (A) (A) (A) (A) (A) (A) (A) (A) (A)
                 (A) (A) (A) (A) (A) (A) (A) (A) (A) (A) (A) (A)
                 (A) (A) (A) (A) (A) (A) (A) (A) (A) (A) (A) (A)
                 (A) (A) (A) (A) (A) (A) (A) (A) (A) (A) (A) (A)
                 (A) (A) (A) (A) (A) (A) (A) (A) (A) (A) (A) (A)
                 (A) (A) (A) (A) (A) (A) (A) (A) (A) (A) (A) (A)
                 (A) (A) (A) (A) (A) (A) (A) (A) (A) (A) (A) (A)
                 (A) (A) (A) (A) (A) (A) (A) (A) (A) (A) (A) (A)
                 (A) (A) (A) (A)
 The electronic state is 2-A.
 Alpha  occ. eigenvalues --  -38.44254 -38.44012 -38.43543 -38.43511 -38.43480
 Alpha  occ. eigenvalues --  -38.43126 -38.42777  -2.20086  -2.19855  -2.19419
 Alpha  occ. eigenvalues --   -2.19410  -2.19380  -2.19129  -2.18801  -1.13768
 Alpha  occ. eigenvalues --   -1.13746  -1.13719  -1.13542  -1.13520  -1.13491
 Alpha  occ. eigenvalues --   -1.13177  -1.13130  -1.13102  -1.13083  -1.13068
 Alpha  occ. eigenvalues --   -1.13043  -1.13037  -1.13014  -1.12998  -1.12803
 Alpha  occ. eigenvalues --   -1.12744  -1.12726  -1.12484  -1.12431  -1.12416
 Alpha  occ. eigenvalues --   -0.19047  -0.13303  -0.12633  -0.10324
 Alpha virt. eigenvalues --   -0.05824  -0.05180  -0.04742  -0.03129  -0.02750
 Alpha virt. eigenvalues --   -0.01961  -0.01643  -0.01139  -0.00456  -0.00267
 Alpha virt. eigenvalues --    0.00048   0.00353   0.00816   0.00869   0.00894
 Alpha virt. eigenvalues --    0.01012   0.01117   0.01222   0.01290   0.01376
 Alpha virt. eigenvalues --    0.01401   0.01513   0.01822   0.01896   0.02186
 Alpha virt. eigenvalues --    0.02281   0.02320   0.02572   0.02590   0.02870
 Alpha virt. eigenvalues --    0.02983   0.03091   0.03130   0.03200   0.03252
 Alpha virt. eigenvalues --    0.03268   0.03286   0.03348   0.03447   0.03495
 Alpha virt. eigenvalues --    0.04264   0.04379   0.04644   0.04839   0.04892
 Alpha virt. eigenvalues --    0.05051   0.05073   0.05184   0.05336   0.05506
 Alpha virt. eigenvalues --    0.06113   0.06950   0.07211   0.07364   0.07686
 Alpha virt. eigenvalues --    0.07770   0.08001   0.08164   0.08311   0.09188
 Alpha virt. eigenvalues --    0.09589   0.09777   0.10900   0.11185   0.11782
 Alpha virt. eigenvalues --    0.12003   0.12381   0.12652   0.13115   0.13789
 Alpha virt. eigenvalues --    0.13953   0.14070   0.14434   0.14826   0.15062
 Alpha virt. eigenvalues --    0.15542   0.15641   0.15856   0.16556   0.17915
 Alpha virt. eigenvalues --    0.25231   0.26144   0.26608   0.27577   0.29333
 Alpha virt. eigenvalues --    0.29624   0.30160   0.32249   0.33132   0.33770
 Alpha virt. eigenvalues --    0.34493   0.35361   0.36893   0.38021   0.38649
 Alpha virt. eigenvalues --    0.39514   0.40984   0.41430   0.42372   0.43216
 Alpha virt. eigenvalues --    0.44023   0.44588   0.44835   0.44958   0.45130
 Alpha virt. eigenvalues --    0.45384   0.45503   0.45660   0.45754   0.46672
 Alpha virt. eigenvalues --    0.47207   0.48367   0.48812   0.49142   0.49685
 Alpha virt. eigenvalues --    0.50215   0.50785   0.51863   0.52457   0.52842
 Alpha virt. eigenvalues --    0.54374   0.54717   0.55820   0.56587   0.56843
 Alpha virt. eigenvalues --    0.58932   0.59340   0.61028   0.62649   0.63395
 Alpha virt. eigenvalues --    0.64956   0.65212   0.67681   0.70834   0.71196
 Alpha virt. eigenvalues --    0.72288   2.04551   2.15135   2.17068   2.20058
 Alpha virt. eigenvalues --    2.23602   2.27116   2.29786   4.43106   4.43279
 Alpha virt. eigenvalues --    4.44248   4.44410   4.44671   4.45598   4.46085
 Alpha virt. eigenvalues --    4.46684   4.48007   4.48192   4.48497   4.49001
 Alpha virt. eigenvalues --    4.50057   4.50728   4.55808   4.56810   4.59819
 Alpha virt. eigenvalues --    4.61169   4.63533   4.64153   4.71128  96.23918
 Alpha virt. eigenvalues --   96.36734  96.39236  96.43113  96.47855  96.52419
 Alpha virt. eigenvalues --   96.55346
  Beta  occ. eigenvalues --  -38.44249 -38.44006 -38.43540 -38.43502 -38.43464
  Beta  occ. eigenvalues --  -38.43059 -38.42707  -2.20079  -2.19847  -2.19407
  Beta  occ. eigenvalues --   -2.19384  -2.19378  -2.19007  -2.18674  -1.13758
  Beta  occ. eigenvalues --   -1.13732  -1.13712  -1.13539  -1.13499  -1.13483
  Beta  occ. eigenvalues --   -1.13161  -1.13111  -1.13093  -1.13052  -1.13031
  Beta  occ. eigenvalues --   -1.13022  -1.13018  -1.13000  -1.12995  -1.12721
  Beta  occ. eigenvalues --   -1.12660  -1.12637  -1.12396  -1.12337  -1.12323
  Beta  occ. eigenvalues --   -0.18333  -0.13054  -0.12389
  Beta virt. eigenvalues --   -0.06432  -0.05790  -0.05163  -0.04686  -0.02359
  Beta virt. eigenvalues --   -0.02011  -0.01554  -0.01087  -0.00973  -0.00481
  Beta virt. eigenvalues --   -0.00300   0.00185   0.00395   0.00853   0.00877
  Beta virt. eigenvalues --    0.00905   0.01070   0.01219   0.01355   0.01417
  Beta virt. eigenvalues --    0.01482   0.01614   0.01666   0.01858   0.01937
  Beta virt. eigenvalues --    0.02208   0.02288   0.02466   0.02560   0.02588
  Beta virt. eigenvalues --    0.02894   0.03098   0.03118   0.03152   0.03273
  Beta virt. eigenvalues --    0.03284   0.03305   0.03371   0.03420   0.03564
  Beta virt. eigenvalues --    0.03689   0.04331   0.04473   0.04740   0.04857
  Beta virt. eigenvalues --    0.04971   0.05174   0.05239   0.05382   0.05458
  Beta virt. eigenvalues --    0.05814   0.06498   0.06936   0.07213   0.07366
  Beta virt. eigenvalues --    0.07779   0.07948   0.08140   0.08367   0.08408
  Beta virt. eigenvalues --    0.09389   0.09867   0.10090   0.11019   0.11294
  Beta virt. eigenvalues --    0.11993   0.12211   0.12588   0.12955   0.13281
  Beta virt. eigenvalues --    0.13999   0.14101   0.14165   0.14739   0.14977
  Beta virt. eigenvalues --    0.15326   0.15822   0.15961   0.16263   0.16920
  Beta virt. eigenvalues --    0.18472   0.25483   0.26223   0.26801   0.27711
  Beta virt. eigenvalues --    0.29595   0.29756   0.30525   0.32657   0.33583
  Beta virt. eigenvalues --    0.34094   0.34674   0.35577   0.37016   0.38303
  Beta virt. eigenvalues --    0.38941   0.39664   0.41126   0.41504   0.42530
  Beta virt. eigenvalues --    0.43538   0.44242   0.44556   0.44895   0.45002
  Beta virt. eigenvalues --    0.45376   0.45536   0.45723   0.45813   0.45945
  Beta virt. eigenvalues --    0.46933   0.47362   0.48491   0.48839   0.49172
  Beta virt. eigenvalues --    0.49765   0.50308   0.50967   0.52026   0.52510
  Beta virt. eigenvalues --    0.53118   0.54656   0.55022   0.56020   0.56628
  Beta virt. eigenvalues --    0.56969   0.59159   0.59765   0.61185   0.63100
  Beta virt. eigenvalues --    0.63779   0.65200   0.65416   0.67692   0.71056
  Beta virt. eigenvalues --    0.71501   0.72429   2.04618   2.15147   2.17075
  Beta virt. eigenvalues --    2.20081   2.23632   2.27383   2.30097   4.43182
  Beta virt. eigenvalues --    4.43307   4.44321   4.44458   4.44725   4.45597
  Beta virt. eigenvalues --    4.46117   4.46716   4.48031   4.48232   4.48550
  Beta virt. eigenvalues --    4.49028   4.50063   4.50742   4.55898   4.56854
  Beta virt. eigenvalues --    4.59870   4.61240   4.63610   4.64229   4.71175
  Beta virt. eigenvalues --   96.23944  96.36739  96.39240  96.43123  96.47869
  Beta virt. eigenvalues --   96.52495  96.55439
          Condensed to atoms (all electrons):
               1          2          3          4          5          6
     1  Na  11.086753   0.148599  -0.570372   1.002808   0.192124  -1.211335
     2  Na   0.148599  12.500957   0.560679  -1.517538  -0.881520   0.151255
     3  Na  -0.570372   0.560679  12.169154  -2.736400  -0.270120   1.654342
     4  Na   1.002808  -1.517538  -2.736400  19.965235   0.991509  -6.702131
     5  Na   0.192124  -0.881520  -0.270120   0.991509  11.137052  -0.667877
     6  Na  -1.211335   0.151255   1.654342  -6.702131  -0.667877  18.649031
     7  Na   0.395733  -0.380254  -0.097160   0.420838   0.516620  -0.689678
               7
     1  Na   0.395733
     2  Na  -0.380254
     3  Na  -0.097160
     4  Na   0.420838
     5  Na   0.516620
     6  Na  -0.689678
     7  Na  10.871573
          Atomic-Atomic Spin Densities.
               1          2          3          4          5          6
     1  Na  -0.053672  -0.074651  -0.033817   0.837428   0.009448  -0.729686
     2  Na  -0.074651  -0.499681  -0.023043   0.021945   0.196951   0.326171
     3  Na  -0.033817  -0.023043   0.185311  -1.433652  -0.049065   1.463310
     4  Na   0.837428   0.021945  -1.433652   7.022152   0.424627  -6.592893
     5  Na   0.009448   0.196951  -0.049065   0.424627  -0.124377  -0.405713
     6  Na  -0.729686   0.326171   1.463310  -6.592893  -0.405713   6.717707
     7  Na  -0.026554   0.075042  -0.038548   0.350959  -0.075310  -0.306542
               7
     1  Na  -0.026554
     2  Na   0.075042
     3  Na  -0.038548
     4  Na   0.350959
     5  Na  -0.075310
     6  Na  -0.306542
     7  Na  -0.080253
 Mulliken charges and spin densities:
               1          2
     1  Na  -0.044310  -0.071504
     2  Na   0.417820   0.022733
     3  Na   0.289877   0.070495
     4  Na  -0.424321   0.630567
     5  Na  -0.017787  -0.023438
     6  Na  -0.183606   0.472353
     7  Na  -0.037673  -0.101206
 Sum of Mulliken charges =  -0.00000   1.00000
 Mulliken charges and spin densities with hydrogens summed into heavy atoms:
               1          2
     1  Na  -0.044310  -0.071504
     2  Na   0.417820   0.022733
     3  Na   0.289877   0.070495
     4  Na  -0.424321   0.630567
     5  Na  -0.017787  -0.023438
     6  Na  -0.183606   0.472353
     7  Na  -0.037673  -0.101206
 Electronic spatial extent (au):  <R**2>=           2156.6949
 Charge=             -0.0000 electrons
 Dipole moment (field-independent basis, Debye):
    X=             -0.1835    Y=              0.1825    Z=              0.0845  Tot=              0.2722
 Quadrupole moment (field-independent basis, Debye-Ang):
   XX=            -53.9159   YY=            -61.7522   ZZ=            -76.2650
   XY=              0.3789   XZ=             -0.8363   YZ=              2.3367
 Traceless Quadrupole moment (field-independent basis, Debye-Ang):
   XX=             10.0618   YY=              2.2255   ZZ=            -12.2874
   XY=              0.3789   XZ=             -0.8363   YZ=              2.3367
 Octapole moment (field-independent basis, Debye-Ang**2):
  XXX=             -4.8976  YYY=              0.4507  ZZZ=              0.9071  XYY=             -1.5258
  XXY=              5.0621  XXZ=              1.1177  XZZ=             -0.1088  YZZ=              0.3475
  YYZ=             -1.9360  XYZ=              0.4259
 Hexadecapole moment (field-independent basis, Debye-Ang**3):
 XXXX=          -1381.7403 YYYY=          -1321.4046 ZZZZ=           -693.3897 XXXY=             -6.4608
 XXXZ=            -13.9565 YYYX=             20.5626 YYYZ=             33.6472 ZZZX=              2.1359
 ZZZY=             -1.8051 XXYY=           -466.5286 XXZZ=           -425.2984 YYZZ=           -388.7484
 XXYZ=             28.9414 YYXZ=            -10.5064 ZZXY=             -4.4340
 N-N= 3.522756873761D+02 E-N=-3.434167931679D+03  KE= 1.132996270373D+03
                          Isotropic Fermi Contact Couplings
        Atom                 a.u.       MegaHertz       Gauss      10(-4) cm-1
     1  Na(23)            -0.00732      -8.66253      -3.09101      -2.88951
     2  Na(23)            -0.01660     -19.63546      -7.00642      -6.54968
     3  Na(23)             0.01903      22.51789       8.03494       7.51116
     4  Na(23)             0.26197     309.91678     110.58602     103.37711
     5  Na(23)            -0.00644      -7.61508      -2.71725      -2.54012
     6  Na(23)             0.27028     319.74967     114.09464     106.65701
     7  Na(23)            -0.01809     -21.39801      -7.63534      -7.13761
 --------------------------------------------------------
       Center         ----  Spin Dipole Couplings  ----
                      3XX-RR        3YY-RR        3ZZ-RR
 --------------------------------------------------------
     1   Atom       -0.009149     -0.012859      0.022008
     2   Atom       -0.019717     -0.020562      0.040279
     3   Atom       -0.016024     -0.018616      0.034640
     4   Atom        0.001454     -0.004922      0.003468
     5   Atom       -0.008481     -0.014455      0.022936
     6   Atom       -0.006930      0.003569      0.003361
     7   Atom       -0.013316     -0.008059      0.021375
 --------------------------------------------------------
                        XY            XZ            YZ
 --------------------------------------------------------
     1   Atom       -0.001626      0.001523     -0.005107
     2   Atom        0.001786     -0.010580      0.001642
     3   Atom       -0.004125      0.015641     -0.007534
     4   Atom        0.002675     -0.002020      0.001277
     5   Atom        0.001490     -0.003894      0.000598
     6   Atom       -0.004667     -0.003633      0.010401
     7   Atom        0.000083      0.003014      0.001350
 --------------------------------------------------------


 ---------------------------------------------------------------------------------
              Anisotropic Spin Dipole Couplings in Principal Axis System
 ---------------------------------------------------------------------------------

       Atom             a.u.   MegaHertz   Gauss  10(-4) cm-1        Axes

              Baa    -0.0140    -1.977    -0.705    -0.659  0.2806  0.9519  0.1231
     1 Na(23) Bbb    -0.0088    -1.248    -0.445    -0.416  0.9583 -0.2705 -0.0921
              Bcc     0.0228     3.225     1.151     1.076  0.0544 -0.1438  0.9881
 
              Baa    -0.0231    -3.269    -1.166    -1.090  0.7691 -0.6226  0.1444
     2 Na(23) Bbb    -0.0190    -2.679    -0.956    -0.893  0.6166  0.7823  0.0884
              Bcc     0.0421     5.948     2.122     1.984 -0.1680  0.0210  0.9856
 
              Baa    -0.0221    -3.115    -1.111    -1.039  0.7600  0.6378 -0.1249
     3 Na(23) Bbb    -0.0182    -2.572    -0.918    -0.858 -0.5890  0.7572  0.2822
              Bcc     0.0403     5.687     2.029     1.897  0.2746 -0.1409  0.9512
 
              Baa    -0.0063    -0.886    -0.316    -0.295 -0.3661  0.9099 -0.1952
     4 Na(23) Bbb     0.0015     0.218     0.078     0.073  0.7518  0.4128  0.5143
              Bcc     0.0047     0.668     0.238     0.223 -0.5485 -0.0415  0.8351
 
              Baa    -0.0149    -2.099    -0.749    -0.700 -0.2508  0.9672 -0.0411
     5 Na(23) Bbb    -0.0085    -1.207    -0.431    -0.403  0.9605  0.2539  0.1140
              Bcc     0.0234     3.307     1.180     1.103 -0.1207  0.0109  0.9926
 
              Baa    -0.0087    -1.233    -0.440    -0.411  0.9051  0.4165 -0.0863
     6 Na(23) Bbb    -0.0067    -0.943    -0.337    -0.315  0.3408 -0.5887  0.7330
              Bcc     0.0154     2.176     0.777     0.726 -0.2544  0.6928  0.6747
 
              Baa    -0.0136    -1.917    -0.684    -0.639  0.9963  0.0061 -0.0862
     7 Na(23) Bbb    -0.0081    -1.147    -0.409    -0.382 -0.0099  0.9990 -0.0447
              Bcc     0.0217     3.064     1.093     1.022  0.0858  0.0454  0.9953
 

 ---------------------------------------------------------------------------------

 No NMR shielding tensors so no spin-rotation constants.
 Leave Link  601 at Tue Nov 28 23:38:52 2023, MaxMem=  1879048192 cpu:               2.3 elap:               0.2
 (Enter /home/sekinelabo/g16/l701.exe)
 ... and contract with generalized density number  0.
 Compute integral first derivatives.
 Leave Link  701 at Tue Nov 28 23:38:53 2023, MaxMem=  1879048192 cpu:               1.5 elap:               0.1
 (Enter /home/sekinelabo/g16/l702.exe)
 L702 exits ... SP integral derivatives will be done elsewhere.
 Leave Link  702 at Tue Nov 28 23:38:53 2023, MaxMem=  1879048192 cpu:               0.5 elap:               0.0
 (Enter /home/sekinelabo/g16/l703.exe)
 Integral derivatives from FoFJK, PRISM(SPDF).
 Compute integral first derivatives, UseDBF=F ICtDFT=           0.
 Calling FoFJK, ICntrl=      2127 FMM=F ISym2X=0 I1Cent= 0 IOpClX= 1 NMat=1 NMatS=1 NMatT=0.
 FoFJK:  IHMeth= 1 ICntrl=    2127 DoSepK=F KAlg= 0 I1Cent=           0 FoldK=F
 IRaf=         0 NMat=       1 IRICut=       1 DoRegI=T DoRafI=F ISym2E= 0 IDoP0=0 IntGTp=1.
 FoFCou: FMM=F IPFlag=           0 FMFlag=      100000 FMFlg1=         800
         NFxFlg=           0 DoJE=F BraDBF=F KetDBF=F FulRan=T
         wScrn=  0.000000 ICntrl=      2127 IOpCl=  1 I1Cent=           0 NGrid=           0
         NMat0=    1 NMatS0=      1 NMatT0=    0 NMatD0=    1 NMtDS0=    0 NMtDT0=    0
 Symmetry not used in FoFCou.
 Leave Link  703 at Tue Nov 28 23:38:55 2023, MaxMem=  1879048192 cpu:              34.2 elap:               2.3
 (Enter /home/sekinelabo/g16/l716.exe)
 Dipole        =-7.21933288D-02 7.17913565D-02 3.32414230D-02
 ***** Axes restored to original set *****
 -------------------------------------------------------------------
 Center     Atomic                   Forces (Hartrees/Bohr)
 Number     Number              X              Y              Z
 -------------------------------------------------------------------
      1       11          -0.001321576   -0.001951936   -0.000896755
      2       11           0.004792516    0.002526289    0.000074265
      3       11           0.006984260   -0.001210510    0.000186031
      4       11          -0.009176080    0.000557891   -0.003482916
      5       11          -0.002864671    0.001832637    0.001423047
      6       11           0.003845388   -0.001838351    0.004195373
      7       11          -0.002259838    0.000083979   -0.001499044
 -------------------------------------------------------------------
 Cartesian Forces:  Max     0.009176080 RMS     0.003376089
 Z-matrix is all fixed cartesians, so copy forces.
 Force constants in Cartesian coordinates: 
                1             2             3             4             5 
      1  0.613211D-01
      2 -0.114615D-01  0.955298D-01
      3 -0.984791D-02  0.363151D-02  0.540797D-01
      4 -0.242164D-01 -0.159928D-01  0.844749D-02  0.989194D-01
      5  0.173417D-01 -0.210918D-01 -0.918483D-02  0.218786D-01  0.914473D-01
      6  0.903803D-02  0.833929D-02 -0.848851D-02 -0.168531D-01 -0.682261D-02
      7  0.349626D-02  0.572414D-02  0.148947D-02 -0.156622D-01 -0.172983D-01
      8  0.503855D-02 -0.191598D-02 -0.214650D-02  0.178977D-01 -0.249574D-01
      9  0.178287D-02 -0.316543D-02  0.866396D-02  0.542733D-02  0.722115D-02
     10 -0.977213D-02  0.565587D-02  0.580627D-02 -0.406307D-01 -0.556429D-02
     11 -0.666502D-02 -0.183064D-01 -0.210812D-01 -0.138336D-01 -0.279246D-01
     12 -0.866188D-02  0.938508D-02 -0.230457D-01  0.706280D-02  0.981113D-02
     13  0.658080D-02  0.747020D-03 -0.387102D-04  0.408439D-02 -0.608479D-02
     14 -0.625312D-03 -0.531535D-02 -0.153174D-02 -0.645720D-02 -0.137993D-02
     15 -0.122349D-03 -0.206814D-03  0.742003D-02  0.202716D-02  0.157497D-02
     16 -0.232180D-01  0.149224D-02 -0.125864D-01 -0.203146D-01 -0.624993D-02
     17  0.139757D-01 -0.272506D-01  0.226461D-01  0.873712D-03 -0.212156D-01
     18 -0.561870D-03 -0.101193D-01 -0.292447D-01 -0.117132D-01 -0.422385D-02
     19 -0.141915D-01  0.138350D-01  0.672983D-02 -0.217983D-02 -0.402301D-02
     20 -0.176041D-01 -0.216498D-01  0.766665D-02 -0.436647D-02  0.512199D-02
     21  0.837311D-02 -0.786438D-02 -0.938479D-02  0.560152D-02  0.162404D-02
                6             7             8             9            10 
      6  0.674617D-01
      7  0.663533D-02  0.109980D+00
      8 -0.437199D-02 -0.207121D-01  0.982390D-01
      9 -0.564710D-02 -0.147216D-01  0.589926D-02  0.657333D-01
     10 -0.251709D-01 -0.380453D-01  0.665376D-02 -0.246067D-01  0.134025D+00
     11 -0.174461D-01  0.131231D-01 -0.273653D-01  0.174148D-01  0.156249D-02
     12 -0.321951D-01  0.423071D-02 -0.851858D-02 -0.316323D-01  0.291068D-01
     13  0.208743D-02 -0.353573D-01 -0.203912D-01  0.713671D-02 -0.128534D-01
     14  0.175024D-02  0.171235D-01 -0.275361D-01 -0.776681D-02 -0.735527D-02
     15  0.750693D-02  0.814425D-02  0.361892D-02 -0.100712D-01  0.563339D-02
     16  0.190967D-01 -0.209025D-01  0.767490D-02  0.191601D-01 -0.221928D-01
     17  0.170042D-01 -0.301914D-02 -0.223414D-01 -0.180177D-01  0.940390D-04
     18 -0.341796D-01 -0.103066D-01  0.598644D-02 -0.318092D-01 -0.977063D-02
     19  0.516660D-02 -0.350855D-02  0.383839D-02  0.582133D-02 -0.105304D-01
     20  0.154694D-02  0.505883D-02  0.587707D-02 -0.158530D-02 -0.104661D-02
     21  0.554165D-02  0.452844D-02 -0.467548D-03  0.476243D-02  0.190018D-01
               11            12            13            14            15 
     11  0.126118D+00
     12 -0.361354D-02  0.177611D+00
     13  0.678534D-02 -0.884084D-02  0.681084D-01
     14 -0.236390D-01 -0.923392D-02  0.132085D-01  0.962003D-01
     15  0.235229D-01 -0.279350D-01 -0.834213D-02  0.540901D-03  0.526555D-01
     16 -0.594256D-03 -0.107240D-01 -0.133945D-01 -0.947495D-03 -0.111479D-01
     17 -0.190990D-01  0.175899D-02 -0.956458D-02 -0.168487D-01 -0.183777D-01
     18  0.495641D-04 -0.400466D-01 -0.230377D-02  0.991134D-02 -0.195458D-01
     19 -0.378024D-03 -0.121736D-01 -0.171684D-01 -0.149468D-01  0.380758D-02
     20 -0.978349D-02  0.410840D-03  0.152997D-01 -0.214812D-01 -0.106731D-01
     21  0.115358D-02 -0.227563D-01  0.103013D-01  0.632998D-02 -0.100304D-01
               16            17            18            19            20 
     16  0.144419D+00
     17 -0.109480D-02  0.130443D+00
     18  0.227220D-01 -0.202011D-02  0.183208D+00
     19 -0.443963D-01 -0.126491D-02  0.119341D-01  0.919750D-01
     20 -0.280652D-03 -0.236877D-01  0.415870D-03  0.293934D-02  0.656031D-01
     21 -0.265204D-01 -0.299382D-02 -0.283823D-01 -0.212858D-01  0.221815D-02
               21 
     21  0.602497D-01
 Leave Link  716 at Tue Nov 28 23:38:55 2023, MaxMem=  1879048192 cpu:               0.4 elap:               0.0
 (Enter /home/sekinelabo/g16/l103.exe)

 GradGradGradGradGradGradGradGradGradGradGradGradGradGradGradGradGradGrad
 Berny optimization.
 Search for a local minimum.
 Step number   1 out of a maximum of    2
 All quantities printed in internal units (Hartrees-Bohrs-Radians)
 Second derivative matrix not updated -- first step.
 ITU=  0
     Eigenvalues ---    0.05915   0.06691   0.06989   0.09401   0.09520
     Eigenvalues ---    0.10335   0.11240   0.14727   0.15320   0.16769
     Eigenvalues ---    0.17428   0.17653   0.18081   0.21038   0.24555
 Angle between quadratic step and forces=  20.20 degrees.
 Linear search not attempted -- first point.
 B after Tr=    -0.000000   -0.000000    0.000000
         Rot=    1.000000    0.000000   -0.000000   -0.000000 Ang=   0.00 deg.
 Variable       Old X    -DE/DX   Delta X   Delta X   Delta X     New X
                                 (Linear)    (Quad)   (Total)
    X1       27.41841  -0.00132   0.00000  -0.01424  -0.01424  27.40417
    Y1       34.70690  -0.00195   0.00000  -0.00664  -0.00664  34.70026
    Z1       30.01849  -0.00090   0.00000  -0.00031  -0.00031  30.01818
    X2       32.87349   0.00479   0.00000   0.03877   0.03877  32.91225
    Y2       32.40124   0.00253   0.00000   0.02325   0.02325  32.42449
    Z2       27.07694   0.00007   0.00000  -0.00657  -0.00657  27.07037
    X3       32.69585   0.00698   0.00000   0.05011   0.05011  32.74596
    Y3       25.51811  -0.00121   0.00000  -0.00997  -0.00997  25.50813
    Z3       27.44563   0.00019   0.00000  -0.00952  -0.00952  27.43611
    X4       28.43074  -0.00918   0.00000  -0.04222  -0.04222  28.38852
    Y4       29.02052   0.00056   0.00000   0.00275   0.00275  29.02328
    Z4       25.66683  -0.00348   0.00000  -0.01550  -0.01550  25.65133
    X5       27.28387  -0.00286   0.00000  -0.02808  -0.02808  27.25579
    Y5       23.26763   0.00183   0.00000   0.00152   0.00152  23.26915
    Z5       28.95665   0.00142   0.00000   0.01620   0.01620  28.97286
    X6       30.08368   0.00385   0.00000   0.02094   0.02094  30.10462
    Y6       29.33932  -0.00184   0.00000  -0.01059  -0.01059  29.32873
    Z6       31.87514   0.00420   0.00000   0.01951   0.01951  31.89466
    X7       24.21854  -0.00226   0.00000  -0.02527  -0.02527  24.19327
    Y7       28.75086   0.00008   0.00000  -0.00032  -0.00032  28.75054
    Z7       31.96510  -0.00150   0.00000  -0.00382  -0.00382  31.96128
         Item               Value     Threshold  Converged?
 Maximum Force            0.009176     0.000450     NO 
 RMS     Force            0.003376     0.000300     NO 
 Maximum Displacement     0.050106     0.001800     NO 
 RMS     Displacement     0.021495     0.001200     NO 
 Predicted change in Energy=-7.151003D-04
 GradGradGradGradGradGradGradGradGradGradGradGradGradGradGradGradGradGrad

 Leave Link  103 at Tue Nov 28 23:38:55 2023, MaxMem=  1879048192 cpu:               0.2 elap:               0.0
 (Enter /home/sekinelabo/g16/l9999.exe)
 1\1\GINC-SEKINELABO-XA7R-R37\Force\UB3LYP\6-311+G(d)\Na7(2)\SEKINELABO
 \28-Nov-2023\0\\#P B3LYP/6-311+g(d) force\\DPGEN\\0,2\Na,14.5092,18.36
 61,15.8851\Na,17.3959,17.146,14.3285\Na,17.3019,13.5036,14.5236\Na,15.
 0449,15.357,13.5823\Na,14.438,12.3127,15.3232\Na,15.9196,15.5257,16.86
 76\Na,12.8159,15.2143,16.9152\\Version=ES64L-G16RevB.01\State=2-A\HF=-
 1136.1340787\S2=0.757965\S2-1=0.\S2A=0.750041\RMSD=4.590e-09\RMSF=3.37
 6e-03\Dipole=-0.0770199,0.0726967,0.0159373\Quadrupole=0.1964412,7.473
 2026,-7.6696438,0.4039429,-4.0702593,0.6894107\PG=C01 [X(Na7)]\\@


 Just remember, when you're over the hill, you begin to pick up speed.
 -- Charles Schulz
 Job cpu time:       0 days  0 hours  3 minutes 59.8 seconds.
 Elapsed time:       0 days  0 hours  0 minutes 20.2 seconds.
 File lengths (MBytes):  RWF=     32 Int=      0 D2E=      0 Chk=      4 Scr=      1
 Normal termination of Gaussian 16 at Tue Nov 28 23:38:55 2023.
