 Set GAUSS_MDEF to "14GB".
 Entering Gaussian System, Link 0=g16
 Initial command:
 /home/sekinelabo/g16/l1.exe "/home/sekinelabo/g16temp/Gau-605463.inp" -scrdir="/home/sekinelabo/g16temp/"
 Entering Link 1 = /home/sekinelabo/g16/l1.exe PID=    605465.
  
 Copyright (c) 1988-2017, Gaussian, Inc.  All Rights Reserved.
  
 This is part of the Gaussian(R) 16 program.  It is based on
 the Gaussian(R) 09 system (copyright 2009, Gaussian, Inc.),
 the Gaussian(R) 03 system (copyright 2003, Gaussian, Inc.),
 the Gaussian(R) 98 system (copyright 1998, Gaussian, Inc.),
 the Gaussian(R) 94 system (copyright 1995, Gaussian, Inc.),
 the Gaussian 92(TM) system (copyright 1992, Gaussian, Inc.),
 the Gaussian 90(TM) system (copyright 1990, Gaussian, Inc.),
 the Gaussian 88(TM) system (copyright 1988, Gaussian, Inc.),
 the Gaussian 86(TM) system (copyright 1986, Carnegie Mellon
 University), and the Gaussian 82(TM) system (copyright 1983,
 Carnegie Mellon University). Gaussian is a federally registered
 trademark of Gaussian, Inc.
  
 This software contains proprietary and confidential information,
 including trade secrets, belonging to Gaussian, Inc.
  
 This software is provided under written license and may be
 used, copied, transmitted, or stored only in accord with that
 written license.
  
 The following legend is applicable only to US Government
 contracts under FAR:
  
                    RESTRICTED RIGHTS LEGEND
  
 Use, reproduction and disclosure by the US Government is
 subject to restrictions as set forth in subparagraphs (a)
 and (c) of the Commercial Computer Software - Restricted
 Rights clause in FAR 52.227-19.
  
 Gaussian, Inc.
 340 Quinnipiac St., Bldg. 40, Wallingford CT 06492
  
  
 ---------------------------------------------------------------
 Warning -- This program may not be used in any manner that
 competes with the business of Gaussian, Inc. or will provide
 assistance to any competitor of Gaussian, Inc.  The licensee
 of this program is prohibited from giving any competitor of
 Gaussian, Inc. access to this program.  By using this program,
 the user acknowledges that Gaussian, Inc. is engaged in the
 business of creating and licensing software in the field of
 computational chemistry and represents and warrants to the
 licensee that it is not a competitor of Gaussian, Inc. and that
 it will not use this program in any manner prohibited above.
 ---------------------------------------------------------------
  

 Cite this work as:
 Gaussian 16, Revision B.01,
 M. J. Frisch, G. W. Trucks, H. B. Schlegel, G. E. Scuseria, 
 M. A. Robb, J. R. Cheeseman, G. Scalmani, V. Barone, 
 G. A. Petersson, H. Nakatsuji, X. Li, M. Caricato, A. V. Marenich, 
 J. Bloino, B. G. Janesko, R. Gomperts, B. Mennucci, H. P. Hratchian, 
 J. V. Ortiz, A. F. Izmaylov, J. L. Sonnenberg, D. Williams-Young, 
 F. Ding, F. Lipparini, F. Egidi, J. Goings, B. Peng, A. Petrone, 
 T. Henderson, D. Ranasinghe, V. G. Zakrzewski, J. Gao, N. Rega, 
 G. Zheng, W. Liang, M. Hada, M. Ehara, K. Toyota, R. Fukuda, 
 J. Hasegawa, M. Ishida, T. Nakajima, Y. Honda, O. Kitao, H. Nakai, 
 T. Vreven, K. Throssell, J. A. Montgomery, Jr., J. E. Peralta, 
 F. Ogliaro, M. J. Bearpark, J. J. Heyd, E. N. Brothers, K. N. Kudin, 
 V. N. Staroverov, T. A. Keith, R. Kobayashi, J. Normand, 
 K. Raghavachari, A. P. Rendell, J. C. Burant, S. S. Iyengar, 
 J. Tomasi, M. Cossi, J. M. Millam, M. Klene, C. Adamo, R. Cammi, 
 J. W. Ochterski, R. L. Martin, K. Morokuma, O. Farkas, 
 J. B. Foresman, and D. J. Fox, Gaussian, Inc., Wallingford CT, 2016.
 
 ******************************************
 Gaussian 16:  ES64L-G16RevB.01 20-Dec-2017
                 7-Dec-2023 
 ******************************************
 %nproc=15
 Will use up to   15 processors via shared memory.
 -------------------------
 #P B3LYP/6-311+g(d) force
 -------------------------
 1/10=7,30=1,38=1/1,3;
 2/12=2,17=6,18=5,40=1/2;
 3/5=4,6=6,7=11,11=2,25=1,30=1,71=1,74=-5/1,2,3;
 4//1;
 5/5=2,38=5/2;
 6/7=2,8=2,9=2,10=2,28=1/1;
 7/29=1/1,2,3,16;
 1/10=7,30=1/3;
 99//99;
 Leave Link    1 at Thu Dec  7 03:47:11 2023, MaxMem=           0 cpu:               0.3 elap:               0.0
 (Enter /home/sekinelabo/g16/l101.exe)
 -----
 DPGEN
 -----
 Symbolic Z-matrix:
 Charge =  0 Multiplicity = 2
 Na                    14.4673   15.0339   16.8239 
 Na                    14.9711   15.2345   13.3043 
 Na                    15.1435   12.8664   11.4055 
 Na                    16.4488   12.9569   15.107 
 Na                    12.361    14.4913   11.5721 
 Na                    13.1415   12.1295   14.8069 
 Na                    11.71     15.5307   15.2235 
 
 ITRead=  0  0  0  0  0  0  0
 MicOpt= -1 -1 -1 -1 -1 -1 -1
 NAtoms=      7 NQM=        7 NQMF=       0 NMMI=      0 NMMIF=      0
                NMic=       0 NMicF=      0.
                    Isotopes and Nuclear Properties:
 (Nuclear quadrupole moments (NQMom) in fm**2, nuclear magnetic moments (NMagM)
  in nuclear magnetons)

  Atom         1           2           3           4           5           6           7
 IAtWgt=          23          23          23          23          23          23          23
 AtmWgt=  22.9897697  22.9897697  22.9897697  22.9897697  22.9897697  22.9897697  22.9897697
 NucSpn=           3           3           3           3           3           3           3
 AtZEff=  -0.0000000  -0.0000000  -0.0000000  -0.0000000  -0.0000000  -0.0000000  -0.0000000
 NQMom=   10.4000000  10.4000000  10.4000000  10.4000000  10.4000000  10.4000000  10.4000000
 NMagM=    2.2175200   2.2175200   2.2175200   2.2175200   2.2175200   2.2175200   2.2175200
 AtZNuc=  11.0000000  11.0000000  11.0000000  11.0000000  11.0000000  11.0000000  11.0000000
 Leave Link  101 at Thu Dec  7 03:47:11 2023, MaxMem=  1879048192 cpu:               2.4 elap:               0.2
 (Enter /home/sekinelabo/g16/l103.exe)

 GradGradGradGradGradGradGradGradGradGradGradGradGradGradGradGradGradGrad
 Berny optimization.
 Initialization pass.
 Trust Radius=3.00D-01 FncErr=1.00D-07 GrdErr=1.00D-07 EigMax=2.50D+02 EigMin=1.00D-04
 Number of steps in this run=      2 maximum allowed number of steps=      2.
 GradGradGradGradGradGradGradGradGradGradGradGradGradGradGradGradGradGrad

 Leave Link  103 at Thu Dec  7 03:47:11 2023, MaxMem=  1879048192 cpu:               0.2 elap:               0.0
 (Enter /home/sekinelabo/g16/l202.exe)
                          Input orientation:                          
 ---------------------------------------------------------------------
 Center     Atomic      Atomic             Coordinates (Angstroms)
 Number     Number       Type             X           Y           Z
 ---------------------------------------------------------------------
      1         11           0       14.467300   15.033900   16.823900
      2         11           0       14.971100   15.234500   13.304300
      3         11           0       15.143500   12.866400   11.405500
      4         11           0       16.448800   12.956900   15.107000
      5         11           0       12.361000   14.491300   11.572100
      6         11           0       13.141500   12.129500   14.806900
      7         11           0       11.710000   15.530700   15.223500
 ---------------------------------------------------------------------
                    Distance matrix (angstroms):
                    1          2          3          4          5
     1  Na   0.000000
     2  Na   3.561129   0.000000
     3  Na   5.874892   3.040240   0.000000
     4  Na   3.344849   3.258955   3.925952   0.000000
     5  Na   5.684392   3.219547   3.226509   5.617830   0.000000
     6  Na   3.776450   3.904647   4.015040   3.422409   4.080589
     7  Na   3.226576   3.795502   5.784854   5.393908   3.851866
                    6          7
     6  Na   0.000000
     7  Na   3.713611   0.000000
 Stoichiometry    Na7(2)
 Framework group  C1[X(Na7)]
 Deg. of freedom    15
 Full point group                 C1      NOp   1
 Largest Abelian subgroup         C1      NOp   1
 Largest concise Abelian subgroup C1      NOp   1
                         Standard orientation:                         
 ---------------------------------------------------------------------
 Center     Atomic      Atomic             Coordinates (Angstroms)
 Number     Number       Type             X           Y           Z
 ---------------------------------------------------------------------
      1         11           0        2.926832   -0.283923   -0.563792
      2         11           0       -0.476559   -0.192712   -1.607944
      3         11           0       -2.851085   -1.174008    0.017400
      4         11           0        0.742578   -2.754580   -0.004409
      5         11           0       -2.255353    1.996189   -0.055498
      6         11           0        0.361851   -0.169240    2.205557
      7         11           0        1.551737    2.578274    0.008685
 ---------------------------------------------------------------------
 Rotational constants (GHZ):           0.7989098           0.6687731           0.4902092
 Leave Link  202 at Thu Dec  7 03:47:11 2023, MaxMem=  1879048192 cpu:               0.0 elap:               0.0
 (Enter /home/sekinelabo/g16/l301.exe)
 Standard basis: 6-311+G(d) (5D, 7F)
 Ernie: Thresh=  0.10000D-02 Tol=  0.10000D-05 Strict=F.
 There are   217 symmetry adapted cartesian basis functions of A   symmetry.
 There are   210 symmetry adapted basis functions of A   symmetry.
   210 basis functions,   350 primitive gaussians,   217 cartesian basis functions
    39 alpha electrons       38 beta electrons
       nuclear repulsion energy       344.6571685360 Hartrees.
 IExCor=  402 DFT=T Ex+Corr=B3LYP ExCW=0 ScaHFX=  0.200000
 ScaDFX=  0.800000  0.720000  1.000000  0.810000 ScalE2=  1.000000  1.000000
 IRadAn=      5 IRanWt=     -1 IRanGd=            0 ICorTp=0 IEmpDi=  4
 NAtoms=    7 NActive=    7 NUniq=    7 SFac= 1.00D+00 NAtFMM=   60 NAOKFM=F Big=F
 Integral buffers will be    131072 words long.
 Raffenetti 2 integral format.
 Two-electron integral symmetry is turned on.
 Leave Link  301 at Thu Dec  7 03:47:11 2023, MaxMem=  1879048192 cpu:               0.5 elap:               0.0
 (Enter /home/sekinelabo/g16/l302.exe)
 NPDir=0 NMtPBC=     1 NCelOv=     1 NCel=       1 NClECP=     1 NCelD=      1
         NCelK=      1 NCelE2=     1 NClLst=     1 CellRange=     0.0.
 One-electron integrals computed using PRISM.
 One-electron integral symmetry used in STVInt
 NBasis=   210 RedAO= T EigKep=  3.43D-06  NBF=   210
 NBsUse=   210 1.00D-06 EigRej= -1.00D+00 NBFU=   210
 Precomputing XC quadrature grid using
 IXCGrd= 4 IRadAn=           5 IRanWt=          -1 IRanGd=           0 AccXCQ= 0.00D+00.
 Generated NRdTot=       0 NPtTot=           0 NUsed=           0 NTot=          32
 NSgBfM=   211   211   211   211   211 MxSgAt=     7 MxSgA2=     7.
 Leave Link  302 at Thu Dec  7 03:47:11 2023, MaxMem=  1879048192 cpu:               2.0 elap:               0.1
 (Enter /home/sekinelabo/g16/l303.exe)
 DipDrv:  MaxL=1.
 Leave Link  303 at Thu Dec  7 03:47:11 2023, MaxMem=  1879048192 cpu:               0.5 elap:               0.0
 (Enter /home/sekinelabo/g16/l401.exe)
 ExpMin= 7.60D-03 ExpMax= 3.62D+04 ExpMxC= 1.21D+03 IAcc=3 IRadAn=         5 AccDes= 0.00D+00
 Harris functional with IExCor=  402 and IRadAn=       5 diagonalized for initial guess.
 HarFok:  IExCor=  402 AccDes= 0.00D+00 IRadAn=         5 IDoV= 1 UseB2=F ITyADJ=14
 ICtDFT=  3500011 ScaDFX=  1.000000  1.000000  1.000000  1.000000
 FoFCou: FMM=F IPFlag=           0 FMFlag=      100000 FMFlg1=           0
         NFxFlg=           0 DoJE=T BraDBF=F KetDBF=T FulRan=T
         wScrn=  0.000000 ICntrl=       500 IOpCl=  0 I1Cent=   200000004 NGrid=           0
         NMat0=    1 NMatS0=      1 NMatT0=    0 NMatD0=    1 NMtDS0=    0 NMtDT0=    0
 Petite list used in FoFCou.
 Harris En= -1135.90488398206    
 JPrj=0 DoOrth=F DoCkMO=F.
 Initial guess <Sx>= 0.0000 <Sy>= 0.0000 <Sz>= 0.5000 <S**2>= 0.7500 S= 0.5000
 Leave Link  401 at Thu Dec  7 03:47:11 2023, MaxMem=  1879048192 cpu:               4.3 elap:               0.3
 (Enter /home/sekinelabo/g16/l502.exe)
 Keep R1 and R2 ints in memory in canonical form, NReq=506573321.
 FoFCou: FMM=F IPFlag=           0 FMFlag=           0 FMFlg1=           0
         NFxFlg=           0 DoJE=F BraDBF=F KetDBF=F FulRan=T
         wScrn=  0.000000 ICntrl=       600 IOpCl=  0 I1Cent=           0 NGrid=           0
         NMat0=    1 NMatS0=  22155 NMatT0=    0 NMatD0=    1 NMtDS0=    0 NMtDT0=    0
 Symmetry not used in FoFCou.
 Two-electron integral symmetry not used.
 UHF open shell SCF:
 Using DIIS extrapolation, IDIIS=  1040.
 NGot=  1879048192 LenX=  1388082579 LenY=  1388035049
 Requested convergence on RMS density matrix=1.00D-08 within 128 cycles.
 Requested convergence on MAX density matrix=1.00D-06.
 Requested convergence on             energy=1.00D-06.
 No special actions if energy rises.

 Cycle   1  Pass 1  IDiag  1:
 E= -1136.09855372921    
 DIIS: error= 1.43D-02 at cycle   1 NSaved=   1.
 NSaved= 1 IEnMin= 1 EnMin= -1136.09855372921     IErMin= 1 ErrMin= 1.43D-02
 ErrMax= 1.43D-02  0.00D+00 EMaxC= 1.00D-01 BMatC= 1.93D-01 BMatP= 1.93D-01
 IDIUse=3 WtCom= 8.57D-01 WtEn= 1.43D-01
 Coeff-Com:  0.100D+01
 Coeff-En:   0.100D+01
 Coeff:      0.100D+01
 Gap=     0.045 Goal=   None    Shift=    0.000
 Gap=     0.049 Goal=   None    Shift=    0.000
 GapD=    0.045 DampG=0.250 DampE=0.500 DampFc=0.2500 IDamp=-1.
 Damping current iteration by 2.50D-01
 RMSDP=2.86D-02 MaxDP=1.87D+00              OVMax= 2.33D-01

 Cycle   2  Pass 1  IDiag  1:
 E= -1136.11144588358     Delta-E=       -0.012892154365 Rises=F Damp=T
 DIIS: error= 1.00D-02 at cycle   2 NSaved=   2.
 NSaved= 2 IEnMin= 2 EnMin= -1136.11144588358     IErMin= 2 ErrMin= 1.00D-02
 ErrMax= 1.00D-02  0.00D+00 EMaxC= 1.00D-01 BMatC= 7.36D-02 BMatP= 1.93D-01
 IDIUse=3 WtCom= 9.00D-01 WtEn= 1.00D-01
 Coeff-Com: -0.128D+01 0.228D+01
 Coeff-En:   0.000D+00 0.100D+01
 Coeff:     -0.115D+01 0.215D+01
 Gap=     0.056 Goal=   None    Shift=    0.000
 Gap=     0.050 Goal=   None    Shift=    0.000
 RMSDP=1.62D-02 MaxDP=1.13D+00 DE=-1.29D-02 OVMax= 1.45D-01

 Cycle   3  Pass 1  IDiag  1:
 E= -1136.13403458422     Delta-E=       -0.022588700643 Rises=F Damp=F
 DIIS: error= 2.31D-03 at cycle   3 NSaved=   3.
 NSaved= 3 IEnMin= 3 EnMin= -1136.13403458422     IErMin= 3 ErrMin= 2.31D-03
 ErrMax= 2.31D-03  0.00D+00 EMaxC= 1.00D-01 BMatC= 1.96D-03 BMatP= 7.36D-02
 IDIUse=3 WtCom= 9.77D-01 WtEn= 2.31D-02
 Coeff-Com: -0.117D+00 0.229D+00 0.888D+00
 Coeff-En:   0.000D+00 0.000D+00 0.100D+01
 Coeff:     -0.114D+00 0.224D+00 0.891D+00
 Gap=     0.053 Goal=   None    Shift=    0.000
 Gap=     0.050 Goal=   None    Shift=    0.000
 RMSDP=5.55D-03 MaxDP=6.56D-01 DE=-2.26D-02 OVMax= 6.89D-02

 Cycle   4  Pass 1  IDiag  1:
 E= -1136.13309356584     Delta-E=        0.000941018385 Rises=F Damp=F
 DIIS: error= 2.40D-03 at cycle   4 NSaved=   4.
 NSaved= 4 IEnMin= 3 EnMin= -1136.13403458422     IErMin= 3 ErrMin= 2.31D-03
 ErrMax= 2.40D-03  0.00D+00 EMaxC= 1.00D-01 BMatC= 2.56D-03 BMatP= 1.96D-03
 IDIUse=3 WtCom= 1.69D-01 WtEn= 8.31D-01
 Coeff-Com:  0.237D-01-0.306D-01 0.538D+00 0.468D+00
 Coeff-En:   0.000D+00 0.000D+00 0.603D+00 0.397D+00
 Coeff:      0.401D-02-0.518D-02 0.592D+00 0.409D+00
 Gap=     0.054 Goal=   None    Shift=    0.000
 Gap=     0.050 Goal=   None    Shift=    0.000
 RMSDP=2.50D-03 MaxDP=3.45D-01 DE= 9.41D-04 OVMax= 4.04D-02

 Cycle   5  Pass 1  IDiag  1:
 E= -1136.13546442804     Delta-E=       -0.002370862206 Rises=F Damp=F
 DIIS: error= 4.68D-04 at cycle   5 NSaved=   5.
 NSaved= 5 IEnMin= 5 EnMin= -1136.13546442804     IErMin= 5 ErrMin= 4.68D-04
 ErrMax= 4.68D-04  0.00D+00 EMaxC= 1.00D-01 BMatC= 8.67D-05 BMatP= 1.96D-03
 IDIUse=3 WtCom= 9.95D-01 WtEn= 4.68D-03
 Coeff-Com:  0.484D-02-0.696D-02 0.312D+00 0.224D+00 0.466D+00
 Coeff-En:   0.000D+00 0.000D+00 0.000D+00 0.000D+00 0.100D+01
 Coeff:      0.482D-02-0.693D-02 0.310D+00 0.223D+00 0.468D+00
 Gap=     0.054 Goal=   None    Shift=    0.000
 Gap=     0.050 Goal=   None    Shift=    0.000
 RMSDP=3.62D-04 MaxDP=3.03D-02 DE=-2.37D-03 OVMax= 7.15D-03

 Cycle   6  Pass 1  IDiag  1:
 E= -1136.13551967795     Delta-E=       -0.000055249908 Rises=F Damp=F
 DIIS: error= 7.84D-05 at cycle   6 NSaved=   6.
 NSaved= 6 IEnMin= 6 EnMin= -1136.13551967795     IErMin= 6 ErrMin= 7.84D-05
 ErrMax= 7.84D-05  0.00D+00 EMaxC= 1.00D-01 BMatC= 2.54D-06 BMatP= 8.67D-05
 IDIUse=1 WtCom= 1.00D+00 WtEn= 0.00D+00
 Coeff-Com: -0.395D-02 0.496D-02 0.272D-01 0.989D-02 0.152D+00 0.810D+00
 Coeff:     -0.395D-02 0.496D-02 0.272D-01 0.989D-02 0.152D+00 0.810D+00
 Gap=     0.055 Goal=   None    Shift=    0.000
 Gap=     0.050 Goal=   None    Shift=    0.000
 RMSDP=2.16D-04 MaxDP=2.63D-02 DE=-5.52D-05 OVMax= 2.89D-03

 Cycle   7  Pass 1  IDiag  1:
 E= -1136.13552134975     Delta-E=       -0.000001671800 Rises=F Damp=F
 DIIS: error= 7.60D-05 at cycle   7 NSaved=   7.
 NSaved= 7 IEnMin= 7 EnMin= -1136.13552134975     IErMin= 7 ErrMin= 7.60D-05
 ErrMax= 7.60D-05  0.00D+00 EMaxC= 1.00D-01 BMatC= 1.74D-06 BMatP= 2.54D-06
 IDIUse=1 WtCom= 1.00D+00 WtEn= 0.00D+00
 Coeff-Com: -0.353D-02 0.453D-02-0.332D-01-0.299D-01 0.264D-01 0.544D+00
 Coeff-Com:  0.492D+00
 Coeff:     -0.353D-02 0.453D-02-0.332D-01-0.299D-01 0.264D-01 0.544D+00
 Coeff:      0.492D+00
 Gap=     0.055 Goal=   None    Shift=    0.000
 Gap=     0.050 Goal=   None    Shift=    0.000
 RMSDP=1.05D-04 MaxDP=1.37D-02 DE=-1.67D-06 OVMax= 1.50D-03

 Cycle   8  Pass 1  IDiag  1:
 E= -1136.13552347565     Delta-E=       -0.000002125897 Rises=F Damp=F
 DIIS: error= 1.73D-05 at cycle   8 NSaved=   8.
 NSaved= 8 IEnMin= 8 EnMin= -1136.13552347565     IErMin= 8 ErrMin= 1.73D-05
 ErrMax= 1.73D-05  0.00D+00 EMaxC= 1.00D-01 BMatC= 7.32D-08 BMatP= 1.74D-06
 IDIUse=1 WtCom= 1.00D+00 WtEn= 0.00D+00
 Coeff-Com: -0.689D-03 0.881D-03-0.159D-01-0.122D-01-0.718D-02 0.958D-01
 Coeff-Com:  0.166D+00 0.773D+00
 Coeff:     -0.689D-03 0.881D-03-0.159D-01-0.122D-01-0.718D-02 0.958D-01
 Coeff:      0.166D+00 0.773D+00
 Gap=     0.055 Goal=   None    Shift=    0.000
 Gap=     0.050 Goal=   None    Shift=    0.000
 RMSDP=4.43D-05 MaxDP=4.68D-03 DE=-2.13D-06 OVMax= 5.73D-04

 Cycle   9  Pass 1  IDiag  1:
 E= -1136.13552353520     Delta-E=       -0.000000059549 Rises=F Damp=F
 DIIS: error= 1.83D-05 at cycle   9 NSaved=   9.
 NSaved= 9 IEnMin= 9 EnMin= -1136.13552353520     IErMin= 8 ErrMin= 1.73D-05
 ErrMax= 1.83D-05  0.00D+00 EMaxC= 1.00D-01 BMatC= 7.13D-08 BMatP= 7.32D-08
 IDIUse=1 WtCom= 1.00D+00 WtEn= 0.00D+00
 Coeff-Com:  0.486D-03-0.630D-03-0.372D-02-0.164D-02-0.131D-01-0.720D-01
 Coeff-Com: -0.746D-02 0.586D+00 0.513D+00
 Coeff:      0.486D-03-0.630D-03-0.372D-02-0.164D-02-0.131D-01-0.720D-01
 Coeff:     -0.746D-02 0.586D+00 0.513D+00
 Gap=     0.055 Goal=   None    Shift=    0.000
 Gap=     0.050 Goal=   None    Shift=    0.000
 RMSDP=1.58D-05 MaxDP=1.60D-03 DE=-5.95D-08 OVMax= 3.53D-04

 Cycle  10  Pass 1  IDiag  1:
 E= -1136.13552364138     Delta-E=       -0.000000106184 Rises=F Damp=F
 DIIS: error= 3.78D-06 at cycle  10 NSaved=  10.
 NSaved=10 IEnMin=10 EnMin= -1136.13552364138     IErMin=10 ErrMin= 3.78D-06
 ErrMax= 3.78D-06  0.00D+00 EMaxC= 1.00D-01 BMatC= 3.01D-09 BMatP= 7.13D-08
 IDIUse=1 WtCom= 1.00D+00 WtEn= 0.00D+00
 Coeff-Com:  0.302D-03-0.390D-03 0.188D-02 0.158D-02-0.231D-02-0.267D-01
 Coeff-Com: -0.261D-01-0.267D-01 0.112D+00 0.966D+00
 Coeff:      0.302D-03-0.390D-03 0.188D-02 0.158D-02-0.231D-02-0.267D-01
 Coeff:     -0.261D-01-0.267D-01 0.112D+00 0.966D+00
 Gap=     0.055 Goal=   None    Shift=    0.000
 Gap=     0.050 Goal=   None    Shift=    0.000
 RMSDP=1.22D-05 MaxDP=1.38D-03 DE=-1.06D-07 OVMax= 1.77D-04

 Cycle  11  Pass 1  IDiag  1:
 E= -1136.13552365292     Delta-E=       -0.000000011541 Rises=F Damp=F
 DIIS: error= 9.90D-07 at cycle  11 NSaved=  11.
 NSaved=11 IEnMin=11 EnMin= -1136.13552365292     IErMin=11 ErrMin= 9.90D-07
 ErrMax= 9.90D-07  0.00D+00 EMaxC= 1.00D-01 BMatC= 4.43D-10 BMatP= 3.01D-09
 IDIUse=1 WtCom= 1.00D+00 WtEn= 0.00D+00
 Coeff-Com: -0.114D-03 0.151D-03 0.690D-03 0.308D-03 0.215D-02 0.117D-01
 Coeff-Com:  0.331D-02-0.102D+00-0.974D-01-0.362D-01 0.122D+01
 Coeff:     -0.114D-03 0.151D-03 0.690D-03 0.308D-03 0.215D-02 0.117D-01
 Coeff:      0.331D-02-0.102D+00-0.974D-01-0.362D-01 0.122D+01
 Gap=     0.055 Goal=   None    Shift=    0.000
 Gap=     0.050 Goal=   None    Shift=    0.000
 RMSDP=7.60D-06 MaxDP=4.53D-04 DE=-1.15D-08 OVMax= 1.22D-04

 Cycle  12  Pass 1  IDiag  1:
 E= -1136.13552365615     Delta-E=       -0.000000003232 Rises=F Damp=F
 DIIS: error= 4.59D-07 at cycle  12 NSaved=  12.
 NSaved=12 IEnMin=12 EnMin= -1136.13552365615     IErMin=12 ErrMin= 4.59D-07
 ErrMax= 4.59D-07  0.00D+00 EMaxC= 1.00D-01 BMatC= 9.09D-11 BMatP= 4.43D-10
 IDIUse=1 WtCom= 1.00D+00 WtEn= 0.00D+00
 Coeff-Com: -0.834D-04 0.108D-03-0.144D-04-0.109D-03 0.122D-02 0.765D-02
 Coeff-Com:  0.366D-02-0.318D-01-0.456D-01-0.128D+00 0.289D+00 0.905D+00
 Coeff:     -0.834D-04 0.108D-03-0.144D-04-0.109D-03 0.122D-02 0.765D-02
 Coeff:      0.366D-02-0.318D-01-0.456D-01-0.128D+00 0.289D+00 0.905D+00
 Gap=     0.055 Goal=   None    Shift=    0.000
 Gap=     0.050 Goal=   None    Shift=    0.000
 RMSDP=3.09D-06 MaxDP=2.67D-04 DE=-3.23D-09 OVMax= 4.93D-05

 Cycle  13  Pass 1  IDiag  1:
 E= -1136.13552365666     Delta-E=       -0.000000000507 Rises=F Damp=F
 DIIS: error= 2.82D-07 at cycle  13 NSaved=  13.
 NSaved=13 IEnMin=13 EnMin= -1136.13552365666     IErMin=13 ErrMin= 2.82D-07
 ErrMax= 2.82D-07  0.00D+00 EMaxC= 1.00D-01 BMatC= 1.88D-11 BMatP= 9.09D-11
 IDIUse=1 WtCom= 1.00D+00 WtEn= 0.00D+00
 Coeff-Com:  0.389D-05-0.580D-05-0.142D-03-0.722D-04-0.168D-03-0.928D-03
 Coeff-Com:  0.305D-03 0.151D-01 0.810D-02-0.274D-01-0.174D+00 0.175D+00
 Coeff-Com:  0.100D+01
 Coeff:      0.389D-05-0.580D-05-0.142D-03-0.722D-04-0.168D-03-0.928D-03
 Coeff:      0.305D-03 0.151D-01 0.810D-02-0.274D-01-0.174D+00 0.175D+00
 Coeff:      0.100D+01
 Gap=     0.055 Goal=   None    Shift=    0.000
 Gap=     0.050 Goal=   None    Shift=    0.000
 RMSDP=1.43D-06 MaxDP=1.25D-04 DE=-5.07D-10 OVMax= 2.61D-05

 Cycle  14  Pass 1  IDiag  1:
 E= -1136.13552365676     Delta-E=       -0.000000000099 Rises=F Damp=F
 DIIS: error= 1.28D-07 at cycle  14 NSaved=  14.
 NSaved=14 IEnMin=14 EnMin= -1136.13552365676     IErMin=14 ErrMin= 1.28D-07
 ErrMax= 1.28D-07  0.00D+00 EMaxC= 1.00D-01 BMatC= 3.32D-12 BMatP= 1.88D-11
 IDIUse=1 WtCom= 1.00D+00 WtEn= 0.00D+00
 Coeff-Com:  0.167D-04-0.218D-04-0.470D-05 0.120D-04-0.215D-03-0.121D-02
 Coeff-Com: -0.689D-03 0.489D-02 0.908D-02 0.279D-01-0.546D-01-0.185D+00
 Coeff-Com: -0.649D-02 0.121D+01
 Coeff:      0.167D-04-0.218D-04-0.470D-05 0.120D-04-0.215D-03-0.121D-02
 Coeff:     -0.689D-03 0.489D-02 0.908D-02 0.279D-01-0.546D-01-0.185D+00
 Coeff:     -0.649D-02 0.121D+01
 Gap=     0.055 Goal=   None    Shift=    0.000
 Gap=     0.050 Goal=   None    Shift=    0.000
 RMSDP=6.17D-07 MaxDP=6.82D-05 DE=-9.87D-11 OVMax= 1.34D-05

 Cycle  15  Pass 1  IDiag  1:
 E= -1136.13552365678     Delta-E=       -0.000000000024 Rises=F Damp=F
 DIIS: error= 5.81D-08 at cycle  15 NSaved=  15.
 NSaved=15 IEnMin=15 EnMin= -1136.13552365678     IErMin=15 ErrMin= 5.81D-08
 ErrMax= 5.81D-08  0.00D+00 EMaxC= 1.00D-01 BMatC= 5.38D-13 BMatP= 3.32D-12
 IDIUse=1 WtCom= 1.00D+00 WtEn= 0.00D+00
 Coeff-Com: -0.539D-05 0.723D-05 0.214D-04 0.518D-05 0.770D-04 0.434D-03
 Coeff-Com:  0.137D-03-0.348D-02-0.370D-02-0.347D-02 0.442D-01 0.203D-01
 Coeff-Com: -0.190D+00-0.311D+00 0.145D+01
 Coeff:     -0.539D-05 0.723D-05 0.214D-04 0.518D-05 0.770D-04 0.434D-03
 Coeff:      0.137D-03-0.348D-02-0.370D-02-0.347D-02 0.442D-01 0.203D-01
 Coeff:     -0.190D+00-0.311D+00 0.145D+01
 Gap=     0.055 Goal=   None    Shift=    0.000
 Gap=     0.050 Goal=   None    Shift=    0.000
 RMSDP=2.69D-07 MaxDP=3.95D-05 DE=-2.41D-11 OVMax= 6.58D-06

 Cycle  16  Pass 1  IDiag  1:
 E= -1136.13552365678     Delta-E=        0.000000000000 Rises=F Damp=F
 DIIS: error= 1.73D-08 at cycle  16 NSaved=  16.
 NSaved=16 IEnMin=15 EnMin= -1136.13552365678     IErMin=16 ErrMin= 1.73D-08
 ErrMax= 1.73D-08  0.00D+00 EMaxC= 1.00D-01 BMatC= 7.57D-14 BMatP= 5.38D-13
 IDIUse=1 WtCom= 1.00D+00 WtEn= 0.00D+00
 Coeff-Com: -0.202D-05 0.261D-05 0.227D-05 0.662D-06 0.233D-04 0.142D-03
 Coeff-Com:  0.107D-03-0.618D-03-0.119D-02-0.307D-02 0.478D-02 0.274D-01
 Coeff-Com:  0.121D-01-0.157D+00-0.403D-01 0.116D+01
 Coeff:     -0.202D-05 0.261D-05 0.227D-05 0.662D-06 0.233D-04 0.142D-03
 Coeff:      0.107D-03-0.618D-03-0.119D-02-0.307D-02 0.478D-02 0.274D-01
 Coeff:      0.121D-01-0.157D+00-0.403D-01 0.116D+01
 Gap=     0.055 Goal=   None    Shift=    0.000
 Gap=     0.050 Goal=   None    Shift=    0.000
 RMSDP=6.58D-08 MaxDP=9.15D-06 DE= 4.55D-13 OVMax= 1.78D-06

 Cycle  17  Pass 1  IDiag  1:
 E= -1136.13552365680     Delta-E=       -0.000000000012 Rises=F Damp=F
 DIIS: error= 7.26D-09 at cycle  17 NSaved=  17.
 NSaved=17 IEnMin=17 EnMin= -1136.13552365680     IErMin=17 ErrMin= 7.26D-09
 ErrMax= 7.26D-09  0.00D+00 EMaxC= 1.00D-01 BMatC= 1.67D-14 BMatP= 7.57D-14
 IDIUse=1 WtCom= 1.00D+00 WtEn= 0.00D+00
 Coeff-Com:  0.621D-06-0.849D-06-0.432D-05-0.173D-05-0.102D-04-0.381D-04
 Coeff-Com: -0.223D-05 0.485D-03 0.502D-03-0.764D-04-0.595D-02-0.259D-02
 Coeff-Com:  0.330D-01 0.501D-01-0.287D+00 0.130D+00 0.108D+01
 Coeff:      0.621D-06-0.849D-06-0.432D-05-0.173D-05-0.102D-04-0.381D-04
 Coeff:     -0.223D-05 0.485D-03 0.502D-03-0.764D-04-0.595D-02-0.259D-02
 Coeff:      0.330D-01 0.501D-01-0.287D+00 0.130D+00 0.108D+01
 Gap=     0.055 Goal=   None    Shift=    0.000
 Gap=     0.050 Goal=   None    Shift=    0.000
 RMSDP=3.15D-08 MaxDP=3.71D-06 DE=-1.18D-11 OVMax= 8.25D-07

 Cycle  18  Pass 1  IDiag  1:
 E= -1136.13552365680     Delta-E=       -0.000000000004 Rises=F Damp=F
 DIIS: error= 2.42D-09 at cycle  18 NSaved=  18.
 NSaved=18 IEnMin=18 EnMin= -1136.13552365680     IErMin=18 ErrMin= 2.42D-09
 ErrMax= 2.42D-09  0.00D+00 EMaxC= 1.00D-01 BMatC= 3.34D-15 BMatP= 1.67D-14
 IDIUse=1 WtCom= 1.00D+00 WtEn= 0.00D+00
 Large coefficients: NSaved= 18 BigCof=    0.00 CofMax=   10.00 Det=-8.22D-15
 Inversion failed.  Reducing to 17 matrices.
 Large coefficients: NSaved= 17 BigCof=    0.00 CofMax=   10.00 Det=-8.70D-15
 Inversion failed.  Reducing to 16 matrices.
 Large coefficients: NSaved= 16 BigCof=    0.00 CofMax=   10.00 Det=-8.71D-15
 Inversion failed.  Reducing to 15 matrices.
 Coeff-Com:  0.167D-06 0.186D-05 0.278D-05-0.843D-05-0.595D-05 0.963D-05
 Coeff-Com: -0.106D-03 0.479D-03-0.164D-02-0.287D-02 0.571D-02 0.319D-01
 Coeff-Com: -0.232D+00 0.166D+00 0.103D+01
 Coeff:      0.167D-06 0.186D-05 0.278D-05-0.843D-05-0.595D-05 0.963D-05
 Coeff:     -0.106D-03 0.479D-03-0.164D-02-0.287D-02 0.571D-02 0.319D-01
 Coeff:     -0.232D+00 0.166D+00 0.103D+01
 Gap=     0.055 Goal=   None    Shift=    0.000
 Gap=     0.050 Goal=   None    Shift=    0.000
 RMSDP=1.42D-08 MaxDP=1.79D-06 DE=-4.09D-12 OVMax= 3.67D-07

 Cycle  19  Pass 1  IDiag  1:
 E= -1136.13552365681     Delta-E=       -0.000000000009 Rises=F Damp=F
 DIIS: error= 1.68D-09 at cycle  19 NSaved=  16.
 NSaved=16 IEnMin=16 EnMin= -1136.13552365681     IErMin=16 ErrMin= 1.68D-09
 ErrMax= 1.68D-09  0.00D+00 EMaxC= 1.00D-01 BMatC= 5.31D-16 BMatP= 3.34D-15
 IDIUse=1 WtCom= 1.00D+00 WtEn= 0.00D+00
 Large coefficients: NSaved= 16 BigCof=    0.00 CofMax=   10.00 Det=-1.42D-15
 Inversion failed.  Reducing to 15 matrices.
 Coeff-Com: -0.219D-06-0.661D-05-0.670D-05 0.135D-04 0.230D-04 0.199D-04
 Coeff-Com:  0.458D-03-0.750D-03-0.422D-02 0.698D-03 0.415D-01-0.888D-01
 Coeff-Com: -0.116D+00 0.210D+00 0.957D+00
 Coeff:     -0.219D-06-0.661D-05-0.670D-05 0.135D-04 0.230D-04 0.199D-04
 Coeff:      0.458D-03-0.750D-03-0.422D-02 0.698D-03 0.415D-01-0.888D-01
 Coeff:     -0.116D+00 0.210D+00 0.957D+00
 Gap=     0.055 Goal=   None    Shift=    0.000
 Gap=     0.050 Goal=   None    Shift=    0.000
 RMSDP=5.96D-09 MaxDP=4.02D-07 DE=-9.09D-12 OVMax= 1.60D-07

 SCF Done:  E(UB3LYP) =  -1136.13552366     A.U. after   19 cycles
            NFock= 19  Conv=0.60D-08     -V/T= 2.0028
 <Sx>= 0.0000 <Sy>= 0.0000 <Sz>= 0.5000 <S**2>= 0.7586 S= 0.5043
 <L.S>= 0.000000000000E+00
 KE= 1.132953082662D+03 PE=-3.418860548968D+03 EE= 8.051147741133D+02
 Annihilation of the first spin contaminant:
 S**2 before annihilation     0.7586,   after     0.7500
 Leave Link  502 at Thu Dec  7 03:47:27 2023, MaxMem=  1879048192 cpu:             177.1 elap:              15.6
 (Enter /home/sekinelabo/g16/l601.exe)
 Copying SCF densities to generalized density rwf, IOpCl= 1 IROHF=0.

 **********************************************************************

            Population analysis using the SCF Density.

 **********************************************************************

 Orbital symmetries:
 Alpha Orbitals:
       Occupied  (A) (A) (A) (A) (A) (A) (A) (A) (A) (A) (A) (A)
                 (A) (A) (A) (A) (A) (A) (A) (A) (A) (A) (A) (A)
                 (A) (A) (A) (A) (A) (A) (A) (A) (A) (A) (A) (A)
                 (A) (A) (A)
       Virtual   (A) (A) (A) (A) (A) (A) (A) (A) (A) (A) (A) (A)
                 (A) (A) (A) (A) (A) (A) (A) (A) (A) (A) (A) (A)
                 (A) (A) (A) (A) (A) (A) (A) (A) (A) (A) (A) (A)
                 (A) (A) (A) (A) (A) (A) (A) (A) (A) (A) (A) (A)
                 (A) (A) (A) (A) (A) (A) (A) (A) (A) (A) (A) (A)
                 (A) (A) (A) (A) (A) (A) (A) (A) (A) (A) (A) (A)
                 (A) (A) (A) (A) (A) (A) (A) (A) (A) (A) (A) (A)
                 (A) (A) (A) (A) (A) (A) (A) (A) (A) (A) (A) (A)
                 (A) (A) (A) (A) (A) (A) (A) (A) (A) (A) (A) (A)
                 (A) (A) (A) (A) (A) (A) (A) (A) (A) (A) (A) (A)
                 (A) (A) (A) (A) (A) (A) (A) (A) (A) (A) (A) (A)
                 (A) (A) (A) (A) (A) (A) (A) (A) (A) (A) (A) (A)
                 (A) (A) (A) (A) (A) (A) (A) (A) (A) (A) (A) (A)
                 (A) (A) (A) (A) (A) (A) (A) (A) (A) (A) (A) (A)
                 (A) (A) (A)
 Beta  Orbitals:
       Occupied  (A) (A) (A) (A) (A) (A) (A) (A) (A) (A) (A) (A)
                 (A) (A) (A) (A) (A) (A) (A) (A) (A) (A) (A) (A)
                 (A) (A) (A) (A) (A) (A) (A) (A) (A) (A) (A) (A)
                 (A) (A)
       Virtual   (A) (A) (A) (A) (A) (A) (A) (A) (A) (A) (A) (A)
                 (A) (A) (A) (A) (A) (A) (A) (A) (A) (A) (A) (A)
                 (A) (A) (A) (A) (A) (A) (A) (A) (A) (A) (A) (A)
                 (A) (A) (A) (A) (A) (A) (A) (A) (A) (A) (A) (A)
                 (A) (A) (A) (A) (A) (A) (A) (A) (A) (A) (A) (A)
                 (A) (A) (A) (A) (A) (A) (A) (A) (A) (A) (A) (A)
                 (A) (A) (A) (A) (A) (A) (A) (A) (A) (A) (A) (A)
                 (A) (A) (A) (A) (A) (A) (A) (A) (A) (A) (A) (A)
                 (A) (A) (A) (A) (A) (A) (A) (A) (A) (A) (A) (A)
                 (A) (A) (A) (A) (A) (A) (A) (A) (A) (A) (A) (A)
                 (A) (A) (A) (A) (A) (A) (A) (A) (A) (A) (A) (A)
                 (A) (A) (A) (A) (A) (A) (A) (A) (A) (A) (A) (A)
                 (A) (A) (A) (A) (A) (A) (A) (A) (A) (A) (A) (A)
                 (A) (A) (A) (A) (A) (A) (A) (A) (A) (A) (A) (A)
                 (A) (A) (A) (A)
 The electronic state is 2-A.
 Alpha  occ. eigenvalues --  -38.44085 -38.43862 -38.43855 -38.43767 -38.43364
 Alpha  occ. eigenvalues --  -38.43280 -38.43099  -2.19960  -2.19732  -2.19727
 Alpha  occ. eigenvalues --   -2.19623  -2.19367  -2.19112  -2.18979  -1.13696
 Alpha  occ. eigenvalues --   -1.13621  -1.13582  -1.13409  -1.13393  -1.13386
 Alpha  occ. eigenvalues --   -1.13376  -1.13355  -1.13346  -1.13326  -1.13281
 Alpha  occ. eigenvalues --   -1.13244  -1.13045  -1.12999  -1.12995  -1.12783
 Alpha  occ. eigenvalues --   -1.12774  -1.12754  -1.12655  -1.12642  -1.12609
 Alpha  occ. eigenvalues --   -0.18735  -0.13369  -0.12238  -0.10978
 Alpha virt. eigenvalues --   -0.05516  -0.05266  -0.04501  -0.03452  -0.02854
 Alpha virt. eigenvalues --   -0.02792  -0.01440  -0.01005  -0.00292  -0.00243
 Alpha virt. eigenvalues --   -0.00031   0.00363   0.00794   0.00886   0.00926
 Alpha virt. eigenvalues --    0.00998   0.01065   0.01185   0.01216   0.01289
 Alpha virt. eigenvalues --    0.01361   0.01441   0.01667   0.01813   0.02135
 Alpha virt. eigenvalues --    0.02287   0.02322   0.02601   0.02617   0.02938
 Alpha virt. eigenvalues --    0.02959   0.03003   0.03031   0.03092   0.03113
 Alpha virt. eigenvalues --    0.03238   0.03288   0.03322   0.03342   0.03395
 Alpha virt. eigenvalues --    0.04314   0.04501   0.04514   0.04677   0.04726
 Alpha virt. eigenvalues --    0.04954   0.05045   0.05177   0.05330   0.05598
 Alpha virt. eigenvalues --    0.05815   0.07234   0.07252   0.07280   0.07345
 Alpha virt. eigenvalues --    0.07618   0.07653   0.07722   0.08407   0.09106
 Alpha virt. eigenvalues --    0.09468   0.09836   0.10598   0.11146   0.11619
 Alpha virt. eigenvalues --    0.11785   0.12022   0.12533   0.12980   0.13268
 Alpha virt. eigenvalues --    0.13781   0.14376   0.14677   0.14852   0.15017
 Alpha virt. eigenvalues --    0.15374   0.15505   0.15758   0.16431   0.16981
 Alpha virt. eigenvalues --    0.26068   0.27053   0.27360   0.28040   0.28804
 Alpha virt. eigenvalues --    0.29304   0.30461   0.30804   0.30931   0.33585
 Alpha virt. eigenvalues --    0.34835   0.35353   0.36061   0.37250   0.39110
 Alpha virt. eigenvalues --    0.40508   0.40729   0.41810   0.41960   0.42915
 Alpha virt. eigenvalues --    0.43611   0.43729   0.44271   0.44456   0.44578
 Alpha virt. eigenvalues --    0.45095   0.45256   0.45730   0.46008   0.46196
 Alpha virt. eigenvalues --    0.46839   0.47413   0.48172   0.49164   0.49664
 Alpha virt. eigenvalues --    0.50060   0.50490   0.51037   0.51947   0.52253
 Alpha virt. eigenvalues --    0.53453   0.53723   0.54996   0.55867   0.56368
 Alpha virt. eigenvalues --    0.56833   0.57792   0.58984   0.60593   0.62085
 Alpha virt. eigenvalues --    0.64267   0.65238   0.66779   0.68475   0.69281
 Alpha virt. eigenvalues --    0.71731   2.03499   2.14906   2.17012   2.19787
 Alpha virt. eigenvalues --    2.20307   2.21904   2.27086   4.42700   4.43326
 Alpha virt. eigenvalues --    4.43797   4.43818   4.44840   4.45635   4.46033
 Alpha virt. eigenvalues --    4.46438   4.47118   4.47164   4.48093   4.49927
 Alpha virt. eigenvalues --    4.51481   4.51835   4.52754   4.54750   4.56561
 Alpha virt. eigenvalues --    4.59437   4.64083   4.65907   4.67500  96.23178
 Alpha virt. eigenvalues --   96.36297  96.39016  96.42304  96.43697  96.45442
 Alpha virt. eigenvalues --   96.52067
  Beta  occ. eigenvalues --  -38.44082 -38.43841 -38.43765 -38.43758 -38.43309
  Beta  occ. eigenvalues --  -38.43278 -38.43092  -2.19957  -2.19707  -2.19622
  Beta  occ. eigenvalues --   -2.19537  -2.19268  -2.19111  -2.18971  -1.13688
  Beta  occ. eigenvalues --   -1.13612  -1.13573  -1.13392  -1.13370  -1.13351
  Beta  occ. eigenvalues --   -1.13319  -1.13271  -1.13257  -1.13242  -1.13221
  Beta  occ. eigenvalues --   -1.13211  -1.12979  -1.12931  -1.12921  -1.12784
  Beta  occ. eigenvalues --   -1.12757  -1.12753  -1.12652  -1.12612  -1.12599
  Beta  occ. eigenvalues --   -0.18012  -0.13138  -0.12020
  Beta virt. eigenvalues --   -0.07018  -0.05458  -0.05258  -0.04456  -0.02667
  Beta virt. eigenvalues --   -0.02083  -0.01705  -0.01341  -0.00949  -0.00323
  Beta virt. eigenvalues --   -0.00285   0.00127   0.00401   0.00873   0.00896
  Beta virt. eigenvalues --    0.00925   0.01070   0.01226   0.01295   0.01346
  Beta virt. eigenvalues --    0.01454   0.01488   0.01549   0.01754   0.01845
  Beta virt. eigenvalues --    0.02249   0.02286   0.02364   0.02581   0.02604
  Beta virt. eigenvalues --    0.02970   0.03049   0.03072   0.03136   0.03219
  Beta virt. eigenvalues --    0.03249   0.03287   0.03322   0.03364   0.03481
  Beta virt. eigenvalues --    0.03507   0.04402   0.04564   0.04682   0.04820
  Beta virt. eigenvalues --    0.04834   0.05056   0.05120   0.05292   0.05521
  Beta virt. eigenvalues --    0.05776   0.06133   0.07235   0.07329   0.07377
  Beta virt. eigenvalues --    0.07465   0.07734   0.07777   0.07818   0.08496
  Beta virt. eigenvalues --    0.09413   0.09637   0.10063   0.10822   0.11361
  Beta virt. eigenvalues --    0.11921   0.12080   0.12262   0.12747   0.13288
  Beta virt. eigenvalues --    0.13496   0.14053   0.14447   0.14925   0.15053
  Beta virt. eigenvalues --    0.15380   0.15504   0.15591   0.15857   0.16741
  Beta virt. eigenvalues --    0.17383   0.26356   0.27135   0.27599   0.28438
  Beta virt. eigenvalues --    0.29234   0.29360   0.30640   0.30950   0.31474
  Beta virt. eigenvalues --    0.34007   0.35126   0.35551   0.36370   0.37556
  Beta virt. eigenvalues --    0.39385   0.40750   0.40982   0.42194   0.42333
  Beta virt. eigenvalues --    0.43036   0.43770   0.43840   0.44412   0.44638
  Beta virt. eigenvalues --    0.44768   0.45250   0.45408   0.45817   0.46053
  Beta virt. eigenvalues --    0.46360   0.46948   0.47686   0.48312   0.49406
  Beta virt. eigenvalues --    0.49656   0.50069   0.50656   0.51118   0.51974
  Beta virt. eigenvalues --    0.52419   0.53671   0.53906   0.55250   0.56210
  Beta virt. eigenvalues --    0.56791   0.56998   0.57982   0.59312   0.60609
  Beta virt. eigenvalues --    0.62532   0.64633   0.65178   0.66984   0.68445
  Beta virt. eigenvalues --    0.69366   0.71898   2.03656   2.14918   2.17053
  Beta virt. eigenvalues --    2.20042   2.20380   2.21940   2.27305   4.42742
  Beta virt. eigenvalues --    4.43330   4.43831   4.43874   4.44899   4.45712
  Beta virt. eigenvalues --    4.46074   4.46525   4.47152   4.47196   4.48160
  Beta virt. eigenvalues --    4.50008   4.51547   4.51857   4.52835   4.54765
  Beta virt. eigenvalues --    4.56575   4.59443   4.64132   4.65996   4.67544
  Beta virt. eigenvalues --   96.23226  96.36304  96.39036  96.42396  96.43700
  Beta virt. eigenvalues --   96.45455  96.52130
          Condensed to atoms (all electrons):
               1          2          3          4          5          6
     1  Na  11.129210   0.844430  -0.586196   0.062869   0.085540  -0.879661
     2  Na   0.844430  14.322902  -1.194122  -0.467363  -0.304593  -1.819524
     3  Na  -0.586196  -1.194122  11.529446   0.538679   0.035263   0.279838
     4  Na   0.062869  -0.467363   0.538679  11.350494  -0.204643  -0.566895
     5  Na   0.085540  -0.304593   0.035263  -0.204643  10.889775   0.117330
     6  Na  -0.879661  -1.819524   0.279838  -0.566895   0.117330  14.594999
     7  Na   0.163606  -0.152024   0.043490  -0.030977   0.340489  -0.053658
               7
     1  Na   0.163606
     2  Na  -0.152024
     3  Na   0.043490
     4  Na  -0.030977
     5  Na   0.340489
     6  Na  -0.053658
     7  Na  10.679422
          Atomic-Atomic Spin Densities.
               1          2          3          4          5          6
     1  Na   0.097403   0.498944   0.050264   0.037542  -0.029567  -0.625445
     2  Na   0.498944   2.075406  -0.174962   0.084490  -0.085793  -2.186836
     3  Na   0.050264  -0.174962  -0.148344  -0.032838   0.027902   0.279058
     4  Na   0.037542   0.084490  -0.032838  -0.067897   0.054839  -0.091818
     5  Na  -0.029567  -0.085793   0.027902   0.054839  -0.065725   0.104975
     6  Na  -0.625445  -2.186836   0.279058  -0.091818   0.104975   3.323204
     7  Na   0.005488   0.042658   0.002224   0.028561  -0.037141  -0.049654
               7
     1  Na   0.005488
     2  Na   0.042658
     3  Na   0.002224
     4  Na   0.028561
     5  Na  -0.037141
     6  Na  -0.049654
     7  Na  -0.019835
 Mulliken charges and spin densities:
               1          2
     1  Na   0.180202   0.034629
     2  Na  -0.229705   0.253908
     3  Na   0.353603   0.003305
     4  Na   0.317837   0.012880
     5  Na   0.040839  -0.030509
     6  Na  -0.672428   0.753485
     7  Na   0.009652  -0.027699
 Sum of Mulliken charges =  -0.00000   1.00000
 Mulliken charges and spin densities with hydrogens summed into heavy atoms:
               1          2
     1  Na   0.180202   0.034629
     2  Na  -0.229705   0.253908
     3  Na   0.353603   0.003305
     4  Na   0.317837   0.012880
     5  Na   0.040839  -0.030509
     6  Na  -0.672428   0.753485
     7  Na   0.009652  -0.027699
 Electronic spatial extent (au):  <R**2>=           2211.7203
 Charge=             -0.0000 electrons
 Dipole moment (field-independent basis, Debye):
    X=             -0.3009    Y=             -0.0511    Z=              0.1923  Tot=              0.3608
 Quadrupole moment (field-independent basis, Debye-Ang):
   XX=            -57.7919   YY=            -64.1380   ZZ=            -72.9843
   XY=             -0.0858   XZ=             -1.7852   YZ=              0.0487
 Traceless Quadrupole moment (field-independent basis, Debye-Ang):
   XX=              7.1795   YY=              0.8334   ZZ=             -8.0129
   XY=             -0.0858   XZ=             -1.7852   YZ=              0.0487
 Octapole moment (field-independent basis, Debye-Ang**2):
  XXX=             -4.7753  YYY=              2.2022  ZZZ=              1.5603  XYY=             -5.2843
  XXY=             -5.0285  XXZ=             -1.4680  XZZ=              0.2149  YZZ=             -0.0055
  YYZ=              0.5703  XYZ=              1.2264
 Hexadecapole moment (field-independent basis, Debye-Ang**3):
 XXXX=          -1491.8473 YYYY=          -1324.4116 ZZZZ=           -770.2442 XXXY=             12.4851
 XXXZ=            -52.5535 YYYX=            -11.5954 YYYZ=             -1.4666 ZZZX=              6.7983
 ZZZY=              0.3901 XXYY=           -460.8071 XXZZ=           -444.9397 YYZZ=           -412.0405
 XXYZ=              2.5399 YYXZ=             -1.5221 ZZXY=             -0.8454
 N-N= 3.446571685360D+02 E-N=-3.418860548857D+03  KE= 1.132953082662D+03
                          Isotropic Fermi Contact Couplings
        Atom                 a.u.       MegaHertz       Gauss      10(-4) cm-1
     1  Na(23)             0.02968      35.11270      12.52909      11.71234
     2  Na(23)             0.20843     246.57731      87.98491      82.24934
     3  Na(23)            -0.01897     -22.43653      -8.00591      -7.48402
     4  Na(23)            -0.02109     -24.94542      -8.90115      -8.32090
     5  Na(23)            -0.01844     -21.80957      -7.78220      -7.27489
     6  Na(23)             0.43103     509.92195     181.95283     170.09165
     7  Na(23)            -0.02252     -26.64622      -9.50803      -8.88822
 --------------------------------------------------------
       Center         ----  Spin Dipole Couplings  ----
                      3XX-RR        3YY-RR        3ZZ-RR
 --------------------------------------------------------
     1   Atom       -0.007771     -0.014099      0.021870
     2   Atom        0.002721     -0.004611      0.001891
     3   Atom       -0.010785     -0.014641      0.025426
     4   Atom       -0.019498     -0.016643      0.036141
     5   Atom       -0.010120     -0.010941      0.021061
     6   Atom       -0.000645      0.006570     -0.005925
     7   Atom       -0.011616     -0.009872      0.021489
 --------------------------------------------------------
                        XY            XZ            YZ
 --------------------------------------------------------
     1   Atom       -0.000718      0.009155     -0.000773
     2   Atom       -0.001381     -0.004140      0.002908
     3   Atom        0.001874      0.002318     -0.002134
     4   Atom       -0.001102     -0.006205      0.000284
     5   Atom       -0.002908      0.002433      0.002514
     6   Atom        0.001112     -0.000333     -0.001299
     7   Atom        0.002188     -0.006003      0.001521
 --------------------------------------------------------


 ---------------------------------------------------------------------------------
              Anisotropic Spin Dipole Couplings in Principal Axis System
 ---------------------------------------------------------------------------------

       Atom             a.u.   MegaHertz   Gauss  10(-4) cm-1        Axes

              Baa    -0.0142    -2.003    -0.715    -0.668  0.1267  0.9919 -0.0109
     1 Na(23) Bbb    -0.0103    -1.456    -0.520    -0.486  0.9535 -0.1248 -0.2743
              Bcc     0.0245     3.459     1.234     1.154  0.2734 -0.0244  0.9616
 
              Baa    -0.0057    -0.809    -0.289    -0.270 -0.0299  0.9283 -0.3706
     2 Na(23) Bbb    -0.0015    -0.211    -0.075    -0.071  0.7177  0.2780  0.6384
              Bcc     0.0072     1.020     0.364     0.340  0.6957 -0.2469 -0.6746
 
              Baa    -0.0156    -2.203    -0.786    -0.735 -0.3908  0.9178  0.0698
     3 Na(23) Bbb    -0.0101    -1.423    -0.508    -0.475  0.9185  0.3938 -0.0363
              Bcc     0.0257     3.626     1.294     1.209  0.0608 -0.0499  0.9969
 
              Baa    -0.0205    -2.892    -1.032    -0.965  0.9579  0.2677  0.1036
     4 Na(23) Bbb    -0.0164    -2.309    -0.824    -0.770 -0.2653  0.9635 -0.0366
              Bcc     0.0368     5.201     1.856     1.735 -0.1096  0.0075  0.9939
 
              Baa    -0.0138    -1.951    -0.696    -0.651  0.6548  0.7492 -0.0997
     5 Na(23) Bbb    -0.0076    -1.073    -0.383    -0.358  0.7525 -0.6586 -0.0061
              Bcc     0.0214     3.024     1.079     1.009  0.0702  0.0710  0.9950
 
              Baa    -0.0061    -0.857    -0.306    -0.286  0.0408  0.0986  0.9943
     6 Na(23) Bbb    -0.0008    -0.114    -0.041    -0.038  0.9878 -0.1534 -0.0254
              Bcc     0.0069     0.971     0.347     0.324  0.1500  0.9832 -0.1037
 
              Baa    -0.0141    -1.987    -0.709    -0.663  0.8491 -0.5018  0.1648
     7 Na(23) Bbb    -0.0085    -1.201    -0.429    -0.401  0.4999  0.8643  0.0562
              Bcc     0.0226     3.189     1.138     1.064 -0.1706  0.0347  0.9847
 

 ---------------------------------------------------------------------------------

 No NMR shielding tensors so no spin-rotation constants.
 Leave Link  601 at Thu Dec  7 03:47:28 2023, MaxMem=  1879048192 cpu:               2.3 elap:               0.2
 (Enter /home/sekinelabo/g16/l701.exe)
 ... and contract with generalized density number  0.
 Compute integral first derivatives.
 Leave Link  701 at Thu Dec  7 03:47:28 2023, MaxMem=  1879048192 cpu:               1.5 elap:               0.1
 (Enter /home/sekinelabo/g16/l702.exe)
 L702 exits ... SP integral derivatives will be done elsewhere.
 Leave Link  702 at Thu Dec  7 03:47:28 2023, MaxMem=  1879048192 cpu:               0.5 elap:               0.0
 (Enter /home/sekinelabo/g16/l703.exe)
 Integral derivatives from FoFJK, PRISM(SPDF).
 Compute integral first derivatives, UseDBF=F ICtDFT=           0.
 Calling FoFJK, ICntrl=      2127 FMM=F ISym2X=0 I1Cent= 0 IOpClX= 1 NMat=1 NMatS=1 NMatT=0.
 FoFJK:  IHMeth= 1 ICntrl=    2127 DoSepK=F KAlg= 0 I1Cent=           0 FoldK=F
 IRaf=         0 NMat=       1 IRICut=       1 DoRegI=T DoRafI=F ISym2E= 0 IDoP0=0 IntGTp=1.
 FoFCou: FMM=F IPFlag=           0 FMFlag=      100000 FMFlg1=         800
         NFxFlg=           0 DoJE=F BraDBF=F KetDBF=F FulRan=T
         wScrn=  0.000000 ICntrl=      2127 IOpCl=  1 I1Cent=           0 NGrid=           0
         NMat0=    1 NMatS0=      1 NMatT0=    0 NMatD0=    1 NMtDS0=    0 NMtDT0=    0
 Symmetry not used in FoFCou.
 Leave Link  703 at Thu Dec  7 03:47:30 2023, MaxMem=  1879048192 cpu:              33.1 elap:               2.2
 (Enter /home/sekinelabo/g16/l716.exe)
 Dipole        =-1.18380511D-01-2.01020339D-02 7.56722213D-02
 ***** Axes restored to original set *****
 -------------------------------------------------------------------
 Center     Atomic                   Forces (Hartrees/Bohr)
 Number     Number              X              Y              Z
 -------------------------------------------------------------------
      1       11           0.000914328   -0.000328782    0.000295098
      2       11          -0.000185703    0.005660348    0.004245205
      3       11           0.002309163   -0.004992981   -0.000303988
      4       11           0.002712436   -0.002623173   -0.000853855
      5       11          -0.004320127    0.000615131    0.001490544
      6       11          -0.000172512    0.002211732   -0.001398921
      7       11          -0.001257584   -0.000542276   -0.003474084
 -------------------------------------------------------------------
 Cartesian Forces:  Max     0.005660348 RMS     0.002568452
 Z-matrix is all fixed cartesians, so copy forces.
 Force constants in Cartesian coordinates: 
                1             2             3             4             5 
      1  0.716441D-01
      2 -0.532494D-02  0.628914D-01
      3  0.107939D-01  0.188368D-01  0.101666D+00
      4 -0.173020D-01 -0.572391D-02 -0.579076D-02  0.141448D+00
      5 -0.250904D-02 -0.210115D-01 -0.110247D-01  0.257006D-01  0.174982D+00
      6  0.113295D-01  0.196850D-01 -0.290387D-01 -0.666478D-02 -0.108515D-01
      7  0.573002D-02  0.731805D-03  0.205631D-02 -0.240378D-01 -0.134209D-01
      8  0.301677D-03  0.663058D-02 -0.583031D-02  0.709042D-02 -0.488036D-01
      9  0.718312D-03 -0.514932D-02 -0.307853D-02  0.930756D-02  0.780121D-02
     10 -0.236380D-01  0.273412D-02 -0.158618D-01 -0.245293D-01 -0.116765D-01
     11  0.167119D-01 -0.170097D-01  0.983621D-03  0.178278D-01 -0.362066D-01
     12  0.127250D-01 -0.160559D-01 -0.225092D-01 -0.115125D-01  0.463374D-02
     13  0.551391D-02 -0.565521D-04 -0.547292D-02 -0.357284D-01  0.166350D-02
     14 -0.359660D-03  0.534206D-02 -0.168022D-02 -0.213896D-01 -0.261062D-01
     15 -0.540875D-02 -0.855909D-03 -0.396921D-02  0.421531D-02  0.103512D-01
     16 -0.119737D-01 -0.641294D-02  0.581468D-02 -0.158509D-01 -0.857842D-02
     17 -0.807292D-02 -0.224204D-01  0.122791D-01 -0.721498D-02 -0.262758D-01
     18 -0.902970D-02 -0.172245D-01 -0.156093D-01  0.303752D-02  0.474312D-02
     19 -0.299744D-01  0.140524D-01  0.846063D-02 -0.240000D-01  0.882071D-02
     20 -0.747062D-03 -0.144224D-01 -0.135644D-01 -0.162903D-01 -0.165784D-01
     21 -0.211283D-01  0.763871D-03 -0.274611D-01  0.740765D-02 -0.565312D-02
                6             7             8             9            10 
      6  0.136638D+00
      7 -0.472693D-02  0.714286D-01
      8 -0.218333D-01 -0.160340D-01  0.707020D-01
      9 -0.319575D-01 -0.124463D-01  0.188842D-01  0.941509D-01
     10  0.737871D-02 -0.137965D-01  0.758134D-02  0.106094D-01  0.981728D-01
     11  0.109100D-01  0.604185D-03 -0.448353D-02 -0.112663D-01 -0.206804D-01
     12 -0.237249D-01 -0.165761D-01  0.582783D-02 -0.182974D-01  0.125655D-01
     13 -0.135791D-01 -0.277891D-01  0.816963D-02 -0.155422D-01 -0.975021D-03
     14 -0.103587D-01  0.179752D-01 -0.141464D-01  0.689333D-02  0.364719D-02
     15 -0.263449D-01  0.158394D-01 -0.108045D-01 -0.269547D-01 -0.675955D-02
     16  0.263596D-02 -0.141170D-01 -0.108299D-01  0.238401D-02 -0.309071D-01
     17  0.311865D-02  0.554386D-02 -0.132756D-01 -0.128256D-01  0.121800D-01
     18 -0.123112D-01  0.109222D-01  0.171764D-01 -0.152306D-01 -0.803998D-02
     19  0.362665D-02  0.258181D-02  0.372081D-02  0.496923D-02 -0.432680D-02
     20  0.932983D-02  0.459979D-02  0.337667D-02 -0.433752D-02  0.621427D-02
     21 -0.132609D-01  0.493150D-02 -0.342041D-02  0.136793D-02  0.107724D-03
               11            12            13            14            15 
     11  0.683245D-01
     12 -0.211450D-02  0.728384D-01
     13  0.303915D-02 -0.487370D-02  0.831258D-01
     14  0.702073D-02  0.180714D-02 -0.117617D-01  0.536984D-01
     15  0.207851D-02  0.194471D-02  0.192550D-01 -0.233537D-02  0.882285D-01
     16 -0.230768D-01  0.753904D-02 -0.988013D-02  0.906068D-02 -0.112934D-01
     17 -0.209864D-01  0.543248D-02 -0.950031D-02 -0.171120D-01 -0.324316D-02
     18 -0.110067D-02 -0.173528D-01  0.768056D-02  0.158802D-01 -0.133028D-01
     19  0.557415D-02  0.132772D-03 -0.142671D-01  0.282793D-02 -0.158479D-01
     20  0.334101D-02  0.469222D-03  0.844632D-02 -0.869650D-02  0.480920D-02
     21  0.509313D-03  0.710133D-02  0.125325D-01 -0.102063D-01 -0.196015D-01
               16            17            18            19            20 
     16  0.968607D-01
     17  0.219527D-01  0.127143D+00
     18 -0.764696D-02 -0.139252D-01  0.868392D-01
     19 -0.141319D-01 -0.148884D-01  0.307638D-02  0.841184D-01
     20  0.178846D-01 -0.270731D-01 -0.554932D-02 -0.201077D-01  0.600528D-01
     21  0.566694D-03  0.916372D-02 -0.130324D-01 -0.441771D-02  0.884295D-02
               21 
     21  0.648866D-01
 Leave Link  716 at Thu Dec  7 03:47:30 2023, MaxMem=  1879048192 cpu:               0.4 elap:               0.0
 (Enter /home/sekinelabo/g16/l103.exe)

 GradGradGradGradGradGradGradGradGradGradGradGradGradGradGradGradGradGrad
 Berny optimization.
 Search for a local minimum.
 Step number   1 out of a maximum of    2
 All quantities printed in internal units (Hartrees-Bohrs-Radians)
 Second derivative matrix not updated -- first step.
 ITU=  0
     Eigenvalues ---    0.06102   0.06200   0.06707   0.08547   0.09586
     Eigenvalues ---    0.10226   0.10611   0.12244   0.12901   0.15387
     Eigenvalues ---    0.16022   0.16812   0.17377   0.17722   0.22908
 Angle between quadratic step and forces=  17.22 degrees.
 Linear search not attempted -- first point.
 B after Tr=     0.000000   -0.000000    0.000000
         Rot=    1.000000    0.000000    0.000000    0.000000 Ang=   0.00 deg.
 Variable       Old X    -DE/DX   Delta X   Delta X   Delta X     New X
                                 (Linear)    (Quad)   (Total)
    X1       27.33923   0.00091   0.00000   0.00850   0.00850  27.34773
    Y1       28.40995  -0.00033   0.00000  -0.00473  -0.00473  28.40522
    Z1       31.79256   0.00030   0.00000   0.00356   0.00356  31.79613
    X2       28.29128  -0.00019   0.00000  -0.00156  -0.00156  28.28972
    Y2       28.78903   0.00566   0.00000   0.02846   0.02846  28.81749
    Z2       25.14148   0.00425   0.00000   0.02607   0.02607  25.16755
    X3       28.61707   0.00231   0.00000   0.01941   0.01941  28.63648
    Y3       24.31397  -0.00499   0.00000  -0.02942  -0.02942  24.28455
    Z3       21.55327  -0.00030   0.00000   0.00400   0.00400  21.55727
    X4       31.08373   0.00271   0.00000   0.02972   0.02972  31.11345
    Y4       24.48499  -0.00262   0.00000  -0.01834  -0.01834  24.46665
    Z4       28.54809  -0.00085   0.00000  -0.00703  -0.00703  28.54106
    X5       23.35890  -0.00432   0.00000  -0.03665  -0.03665  23.32225
    Y5       27.38459   0.00062   0.00000   0.01056   0.01056  27.39515
    Z5       21.86810   0.00149   0.00000   0.01555   0.01555  21.88365
    X6       24.83384  -0.00017   0.00000  -0.00288  -0.00288  24.83096
    Y6       22.92143   0.00221   0.00000   0.01201   0.01201  22.93344
    Z6       27.98099  -0.00140   0.00000  -0.00792  -0.00792  27.97307
    X7       22.12869  -0.00126   0.00000  -0.01655  -0.01655  22.11214
    Y7       29.34877  -0.00054   0.00000   0.00147   0.00147  29.35024
    Z7       28.76825  -0.00347   0.00000  -0.03423  -0.03423  28.73401
         Item               Value     Threshold  Converged?
 Maximum Force            0.005660     0.000450     NO 
 RMS     Force            0.002568     0.000300     NO 
 Maximum Displacement     0.036653     0.001800     NO 
 RMS     Displacement     0.018882     0.001200     NO 
 Predicted change in Energy=-4.864057D-04
 GradGradGradGradGradGradGradGradGradGradGradGradGradGradGradGradGradGrad

 Leave Link  103 at Thu Dec  7 03:47:30 2023, MaxMem=  1879048192 cpu:               0.2 elap:               0.0
 (Enter /home/sekinelabo/g16/l9999.exe)
 1\1\GINC-SEKINELABO-XA7R-R37\Force\UB3LYP\6-311+G(d)\Na7(2)\SEKINELABO
 \07-Dec-2023\0\\#P B3LYP/6-311+g(d) force\\DPGEN\\0,2\Na,14.4673,15.03
 39,16.8239\Na,14.9711,15.2345,13.3043\Na,15.1435,12.8664,11.4055\Na,16
 .4488,12.9569,15.107\Na,12.361,14.4913,11.5721\Na,13.1415,12.1295,14.8
 069\Na,11.71,15.5307,15.2235\\Version=ES64L-G16RevB.01\State=2-A\HF=-1
 136.1355237\S2=0.758622\S2-1=0.\S2A=0.750047\RMSD=5.962e-09\RMSF=2.568
 e-03\Dipole=-0.0143502,-0.1004101,-0.0992784\Quadrupole=-0.8263362,-3.
 6155549,4.4418911,-2.5557925,1.0900763,3.0801136\PG=C01 [X(Na7)]\\@


 IF YOU DON'T HAVE THE LAW - ARGUE THE FACTS.
 IF YOU DON'T HAVE THE FACTS - ARGUE THE LAW.
 IF YOU DON'T HAVE EITHER - POUND THE TABLE.
 Job cpu time:       0 days  0 hours  3 minutes 46.2 seconds.
 Elapsed time:       0 days  0 hours  0 minutes 18.9 seconds.
 File lengths (MBytes):  RWF=     32 Int=      0 D2E=      0 Chk=      4 Scr=      1
 Normal termination of Gaussian 16 at Thu Dec  7 03:47:30 2023.
