ITEM: TIMESTEP
1120
ITEM: NUMBER OF ATOMS
7
ITEM: BOX BOUNDS xy xz yz ff ff ff
0.0000000000000000e+00 3.0693000068800000e+01 0.0000000000000000e+00
0.0000000000000000e+00 3.0693000068800000e+01 0.0000000000000000e+00
0.0000000000000000e+00 3.0693000068800000e+01 0.0000000000000000e+00
ITEM: ATOMS id type x y z fx fy fz
2 1 17.1859 13.2241 12.8944 0.0745996 0.136681 0.0187729
1 1 14.6537 15.5873 13.5042 -0.0266961 0.0526644 -0.277686
3 1 18.5964 16.2415 12.8839 -0.171433 -0.160171 0.0524616
7 1 12.1006 14.4003 18.1609 -0.0863066 -0.166905 0.291784
4 1 16.8892 15.2267 16.0595 0.585734 -0.279667 -0.256122
6 1 12.7427 16.1878 15.9021 -0.111032 0.194208 -0.259817
5 1 15.2571 16.5578 18.0205 -0.264866 0.223189 0.430607
