ITEM: TIMESTEP
4460
ITEM: NUMBER OF ATOMS
7
ITEM: BOX BOUNDS xy xz yz ff ff ff
0.0000000000000000e+00 3.0693000068800000e+01 0.0000000000000000e+00
0.0000000000000000e+00 3.0693000068800000e+01 0.0000000000000000e+00
0.0000000000000000e+00 3.0693000068800000e+01 0.0000000000000000e+00
ITEM: ATOMS id type x y z fx fy fz
4 1 13.0314 13.0709 14.5146 0.0433877 -0.155539 0.198439
5 1 16.8501 13.1879 14.0259 0.0755103 -0.201269 -0.0858645
6 1 14.8569 16.0245 13.9919 0.0584448 0.321562 -0.729532
3 1 18.4372 16.3021 14.9248 -0.264633 -0.142238 0.0611843
1 1 15.69 14.4628 16.8642 0.186959 0.103072 0.138921
2 1 12.7624 16.0922 16.7907 -0.110379 0.0726262 0.0534357
7 1 15.7975 18.285 16.3134 0.0107111 0.00178438 0.363416
