ITEM: TIMESTEP
4840
ITEM: NUMBER OF ATOMS
7
ITEM: BOX BOUNDS xy xz yz ff ff ff
0.0000000000000000e+00 3.0693000068800000e+01 0.0000000000000000e+00
0.0000000000000000e+00 3.0693000068800000e+01 0.0000000000000000e+00
0.0000000000000000e+00 3.0693000068800000e+01 0.0000000000000000e+00
ITEM: ATOMS id type x y z fx fy fz
4 1 13.1373 13.3262 14.7937 0.152373 -0.061851 0.265571
5 1 16.4853 12.9423 13.9508 -0.0444813 0.0848164 0.0217375
6 1 14.7409 15.9348 13.8426 0.264679 0.207722 0.613743
3 1 18.3256 16.1615 14.3593 -0.30462 -0.131387 0.225541
1 1 15.9161 14.6525 16.8337 -0.0648774 0.197092 -0.69095
2 1 12.812 16.1645 17.0674 0.119966 0.0434691 -0.24485
7 1 16.0082 18.2437 16.5781 -0.123039 -0.339862 -0.190793
