ITEM: TIMESTEP
7100
ITEM: NUMBER OF ATOMS
7
ITEM: BOX BOUNDS xy xz yz ff ff ff
0.0000000000000000e+00 3.0693000068800000e+01 0.0000000000000000e+00
0.0000000000000000e+00 3.0693000068800000e+01 0.0000000000000000e+00
0.0000000000000000e+00 3.0693000068800000e+01 0.0000000000000000e+00
ITEM: ATOMS id type x y z fx fy fz
5 1 14.6588 13.0955 13.5407 -0.0116143 -0.0907551 -0.0544548
6 1 14.2411 16.3652 14.5884 0.349286 -0.0499288 -0.27663
3 1 17.526 15.2776 13.026 -0.253518 0.194937 0.111729
4 1 12.8471 13.7795 16.3193 0.234555 0.00791286 0.0891091
1 1 16.4398 14.2419 16.1701 -0.349171 0.510169 0.100344
2 1 14.5354 16.6491 18.0271 0.0723922 -0.139016 0.0251562
7 1 17.1773 18.0165 15.754 -0.0419297 -0.433318 0.00474655
