ITEM: TIMESTEP
5890
ITEM: NUMBER OF ATOMS
7
ITEM: BOX BOUNDS xy xz yz ff ff ff
0.0000000000000000e+00 2.4813114043500001e+01 0.0000000000000000e+00
0.0000000000000000e+00 2.4813114043500001e+01 0.0000000000000000e+00
0.0000000000000000e+00 2.4813114043500001e+01 0.0000000000000000e+00
ITEM: ATOMS id type x y z fx fy fz
7 1 12.9471 14.2221 9.8087 0.0151146 -0.105919 0.139276
5 1 14.3361 10.2291 11.3954 -0.0560007 0.104114 0.0635793
3 1 8.53077 12.8177 13.9046 0.24237 -0.0694774 -0.0284812
1 1 11.1691 11.3414 11.6374 -0.065844 0.0117112 -0.0632588
2 1 12.2552 13.8863 13.5081 0.0137707 0.120632 -0.0658429
4 1 15.7616 13.3908 11.701 -0.0997481 -0.0258255 -0.00733359
6 1 11.8459 10.9586 14.8908 -0.0496625 -0.0352349 -0.0379393
