 Set GAUSS_MDEF to "14GB".
 Entering Gaussian System, Link 0=g16
 Initial command:
 /home/sekinelabo/g16/l1.exe "/home/sekinelabo/g16temp/Gau-127934.inp" -scrdir="/home/sekinelabo/g16temp/"
 Entering Link 1 = /home/sekinelabo/g16/l1.exe PID=    127936.
  
 Copyright (c) 1988-2017, Gaussian, Inc.  All Rights Reserved.
  
 This is part of the Gaussian(R) 16 program.  It is based on
 the Gaussian(R) 09 system (copyright 2009, Gaussian, Inc.),
 the Gaussian(R) 03 system (copyright 2003, Gaussian, Inc.),
 the Gaussian(R) 98 system (copyright 1998, Gaussian, Inc.),
 the Gaussian(R) 94 system (copyright 1995, Gaussian, Inc.),
 the Gaussian 92(TM) system (copyright 1992, Gaussian, Inc.),
 the Gaussian 90(TM) system (copyright 1990, Gaussian, Inc.),
 the Gaussian 88(TM) system (copyright 1988, Gaussian, Inc.),
 the Gaussian 86(TM) system (copyright 1986, Carnegie Mellon
 University), and the Gaussian 82(TM) system (copyright 1983,
 Carnegie Mellon University). Gaussian is a federally registered
 trademark of Gaussian, Inc.
  
 This software contains proprietary and confidential information,
 including trade secrets, belonging to Gaussian, Inc.
  
 This software is provided under written license and may be
 used, copied, transmitted, or stored only in accord with that
 written license.
  
 The following legend is applicable only to US Government
 contracts under FAR:
  
                    RESTRICTED RIGHTS LEGEND
  
 Use, reproduction and disclosure by the US Government is
 subject to restrictions as set forth in subparagraphs (a)
 and (c) of the Commercial Computer Software - Restricted
 Rights clause in FAR 52.227-19.
  
 Gaussian, Inc.
 340 Quinnipiac St., Bldg. 40, Wallingford CT 06492
  
  
 ---------------------------------------------------------------
 Warning -- This program may not be used in any manner that
 competes with the business of Gaussian, Inc. or will provide
 assistance to any competitor of Gaussian, Inc.  The licensee
 of this program is prohibited from giving any competitor of
 Gaussian, Inc. access to this program.  By using this program,
 the user acknowledges that Gaussian, Inc. is engaged in the
 business of creating and licensing software in the field of
 computational chemistry and represents and warrants to the
 licensee that it is not a competitor of Gaussian, Inc. and that
 it will not use this program in any manner prohibited above.
 ---------------------------------------------------------------
  

 Cite this work as:
 Gaussian 16, Revision B.01,
 M. J. Frisch, G. W. Trucks, H. B. Schlegel, G. E. Scuseria, 
 M. A. Robb, J. R. Cheeseman, G. Scalmani, V. Barone, 
 G. A. Petersson, H. Nakatsuji, X. Li, M. Caricato, A. V. Marenich, 
 J. Bloino, B. G. Janesko, R. Gomperts, B. Mennucci, H. P. Hratchian, 
 J. V. Ortiz, A. F. Izmaylov, J. L. Sonnenberg, D. Williams-Young, 
 F. Ding, F. Lipparini, F. Egidi, J. Goings, B. Peng, A. Petrone, 
 T. Henderson, D. Ranasinghe, V. G. Zakrzewski, J. Gao, N. Rega, 
 G. Zheng, W. Liang, M. Hada, M. Ehara, K. Toyota, R. Fukuda, 
 J. Hasegawa, M. Ishida, T. Nakajima, Y. Honda, O. Kitao, H. Nakai, 
 T. Vreven, K. Throssell, J. A. Montgomery, Jr., J. E. Peralta, 
 F. Ogliaro, M. J. Bearpark, J. J. Heyd, E. N. Brothers, K. N. Kudin, 
 V. N. Staroverov, T. A. Keith, R. Kobayashi, J. Normand, 
 K. Raghavachari, A. P. Rendell, J. C. Burant, S. S. Iyengar, 
 J. Tomasi, M. Cossi, J. M. Millam, M. Klene, C. Adamo, R. Cammi, 
 J. W. Ochterski, R. L. Martin, K. Morokuma, O. Farkas, 
 J. B. Foresman, and D. J. Fox, Gaussian, Inc., Wallingford CT, 2016.
 
 ******************************************
 Gaussian 16:  ES64L-G16RevB.01 20-Dec-2017
                 5-Dec-2023 
 ******************************************
 %nproc=15
 Will use up to   15 processors via shared memory.
 -------------------------
 #P B3LYP/6-311+g(d) force
 -------------------------
 1/10=7,30=1,38=1/1,3;
 2/12=2,17=6,18=5,40=1/2;
 3/5=4,6=6,7=11,11=2,25=1,30=1,71=1,74=-5/1,2,3;
 4//1;
 5/5=2,38=5/2;
 6/7=2,8=2,9=2,10=2,28=1/1;
 7/29=1/1,2,3,16;
 1/10=7,30=1/3;
 99//99;
 Leave Link    1 at Tue Dec  5 12:58:43 2023, MaxMem=           0 cpu:               0.3 elap:               0.0
 (Enter /home/sekinelabo/g16/l101.exe)
 -----
 DPGEN
 -----
 Symbolic Z-matrix:
 Charge =  0 Multiplicity = 2
 Na                    8.63029   13.0342   12.7856 
 Na                    11.6771   12.4962   13.3291 
 Na                    14.1397   13.3221   12.1988 
 Na                    10.0218   10.4406   10.9462 
 Na                    10.9924   13.7205   10.346 
 Na                    15.502    10.78     13.6278 
 Na                    13.1774   10.347    10.9072 
 
 ITRead=  0  0  0  0  0  0  0
 MicOpt= -1 -1 -1 -1 -1 -1 -1
 NAtoms=      7 NQM=        7 NQMF=       0 NMMI=      0 NMMIF=      0
                NMic=       0 NMicF=      0.
                    Isotopes and Nuclear Properties:
 (Nuclear quadrupole moments (NQMom) in fm**2, nuclear magnetic moments (NMagM)
  in nuclear magnetons)

  Atom         1           2           3           4           5           6           7
 IAtWgt=          23          23          23          23          23          23          23
 AtmWgt=  22.9897697  22.9897697  22.9897697  22.9897697  22.9897697  22.9897697  22.9897697
 NucSpn=           3           3           3           3           3           3           3
 AtZEff=  -0.0000000  -0.0000000  -0.0000000  -0.0000000  -0.0000000  -0.0000000  -0.0000000
 NQMom=   10.4000000  10.4000000  10.4000000  10.4000000  10.4000000  10.4000000  10.4000000
 NMagM=    2.2175200   2.2175200   2.2175200   2.2175200   2.2175200   2.2175200   2.2175200
 AtZNuc=  11.0000000  11.0000000  11.0000000  11.0000000  11.0000000  11.0000000  11.0000000
 Leave Link  101 at Tue Dec  5 12:58:43 2023, MaxMem=  1879048192 cpu:               2.3 elap:               0.2
 (Enter /home/sekinelabo/g16/l103.exe)

 GradGradGradGradGradGradGradGradGradGradGradGradGradGradGradGradGradGrad
 Berny optimization.
 Initialization pass.
 Trust Radius=3.00D-01 FncErr=1.00D-07 GrdErr=1.00D-07 EigMax=2.50D+02 EigMin=1.00D-04
 Number of steps in this run=      2 maximum allowed number of steps=      2.
 GradGradGradGradGradGradGradGradGradGradGradGradGradGradGradGradGradGrad

 Leave Link  103 at Tue Dec  5 12:58:43 2023, MaxMem=  1879048192 cpu:               0.2 elap:               0.0
 (Enter /home/sekinelabo/g16/l202.exe)
                          Input orientation:                          
 ---------------------------------------------------------------------
 Center     Atomic      Atomic             Coordinates (Angstroms)
 Number     Number       Type             X           Y           Z
 ---------------------------------------------------------------------
      1         11           0        8.630290   13.034200   12.785600
      2         11           0       11.677100   12.496200   13.329100
      3         11           0       14.139700   13.322100   12.198800
      4         11           0       10.021800   10.440600   10.946200
      5         11           0       10.992400   13.720500   10.346000
      6         11           0       15.502000   10.780000   13.627800
      7         11           0       13.177400   10.347000   10.907200
 ---------------------------------------------------------------------
                    Distance matrix (angstroms):
                    1          2          3          4          5
     1  Na   0.000000
     2  Na   3.141319   0.000000
     3  Na   5.548046   2.832682   0.000000
     4  Na   3.470800   3.555801   5.179686   0.000000
     5  Na   3.464422   3.296454   3.673838   3.472758   0.000000
     6  Na   7.280873   4.202907   3.218723   6.110545   6.305017
     7  Na   5.605858   3.568692   3.383116   3.157229   4.058284
                    6          7
     6  Na   0.000000
     7  Na   3.604569   0.000000
 Stoichiometry    Na7(2)
 Framework group  C1[X(Na7)]
 Deg. of freedom    15
 Full point group                 C1      NOp   1
 Largest Abelian subgroup         C1      NOp   1
 Largest concise Abelian subgroup C1      NOp   1
                         Standard orientation:                         
 ---------------------------------------------------------------------
 Center     Atomic      Atomic             Coordinates (Angstroms)
 Number     Number       Type             X           Y           Z
 ---------------------------------------------------------------------
      1         11           0       -3.317077   -0.866411   -1.162563
      2         11           0       -0.180466   -0.979129   -1.032740
      3         11           0        1.774148   -1.467497    0.958507
      4         11           0       -1.769641    2.107240   -0.262952
      5         11           0       -1.680269   -0.623160    1.881104
      6         11           0        3.912598   -0.026732   -0.967994
      7         11           0        1.260707    1.855689    0.586639
 ---------------------------------------------------------------------
 Rotational constants (GHZ):           1.0796148           0.4856827           0.4470598
 Leave Link  202 at Tue Dec  5 12:58:43 2023, MaxMem=  1879048192 cpu:               0.0 elap:               0.0
 (Enter /home/sekinelabo/g16/l301.exe)
 Standard basis: 6-311+G(d) (5D, 7F)
 Ernie: Thresh=  0.10000D-02 Tol=  0.10000D-05 Strict=F.
 There are   217 symmetry adapted cartesian basis functions of A   symmetry.
 There are   210 symmetry adapted basis functions of A   symmetry.
   210 basis functions,   350 primitive gaussians,   217 cartesian basis functions
    39 alpha electrons       38 beta electrons
       nuclear repulsion energy       343.7882352513 Hartrees.
 IExCor=  402 DFT=T Ex+Corr=B3LYP ExCW=0 ScaHFX=  0.200000
 ScaDFX=  0.800000  0.720000  1.000000  0.810000 ScalE2=  1.000000  1.000000
 IRadAn=      5 IRanWt=     -1 IRanGd=            0 ICorTp=0 IEmpDi=  4
 NAtoms=    7 NActive=    7 NUniq=    7 SFac= 1.00D+00 NAtFMM=   60 NAOKFM=F Big=F
 Integral buffers will be    131072 words long.
 Raffenetti 2 integral format.
 Two-electron integral symmetry is turned on.
 Leave Link  301 at Tue Dec  5 12:58:43 2023, MaxMem=  1879048192 cpu:               0.5 elap:               0.0
 (Enter /home/sekinelabo/g16/l302.exe)
 NPDir=0 NMtPBC=     1 NCelOv=     1 NCel=       1 NClECP=     1 NCelD=      1
         NCelK=      1 NCelE2=     1 NClLst=     1 CellRange=     0.0.
 One-electron integrals computed using PRISM.
 One-electron integral symmetry used in STVInt
 NBasis=   210 RedAO= T EigKep=  3.82D-06  NBF=   210
 NBsUse=   210 1.00D-06 EigRej= -1.00D+00 NBFU=   210
 Precomputing XC quadrature grid using
 IXCGrd= 4 IRadAn=           5 IRanWt=          -1 IRanGd=           0 AccXCQ= 0.00D+00.
 Generated NRdTot=       0 NPtTot=           0 NUsed=           0 NTot=          32
 NSgBfM=   210   210   210   210   210 MxSgAt=     7 MxSgA2=     7.
 Leave Link  302 at Tue Dec  5 12:58:44 2023, MaxMem=  1879048192 cpu:               2.1 elap:               0.1
 (Enter /home/sekinelabo/g16/l303.exe)
 DipDrv:  MaxL=1.
 Leave Link  303 at Tue Dec  5 12:58:44 2023, MaxMem=  1879048192 cpu:               0.5 elap:               0.0
 (Enter /home/sekinelabo/g16/l401.exe)
 ExpMin= 7.60D-03 ExpMax= 3.62D+04 ExpMxC= 1.21D+03 IAcc=3 IRadAn=         5 AccDes= 0.00D+00
 Harris functional with IExCor=  402 and IRadAn=       5 diagonalized for initial guess.
 HarFok:  IExCor=  402 AccDes= 0.00D+00 IRadAn=         5 IDoV= 1 UseB2=F ITyADJ=14
 ICtDFT=  3500011 ScaDFX=  1.000000  1.000000  1.000000  1.000000
 FoFCou: FMM=F IPFlag=           0 FMFlag=      100000 FMFlg1=           0
         NFxFlg=           0 DoJE=T BraDBF=F KetDBF=T FulRan=T
         wScrn=  0.000000 ICntrl=       500 IOpCl=  0 I1Cent=   200000004 NGrid=           0
         NMat0=    1 NMatS0=      1 NMatT0=    0 NMatD0=    1 NMtDS0=    0 NMtDT0=    0
 Petite list used in FoFCou.
 Harris En= -1135.89192453156    
 JPrj=0 DoOrth=F DoCkMO=F.
 Initial guess <Sx>= 0.0000 <Sy>= 0.0000 <Sz>= 0.5000 <S**2>= 0.7500 S= 0.5000
 Leave Link  401 at Tue Dec  5 12:58:44 2023, MaxMem=  1879048192 cpu:               4.4 elap:               0.3
 (Enter /home/sekinelabo/g16/l502.exe)
 Keep R1 and R2 ints in memory in canonical form, NReq=506573321.
 FoFCou: FMM=F IPFlag=           0 FMFlag=           0 FMFlg1=           0
         NFxFlg=           0 DoJE=F BraDBF=F KetDBF=F FulRan=T
         wScrn=  0.000000 ICntrl=       600 IOpCl=  0 I1Cent=           0 NGrid=           0
         NMat0=    1 NMatS0=  22155 NMatT0=    0 NMatD0=    1 NMtDS0=    0 NMtDT0=    0
 Symmetry not used in FoFCou.
 Two-electron integral symmetry not used.
 UHF open shell SCF:
 Using DIIS extrapolation, IDIIS=  1040.
 NGot=  1879048192 LenX=  1388082579 LenY=  1388035049
 Requested convergence on RMS density matrix=1.00D-08 within 128 cycles.
 Requested convergence on MAX density matrix=1.00D-06.
 Requested convergence on             energy=1.00D-06.
 No special actions if energy rises.

 Cycle   1  Pass 1  IDiag  1:
 E= -1136.07935036245    
 DIIS: error= 1.12D-02 at cycle   1 NSaved=   1.
 NSaved= 1 IEnMin= 1 EnMin= -1136.07935036245     IErMin= 1 ErrMin= 1.12D-02
 ErrMax= 1.12D-02  0.00D+00 EMaxC= 1.00D-01 BMatC= 1.96D-01 BMatP= 1.96D-01
 IDIUse=3 WtCom= 8.88D-01 WtEn= 1.12D-01
 Coeff-Com:  0.100D+01
 Coeff-En:   0.100D+01
 Coeff:      0.100D+01
 Gap=     0.036 Goal=   None    Shift=    0.000
 Gap=     0.026 Goal=   None    Shift=    0.000
 GapD=    0.026 DampG=0.250 DampE=0.500 DampFc=0.2500 IDamp=-1.
 Damping current iteration by 2.50D-01
 RMSDP=4.62D-02 MaxDP=5.26D+00              OVMax= 2.93D-01

 Cycle   2  Pass 1  IDiag  1:
 E= -1136.09349655372     Delta-E=       -0.014146191276 Rises=F Damp=T
 DIIS: error= 7.22D-03 at cycle   2 NSaved=   2.
 NSaved= 2 IEnMin= 2 EnMin= -1136.09349655372     IErMin= 2 ErrMin= 7.22D-03
 ErrMax= 7.22D-03  0.00D+00 EMaxC= 1.00D-01 BMatC= 7.35D-02 BMatP= 1.96D-01
 IDIUse=3 WtCom= 9.28D-01 WtEn= 7.22D-02
 Coeff-Com: -0.122D+01 0.222D+01
 Coeff-En:   0.000D+00 0.100D+01
 Coeff:     -0.113D+01 0.213D+01
 Gap=     0.045 Goal=   None    Shift=    0.000
 Gap=     0.039 Goal=   None    Shift=    0.000
 RMSDP=1.74D-02 MaxDP=1.97D+00 DE=-1.41D-02 OVMax= 2.58D-01

 Cycle   3  Pass 1  IDiag  1:
 E= -1136.11310083642     Delta-E=       -0.019604282699 Rises=F Damp=F
 DIIS: error= 5.19D-03 at cycle   3 NSaved=   3.
 NSaved= 3 IEnMin= 3 EnMin= -1136.11310083642     IErMin= 3 ErrMin= 5.19D-03
 ErrMax= 5.19D-03  0.00D+00 EMaxC= 1.00D-01 BMatC= 7.18D-03 BMatP= 7.35D-02
 IDIUse=3 WtCom= 9.48D-01 WtEn= 5.19D-02
 Coeff-Com: -0.406D+00 0.709D+00 0.697D+00
 Coeff-En:   0.000D+00 0.000D+00 0.100D+01
 Coeff:     -0.385D+00 0.672D+00 0.713D+00
 Gap=     0.040 Goal=   None    Shift=    0.000
 Gap=     0.033 Goal=   None    Shift=    0.000
 RMSDP=9.43D-03 MaxDP=1.10D+00 DE=-1.96D-02 OVMax= 1.46D-01

 Cycle   4  Pass 1  IDiag  1:
 E= -1136.11337130536     Delta-E=       -0.000270468939 Rises=F Damp=F
 DIIS: error= 4.58D-03 at cycle   4 NSaved=   4.
 NSaved= 4 IEnMin= 4 EnMin= -1136.11337130536     IErMin= 4 ErrMin= 4.58D-03
 ErrMax= 4.58D-03  0.00D+00 EMaxC= 1.00D-01 BMatC= 6.14D-03 BMatP= 7.18D-03
 IDIUse=3 WtCom= 9.54D-01 WtEn= 4.58D-02
 Coeff-Com: -0.387D-01 0.604D-01 0.476D+00 0.502D+00
 Coeff-En:   0.000D+00 0.000D+00 0.492D+00 0.508D+00
 Coeff:     -0.369D-01 0.577D-01 0.477D+00 0.503D+00
 Gap=     0.042 Goal=   None    Shift=    0.000
 Gap=     0.034 Goal=   None    Shift=    0.000
 RMSDP=3.07D-03 MaxDP=2.13D-01 DE=-2.70D-04 OVMax= 9.86D-02

 Cycle   5  Pass 1  IDiag  1:
 E= -1136.11927209860     Delta-E=       -0.005900793238 Rises=F Damp=F
 DIIS: error= 1.36D-03 at cycle   5 NSaved=   5.
 NSaved= 5 IEnMin= 5 EnMin= -1136.11927209860     IErMin= 5 ErrMin= 1.36D-03
 ErrMax= 1.36D-03  0.00D+00 EMaxC= 1.00D-01 BMatC= 6.65D-04 BMatP= 6.14D-03
 IDIUse=3 WtCom= 9.86D-01 WtEn= 1.36D-02
 Coeff-Com: -0.110D-01 0.135D-01 0.290D+00 0.337D+00 0.371D+00
 Coeff-En:   0.000D+00 0.000D+00 0.000D+00 0.841D-01 0.916D+00
 Coeff:     -0.108D-01 0.133D-01 0.286D+00 0.333D+00 0.378D+00
 Gap=     0.042 Goal=   None    Shift=    0.000
 Gap=     0.033 Goal=   None    Shift=    0.000
 RMSDP=1.02D-03 MaxDP=8.22D-02 DE=-5.90D-03 OVMax= 3.12D-02

 Cycle   6  Pass 1  IDiag  1:
 E= -1136.12010050280     Delta-E=       -0.000828404202 Rises=F Damp=F
 DIIS: error= 1.99D-04 at cycle   6 NSaved=   6.
 NSaved= 6 IEnMin= 6 EnMin= -1136.12010050280     IErMin= 6 ErrMin= 1.99D-04
 ErrMax= 1.99D-04  0.00D+00 EMaxC= 1.00D-01 BMatC= 1.56D-05 BMatP= 6.65D-04
 IDIUse=3 WtCom= 9.98D-01 WtEn= 1.99D-03
 Coeff-Com: -0.859D-03 0.299D-03-0.794D-02-0.126D-01 0.962D-01 0.925D+00
 Coeff-En:   0.000D+00 0.000D+00 0.000D+00 0.000D+00 0.000D+00 0.100D+01
 Coeff:     -0.858D-03 0.298D-03-0.793D-02-0.125D-01 0.960D-01 0.925D+00
 Gap=     0.042 Goal=   None    Shift=    0.000
 Gap=     0.034 Goal=   None    Shift=    0.000
 RMSDP=3.64D-04 MaxDP=3.10D-02 DE=-8.28D-04 OVMax= 1.16D-02

 Cycle   7  Pass 1  IDiag  1:
 E= -1136.12012962239     Delta-E=       -0.000029119591 Rises=F Damp=F
 DIIS: error= 1.48D-04 at cycle   7 NSaved=   7.
 NSaved= 7 IEnMin= 7 EnMin= -1136.12012962239     IErMin= 7 ErrMin= 1.48D-04
 ErrMax= 1.48D-04  0.00D+00 EMaxC= 1.00D-01 BMatC= 7.64D-06 BMatP= 1.56D-05
 IDIUse=3 WtCom= 9.99D-01 WtEn= 1.48D-03
 Coeff-Com:  0.107D-02-0.176D-02-0.420D-01-0.531D-01 0.906D-02 0.556D+00
 Coeff-Com:  0.531D+00
 Coeff-En:   0.000D+00 0.000D+00 0.000D+00 0.000D+00 0.000D+00 0.000D+00
 Coeff-En:   0.100D+01
 Coeff:      0.106D-02-0.176D-02-0.419D-01-0.530D-01 0.904D-02 0.555D+00
 Coeff:      0.532D+00
 Gap=     0.042 Goal=   None    Shift=    0.000
 Gap=     0.034 Goal=   None    Shift=    0.000
 RMSDP=3.06D-04 MaxDP=2.82D-02 DE=-2.91D-05 OVMax= 4.84D-03

 Cycle   8  Pass 1  IDiag  1:
 E= -1136.12014263080     Delta-E=       -0.000013008409 Rises=F Damp=F
 DIIS: error= 4.21D-05 at cycle   8 NSaved=   8.
 NSaved= 8 IEnMin= 8 EnMin= -1136.12014263080     IErMin= 8 ErrMin= 4.21D-05
 ErrMax= 4.21D-05  0.00D+00 EMaxC= 1.00D-01 BMatC= 7.58D-07 BMatP= 7.64D-06
 IDIUse=1 WtCom= 1.00D+00 WtEn= 0.00D+00
 Coeff-Com:  0.117D-02-0.151D-02-0.291D-02-0.313D-02-0.275D-01-0.205D+00
 Coeff-Com:  0.524D-01 0.119D+01
 Coeff:      0.117D-02-0.151D-02-0.291D-02-0.313D-02-0.275D-01-0.205D+00
 Coeff:      0.524D-01 0.119D+01
 Gap=     0.042 Goal=   None    Shift=    0.000
 Gap=     0.034 Goal=   None    Shift=    0.000
 RMSDP=1.60D-04 MaxDP=1.33D-02 DE=-1.30D-05 OVMax= 7.66D-03

 Cycle   9  Pass 1  IDiag  1:
 E= -1136.12014877955     Delta-E=       -0.000006148745 Rises=F Damp=F
 DIIS: error= 2.39D-05 at cycle   9 NSaved=   9.
 NSaved= 9 IEnMin= 9 EnMin= -1136.12014877955     IErMin= 9 ErrMin= 2.39D-05
 ErrMax= 2.39D-05  0.00D+00 EMaxC= 1.00D-01 BMatC= 3.13D-07 BMatP= 7.58D-07
 IDIUse=1 WtCom= 1.00D+00 WtEn= 0.00D+00
 Coeff-Com:  0.416D-03-0.478D-03 0.556D-02 0.757D-02-0.152D-01-0.170D+00
 Coeff-Com: -0.808D-01 0.466D+00 0.787D+00
 Coeff:      0.416D-03-0.478D-03 0.556D-02 0.757D-02-0.152D-01-0.170D+00
 Coeff:     -0.808D-01 0.466D+00 0.787D+00
 Gap=     0.042 Goal=   None    Shift=    0.000
 Gap=     0.034 Goal=   None    Shift=    0.000
 RMSDP=8.15D-05 MaxDP=7.76D-03 DE=-6.15D-06 OVMax= 4.05D-03

 Cycle  10  Pass 1  IDiag  1:
 E= -1136.12015070195     Delta-E=       -0.000001922407 Rises=F Damp=F
 DIIS: error= 2.00D-05 at cycle  10 NSaved=  10.
 NSaved=10 IEnMin=10 EnMin= -1136.12015070195     IErMin=10 ErrMin= 2.00D-05
 ErrMax= 2.00D-05  0.00D+00 EMaxC= 1.00D-01 BMatC= 1.45D-07 BMatP= 3.13D-07
 IDIUse=1 WtCom= 1.00D+00 WtEn= 0.00D+00
 Coeff-Com: -0.141D-03 0.216D-03 0.483D-02 0.570D-02 0.422D-03-0.253D-01
 Coeff-Com: -0.763D-01-0.162D+00 0.427D+00 0.826D+00
 Coeff:     -0.141D-03 0.216D-03 0.483D-02 0.570D-02 0.422D-03-0.253D-01
 Coeff:     -0.763D-01-0.162D+00 0.427D+00 0.826D+00
 Gap=     0.042 Goal=   None    Shift=    0.000
 Gap=     0.034 Goal=   None    Shift=    0.000
 RMSDP=6.19D-05 MaxDP=4.21D-03 DE=-1.92D-06 OVMax= 3.95D-03

 Cycle  11  Pass 1  IDiag  1:
 E= -1136.12015188033     Delta-E=       -0.000001178380 Rises=F Damp=F
 DIIS: error= 1.66D-05 at cycle  11 NSaved=  11.
 NSaved=11 IEnMin=11 EnMin= -1136.12015188033     IErMin=11 ErrMin= 1.66D-05
 ErrMax= 1.66D-05  0.00D+00 EMaxC= 1.00D-01 BMatC= 4.92D-08 BMatP= 1.45D-07
 IDIUse=1 WtCom= 1.00D+00 WtEn= 0.00D+00
 Coeff-Com: -0.205D-03 0.262D-03 0.848D-03-0.430D-03 0.607D-02 0.441D-01
 Coeff-Com:  0.426D-02-0.150D+00-0.309D+00 0.877D-01 0.132D+01
 Coeff:     -0.205D-03 0.262D-03 0.848D-03-0.430D-03 0.607D-02 0.441D-01
 Coeff:      0.426D-02-0.150D+00-0.309D+00 0.877D-01 0.132D+01
 Gap=     0.042 Goal=   None    Shift=    0.000
 Gap=     0.034 Goal=   None    Shift=    0.000
 RMSDP=5.46D-05 MaxDP=4.21D-03 DE=-1.18D-06 OVMax= 4.37D-03

 Cycle  12  Pass 1  IDiag  1:
 E= -1136.12015263175     Delta-E=       -0.000000751421 Rises=F Damp=F
 DIIS: error= 9.16D-06 at cycle  12 NSaved=  12.
 NSaved=12 IEnMin=12 EnMin= -1136.12015263175     IErMin=12 ErrMin= 9.16D-06
 ErrMax= 9.16D-06  0.00D+00 EMaxC= 1.00D-01 BMatC= 1.68D-08 BMatP= 4.92D-08
 IDIUse=1 WtCom= 1.00D+00 WtEn= 0.00D+00
 Coeff-Com: -0.128D-04 0.299D-05-0.150D-02-0.171D-02 0.481D-03 0.223D-01
 Coeff-Com:  0.166D-01 0.212D-01-0.181D+00-0.249D+00 0.199D+00 0.117D+01
 Coeff:     -0.128D-04 0.299D-05-0.150D-02-0.171D-02 0.481D-03 0.223D-01
 Coeff:      0.166D-01 0.212D-01-0.181D+00-0.249D+00 0.199D+00 0.117D+01
 Gap=     0.042 Goal=   None    Shift=    0.000
 Gap=     0.034 Goal=   None    Shift=    0.000
 RMSDP=3.71D-05 MaxDP=2.36D-03 DE=-7.51D-07 OVMax= 2.79D-03

 Cycle  13  Pass 1  IDiag  1:
 E= -1136.12015289654     Delta-E=       -0.000000264782 Rises=F Damp=F
 DIIS: error= 5.14D-06 at cycle  13 NSaved=  13.
 NSaved=13 IEnMin=13 EnMin= -1136.12015289654     IErMin=13 ErrMin= 5.14D-06
 ErrMax= 5.14D-06  0.00D+00 EMaxC= 1.00D-01 BMatC= 5.62D-09 BMatP= 1.68D-08
 IDIUse=1 WtCom= 1.00D+00 WtEn= 0.00D+00
 Coeff-Com:  0.110D-03-0.146D-03-0.703D-03-0.254D-03-0.297D-02-0.172D-01
 Coeff-Com:  0.272D-02 0.103D+00 0.323D-01-0.140D+00-0.397D+00 0.305D+00
 Coeff-Com:  0.112D+01
 Coeff:      0.110D-03-0.146D-03-0.703D-03-0.254D-03-0.297D-02-0.172D-01
 Coeff:      0.272D-02 0.103D+00 0.323D-01-0.140D+00-0.397D+00 0.305D+00
 Coeff:      0.112D+01
 Gap=     0.042 Goal=   None    Shift=    0.000
 Gap=     0.034 Goal=   None    Shift=    0.000
 RMSDP=3.25D-05 MaxDP=2.38D-03 DE=-2.65D-07 OVMax= 1.74D-03

 Cycle  14  Pass 1  IDiag  1:
 E= -1136.12015298819     Delta-E=       -0.000000091655 Rises=F Damp=F
 DIIS: error= 3.44D-06 at cycle  14 NSaved=  14.
 NSaved=14 IEnMin=14 EnMin= -1136.12015298819     IErMin=14 ErrMin= 3.44D-06
 ErrMax= 3.44D-06  0.00D+00 EMaxC= 1.00D-01 BMatC= 1.56D-09 BMatP= 5.62D-09
 IDIUse=1 WtCom= 1.00D+00 WtEn= 0.00D+00
 Coeff-Com:  0.230D-04-0.261D-04 0.293D-03 0.382D-03-0.586D-03-0.864D-02
 Coeff-Com: -0.715D-02 0.539D-02 0.476D-01 0.967D-01-0.397D-01-0.464D+00
 Coeff-Com: -0.134D+00 0.150D+01
 Coeff:      0.230D-04-0.261D-04 0.293D-03 0.382D-03-0.586D-03-0.864D-02
 Coeff:     -0.715D-02 0.539D-02 0.476D-01 0.967D-01-0.397D-01-0.464D+00
 Coeff:     -0.134D+00 0.150D+01
 Gap=     0.042 Goal=   None    Shift=    0.000
 Gap=     0.034 Goal=   None    Shift=    0.000
 RMSDP=3.47D-05 MaxDP=3.15D-03 DE=-9.17D-08 OVMax= 1.08D-03

 Cycle  15  Pass 1  IDiag  1:
 E= -1136.12015301778     Delta-E=       -0.000000029590 Rises=F Damp=F
 DIIS: error= 1.13D-06 at cycle  15 NSaved=  15.
 NSaved=15 IEnMin=15 EnMin= -1136.12015301778     IErMin=15 ErrMin= 1.13D-06
 ErrMax= 1.13D-06  0.00D+00 EMaxC= 1.00D-01 BMatC= 2.27D-10 BMatP= 1.56D-09
 IDIUse=1 WtCom= 1.00D+00 WtEn= 0.00D+00
 Coeff-Com: -0.185D-04 0.244D-04 0.155D-03 0.194D-04 0.543D-03 0.311D-02
 Coeff-Com:  0.637D-03-0.131D-01-0.177D-01 0.236D-02 0.896D-01-0.254D-02
 Coeff-Com: -0.173D+00-0.194D+00 0.130D+01
 Coeff:     -0.185D-04 0.244D-04 0.155D-03 0.194D-04 0.543D-03 0.311D-02
 Coeff:      0.637D-03-0.131D-01-0.177D-01 0.236D-02 0.896D-01-0.254D-02
 Coeff:     -0.173D+00-0.194D+00 0.130D+01
 Gap=     0.042 Goal=   None    Shift=    0.000
 Gap=     0.034 Goal=   None    Shift=    0.000
 RMSDP=1.42D-05 MaxDP=1.42D-03 DE=-2.96D-08 OVMax= 2.84D-04

 Cycle  16  Pass 1  IDiag  1:
 E= -1136.12015302144     Delta-E=       -0.000000003654 Rises=F Damp=F
 DIIS: error= 5.13D-07 at cycle  16 NSaved=  16.
 NSaved=16 IEnMin=16 EnMin= -1136.12015302144     IErMin=16 ErrMin= 5.13D-07
 ErrMax= 5.13D-07  0.00D+00 EMaxC= 1.00D-01 BMatC= 6.61D-11 BMatP= 2.27D-10
 IDIUse=1 WtCom= 1.00D+00 WtEn= 0.00D+00
 Coeff-Com: -0.215D-05 0.182D-05-0.578D-04-0.499D-04 0.719D-04 0.122D-02
 Coeff-Com:  0.116D-02-0.777D-03-0.235D-02-0.166D-01-0.178D-01 0.963D-01
 Coeff-Com:  0.505D-01-0.254D+00-0.172D+00 0.131D+01
 Coeff:     -0.215D-05 0.182D-05-0.578D-04-0.499D-04 0.719D-04 0.122D-02
 Coeff:      0.116D-02-0.777D-03-0.235D-02-0.166D-01-0.178D-01 0.963D-01
 Coeff:      0.505D-01-0.254D+00-0.172D+00 0.131D+01
 Gap=     0.042 Goal=   None    Shift=    0.000
 Gap=     0.034 Goal=   None    Shift=    0.000
 RMSDP=5.88D-06 MaxDP=6.07D-04 DE=-3.65D-09 OVMax= 1.02D-04

 Cycle  17  Pass 1  IDiag  1:
 E= -1136.12015302243     Delta-E=       -0.000000000997 Rises=F Damp=F
 DIIS: error= 2.75D-07 at cycle  17 NSaved=  17.
 NSaved=17 IEnMin=17 EnMin= -1136.12015302243     IErMin=17 ErrMin= 2.75D-07
 ErrMax= 2.75D-07  0.00D+00 EMaxC= 1.00D-01 BMatC= 2.81D-11 BMatP= 6.61D-11
 IDIUse=1 WtCom= 1.00D+00 WtEn= 0.00D+00
 Coeff-Com:  0.647D-05-0.871D-05-0.480D-04-0.340D-06-0.174D-03-0.994D-03
 Coeff-Com: -0.262D-03 0.273D-02 0.701D-02 0.395D-02-0.269D-01-0.971D-02
 Coeff-Com:  0.383D-01 0.101D+00-0.435D+00 0.469D-01 0.127D+01
 Coeff:      0.647D-05-0.871D-05-0.480D-04-0.340D-06-0.174D-03-0.994D-03
 Coeff:     -0.262D-03 0.273D-02 0.701D-02 0.395D-02-0.269D-01-0.971D-02
 Coeff:      0.383D-01 0.101D+00-0.435D+00 0.469D-01 0.127D+01
 Gap=     0.042 Goal=   None    Shift=    0.000
 Gap=     0.034 Goal=   None    Shift=    0.000
 RMSDP=3.05D-06 MaxDP=3.22D-04 DE=-9.97D-10 OVMax= 7.46D-05

 Cycle  18  Pass 1  IDiag  1:
 E= -1136.12015302293     Delta-E=       -0.000000000499 Rises=F Damp=F
 DIIS: error= 2.07D-07 at cycle  18 NSaved=  18.
 NSaved=18 IEnMin=18 EnMin= -1136.12015302293     IErMin=18 ErrMin= 2.07D-07
 ErrMax= 2.07D-07  0.00D+00 EMaxC= 1.00D-01 BMatC= 1.26D-11 BMatP= 2.81D-11
 IDIUse=1 WtCom= 1.00D+00 WtEn= 0.00D+00
 Coeff-Com:  0.105D-05-0.905D-06 0.167D-04 0.156D-04-0.264D-04-0.461D-03
 Coeff-Com: -0.396D-03-0.509D-03 0.240D-02 0.825D-02 0.544D-02-0.445D-01
 Coeff-Com: -0.134D-01 0.112D+00 0.470D-01-0.550D+00 0.462D-01 0.139D+01
 Coeff:      0.105D-05-0.905D-06 0.167D-04 0.156D-04-0.264D-04-0.461D-03
 Coeff:     -0.396D-03-0.509D-03 0.240D-02 0.825D-02 0.544D-02-0.445D-01
 Coeff:     -0.134D-01 0.112D+00 0.470D-01-0.550D+00 0.462D-01 0.139D+01
 Gap=     0.042 Goal=   None    Shift=    0.000
 Gap=     0.034 Goal=   None    Shift=    0.000
 RMSDP=1.85D-06 MaxDP=1.80D-04 DE=-4.99D-10 OVMax= 7.15D-05

 Cycle  19  Pass 1  IDiag  1:
 E= -1136.12015302322     Delta-E=       -0.000000000285 Rises=F Damp=F
 DIIS: error= 1.36D-07 at cycle  19 NSaved=  19.
 NSaved=19 IEnMin=19 EnMin= -1136.12015302322     IErMin=19 ErrMin= 1.36D-07
 ErrMax= 1.36D-07  0.00D+00 EMaxC= 1.00D-01 BMatC= 4.62D-12 BMatP= 1.26D-11
 IDIUse=1 WtCom= 1.00D+00 WtEn= 0.00D+00
 Coeff-Com: -0.471D-05 0.617D-05 0.208D-04-0.130D-05 0.103D-03 0.696D-03
 Coeff-Com:  0.271D-03-0.190D-02-0.413D-02-0.356D-02 0.143D-01 0.113D-01
 Coeff-Com: -0.212D-01-0.596D-01 0.184D+00 0.117D+00-0.654D+00-0.371D+00
 Coeff-Com:  0.179D+01
 Coeff:     -0.471D-05 0.617D-05 0.208D-04-0.130D-05 0.103D-03 0.696D-03
 Coeff:      0.271D-03-0.190D-02-0.413D-02-0.356D-02 0.143D-01 0.113D-01
 Coeff:     -0.212D-01-0.596D-01 0.184D+00 0.117D+00-0.654D+00-0.371D+00
 Coeff:      0.179D+01
 Gap=     0.042 Goal=   None    Shift=    0.000
 Gap=     0.034 Goal=   None    Shift=    0.000
 RMSDP=1.63D-06 MaxDP=1.08D-04 DE=-2.85D-10 OVMax= 6.74D-05

 Cycle  20  Pass 1  IDiag  1:
 E= -1136.12015302338     Delta-E=       -0.000000000161 Rises=F Damp=F
 DIIS: error= 6.58D-08 at cycle  20 NSaved=  20.
 NSaved=20 IEnMin=20 EnMin= -1136.12015302338     IErMin=20 ErrMin= 6.58D-08
 ErrMax= 6.58D-08  0.00D+00 EMaxC= 1.00D-01 BMatC= 9.71D-13 BMatP= 4.62D-12
 IDIUse=1 WtCom= 1.00D+00 WtEn= 0.00D+00
 Coeff-Com:  0.420D-06-0.683D-06-0.507D-05 0.108D-05-0.946D-05-0.210D-04
 Coeff-Com:  0.773D-04 0.463D-03 0.684D-03-0.235D-02-0.629D-02 0.153D-01
 Coeff-Com:  0.978D-02-0.332D-01-0.435D-01 0.177D+00 0.677D-01-0.470D+00
 Coeff-Com: -0.544D-01 0.134D+01
 Coeff:      0.420D-06-0.683D-06-0.507D-05 0.108D-05-0.946D-05-0.210D-04
 Coeff:      0.773D-04 0.463D-03 0.684D-03-0.235D-02-0.629D-02 0.153D-01
 Coeff:      0.978D-02-0.332D-01-0.435D-01 0.177D+00 0.677D-01-0.470D+00
 Coeff:     -0.544D-01 0.134D+01
 Gap=     0.042 Goal=   None    Shift=    0.000
 Gap=     0.034 Goal=   None    Shift=    0.000
 RMSDP=6.64D-07 MaxDP=3.60D-05 DE=-1.61D-10 OVMax= 2.80D-05

 Cycle  21  Pass 1  IDiag  1:
 E= -1136.12015302339     Delta-E=       -0.000000000013 Rises=F Damp=F
 DIIS: error= 2.06D-08 at cycle  21 NSaved=  20.
 NSaved=20 IEnMin=20 EnMin= -1136.12015302339     IErMin=20 ErrMin= 2.06D-08
 ErrMax= 2.06D-08  0.00D+00 EMaxC= 1.00D-01 BMatC= 1.58D-13 BMatP= 9.71D-13
 IDIUse=1 WtCom= 1.00D+00 WtEn= 0.00D+00
 Coeff-Com:  0.783D-07-0.601D-05-0.349D-05-0.942D-05-0.381D-04-0.366D-05
 Coeff-Com:  0.194D-03 0.245D-03 0.359D-03-0.105D-02-0.878D-03 0.211D-02
 Coeff-Com:  0.570D-02-0.251D-01-0.755D-02 0.855D-01 0.802D-01-0.319D+00
 Coeff-Com: -0.247D-01 0.120D+01
 Coeff:      0.783D-07-0.601D-05-0.349D-05-0.942D-05-0.381D-04-0.366D-05
 Coeff:      0.194D-03 0.245D-03 0.359D-03-0.105D-02-0.878D-03 0.211D-02
 Coeff:      0.570D-02-0.251D-01-0.755D-02 0.855D-01 0.802D-01-0.319D+00
 Coeff:     -0.247D-01 0.120D+01
 Gap=     0.042 Goal=   None    Shift=    0.000
 Gap=     0.034 Goal=   None    Shift=    0.000
 RMSDP=2.06D-07 MaxDP=1.22D-05 DE=-1.32D-11 OVMax= 8.03D-06

 Cycle  22  Pass 1  IDiag  1:
 E= -1136.12015302340     Delta-E=       -0.000000000008 Rises=F Damp=F
 DIIS: error= 8.82D-09 at cycle  22 NSaved=  20.
 NSaved=20 IEnMin=20 EnMin= -1136.12015302340     IErMin=20 ErrMin= 8.82D-09
 ErrMax= 8.82D-09  0.00D+00 EMaxC= 1.00D-01 BMatC= 3.50D-14 BMatP= 1.58D-13
 IDIUse=1 WtCom= 1.00D+00 WtEn= 0.00D+00
 Coeff-Com: -0.100D-05-0.102D-05-0.431D-05-0.997D-05-0.181D-04 0.297D-04
 Coeff-Com: -0.507D-04 0.263D-03 0.499D-03-0.221D-02-0.332D-03 0.505D-02
 Coeff-Com:  0.260D-02-0.278D-01-0.266D-02 0.103D+00-0.484D-01-0.247D+00
 Coeff-Com:  0.229D+00 0.989D+00
 Coeff:     -0.100D-05-0.102D-05-0.431D-05-0.997D-05-0.181D-04 0.297D-04
 Coeff:     -0.507D-04 0.263D-03 0.499D-03-0.221D-02-0.332D-03 0.505D-02
 Coeff:      0.260D-02-0.278D-01-0.266D-02 0.103D+00-0.484D-01-0.247D+00
 Coeff:      0.229D+00 0.989D+00
 Gap=     0.042 Goal=   None    Shift=    0.000
 Gap=     0.034 Goal=   None    Shift=    0.000
 RMSDP=5.64D-08 MaxDP=3.90D-06 DE=-7.73D-12 OVMax= 1.59D-06

 Cycle  23  Pass 1  IDiag  1:
 E= -1136.12015302341     Delta-E=       -0.000000000007 Rises=F Damp=F
 DIIS: error= 3.71D-09 at cycle  23 NSaved=  20.
 NSaved=20 IEnMin=20 EnMin= -1136.12015302341     IErMin=20 ErrMin= 3.71D-09
 ErrMax= 3.71D-09  0.00D+00 EMaxC= 1.00D-01 BMatC= 4.93D-15 BMatP= 3.50D-14
 IDIUse=1 WtCom= 1.00D+00 WtEn= 0.00D+00
 Coeff-Com: -0.412D-06 0.853D-06 0.641D-05 0.234D-05-0.107D-04-0.702D-04
 Coeff-Com: -0.938D-04 0.192D-03 0.671D-04-0.308D-03-0.686D-03 0.495D-02
 Coeff-Com: -0.250D-02-0.160D-01-0.189D-02 0.566D-01-0.336D-01-0.194D+00
 Coeff-Com:  0.145D+00 0.104D+01
 Coeff:     -0.412D-06 0.853D-06 0.641D-05 0.234D-05-0.107D-04-0.702D-04
 Coeff:     -0.938D-04 0.192D-03 0.671D-04-0.308D-03-0.686D-03 0.495D-02
 Coeff:     -0.250D-02-0.160D-01-0.189D-02 0.566D-01-0.336D-01-0.194D+00
 Coeff:      0.145D+00 0.104D+01
 Gap=     0.042 Goal=   None    Shift=    0.000
 Gap=     0.034 Goal=   None    Shift=    0.000
 RMSDP=1.91D-08 MaxDP=1.49D-06 DE=-7.28D-12 OVMax= 5.05D-07

 Cycle  24  Pass 1  IDiag  1:
 E= -1136.12015302338     Delta-E=        0.000000000030 Rises=F Damp=F
 DIIS: error= 1.61D-09 at cycle  24 NSaved=  20.
 NSaved=20 IEnMin=19 EnMin= -1136.12015302341     IErMin=20 ErrMin= 1.61D-09
 ErrMax= 1.61D-09  0.00D+00 EMaxC= 1.00D-01 BMatC= 6.61D-16 BMatP= 4.93D-15
 IDIUse=1 WtCom= 1.00D+00 WtEn= 0.00D+00
 Large coefficients: NSaved= 20 BigCof=    0.00 CofMax=   10.00 Det=-1.57D-15
 Inversion failed.  Reducing to 19 matrices.
 Large coefficients: NSaved= 19 BigCof=    0.00 CofMax=   10.00 Det=-1.57D-15
 Inversion failed.  Reducing to 18 matrices.
 Large coefficients: NSaved= 18 BigCof=    0.00 CofMax=   10.00 Det=-1.64D-15
 Inversion failed.  Reducing to 17 matrices.
 Large coefficients: NSaved= 17 BigCof=    0.00 CofMax=   10.00 Det=-1.64D-15
 Inversion failed.  Reducing to 16 matrices.
 Large coefficients: NSaved= 16 BigCof=    0.00 CofMax=   10.00 Det=-1.69D-15
 Inversion failed.  Reducing to 15 matrices.
 Coeff-Com:  0.792D-05 0.906D-05 0.814D-04-0.104D-03-0.144D-03 0.379D-03
 Coeff-Com:  0.436D-03-0.336D-03-0.583D-02 0.562D-02 0.126D-01-0.266D-01
 Coeff-Com: -0.950D-01 0.287D-01 0.108D+01
 Coeff:      0.792D-05 0.906D-05 0.814D-04-0.104D-03-0.144D-03 0.379D-03
 Coeff:      0.436D-03-0.336D-03-0.583D-02 0.562D-02 0.126D-01-0.266D-01
 Coeff:     -0.950D-01 0.287D-01 0.108D+01
 Gap=     0.042 Goal=   None    Shift=    0.000
 Gap=     0.034 Goal=   None    Shift=    0.000
 RMSDP=8.80D-09 MaxDP=6.33D-07 DE= 2.96D-11 OVMax= 3.55D-07

 SCF Done:  E(UB3LYP) =  -1136.12015302     A.U. after   24 cycles
            NFock= 24  Conv=0.88D-08     -V/T= 2.0027
 <Sx>= 0.0000 <Sy>= 0.0000 <Sz>= 0.5000 <S**2>= 0.7692 S= 0.5095
 <L.S>= 0.000000000000E+00
 KE= 1.133010162277D+03 PE=-3.416993085566D+03 EE= 8.040745350143D+02
 Annihilation of the first spin contaminant:
 S**2 before annihilation     0.7692,   after     0.7502
 Leave Link  502 at Tue Dec  5 12:59:04 2023, MaxMem=  1879048192 cpu:             220.7 elap:              19.8
 (Enter /home/sekinelabo/g16/l601.exe)
 Copying SCF densities to generalized density rwf, IOpCl= 1 IROHF=0.

 **********************************************************************

            Population analysis using the SCF Density.

 **********************************************************************

 Orbital symmetries:
 Alpha Orbitals:
       Occupied  (A) (A) (A) (A) (A) (A) (A) (A) (A) (A) (A) (A)
                 (A) (A) (A) (A) (A) (A) (A) (A) (A) (A) (A) (A)
                 (A) (A) (A) (A) (A) (A) (A) (A) (A) (A) (A) (A)
                 (A) (A) (A)
       Virtual   (A) (A) (A) (A) (A) (A) (A) (A) (A) (A) (A) (A)
                 (A) (A) (A) (A) (A) (A) (A) (A) (A) (A) (A) (A)
                 (A) (A) (A) (A) (A) (A) (A) (A) (A) (A) (A) (A)
                 (A) (A) (A) (A) (A) (A) (A) (A) (A) (A) (A) (A)
                 (A) (A) (A) (A) (A) (A) (A) (A) (A) (A) (A) (A)
                 (A) (A) (A) (A) (A) (A) (A) (A) (A) (A) (A) (A)
                 (A) (A) (A) (A) (A) (A) (A) (A) (A) (A) (A) (A)
                 (A) (A) (A) (A) (A) (A) (A) (A) (A) (A) (A) (A)
                 (A) (A) (A) (A) (A) (A) (A) (A) (A) (A) (A) (A)
                 (A) (A) (A) (A) (A) (A) (A) (A) (A) (A) (A) (A)
                 (A) (A) (A) (A) (A) (A) (A) (A) (A) (A) (A) (A)
                 (A) (A) (A) (A) (A) (A) (A) (A) (A) (A) (A) (A)
                 (A) (A) (A) (A) (A) (A) (A) (A) (A) (A) (A) (A)
                 (A) (A) (A) (A) (A) (A) (A) (A) (A) (A) (A) (A)
                 (A) (A) (A)
 Beta  Orbitals:
       Occupied  (A) (A) (A) (A) (A) (A) (A) (A) (A) (A) (A) (A)
                 (A) (A) (A) (A) (A) (A) (A) (A) (A) (A) (A) (A)
                 (A) (A) (A) (A) (A) (A) (A) (A) (A) (A) (A) (A)
                 (A) (A)
       Virtual   (A) (A) (A) (A) (A) (A) (A) (A) (A) (A) (A) (A)
                 (A) (A) (A) (A) (A) (A) (A) (A) (A) (A) (A) (A)
                 (A) (A) (A) (A) (A) (A) (A) (A) (A) (A) (A) (A)
                 (A) (A) (A) (A) (A) (A) (A) (A) (A) (A) (A) (A)
                 (A) (A) (A) (A) (A) (A) (A) (A) (A) (A) (A) (A)
                 (A) (A) (A) (A) (A) (A) (A) (A) (A) (A) (A) (A)
                 (A) (A) (A) (A) (A) (A) (A) (A) (A) (A) (A) (A)
                 (A) (A) (A) (A) (A) (A) (A) (A) (A) (A) (A) (A)
                 (A) (A) (A) (A) (A) (A) (A) (A) (A) (A) (A) (A)
                 (A) (A) (A) (A) (A) (A) (A) (A) (A) (A) (A) (A)
                 (A) (A) (A) (A) (A) (A) (A) (A) (A) (A) (A) (A)
                 (A) (A) (A) (A) (A) (A) (A) (A) (A) (A) (A) (A)
                 (A) (A) (A) (A) (A) (A) (A) (A) (A) (A) (A) (A)
                 (A) (A) (A) (A) (A) (A) (A) (A) (A) (A) (A) (A)
                 (A) (A) (A) (A)
 The electronic state is 2-A.
 Alpha  occ. eigenvalues --  -38.45074 -38.44519 -38.44168 -38.44023 -38.43717
 Alpha  occ. eigenvalues --  -38.42614 -38.42479  -2.20896  -2.20414  -2.20168
 Alpha  occ. eigenvalues --   -2.19906  -2.19682  -2.18518  -2.18379  -1.14562
 Alpha  occ. eigenvalues --   -1.14536  -1.14520  -1.14110  -1.14062  -1.14028
 Alpha  occ. eigenvalues --   -1.14016  -1.13810  -1.13781  -1.13571  -1.13536
 Alpha  occ. eigenvalues --   -1.13525  -1.13368  -1.13312  -1.13271  -1.12232
 Alpha  occ. eigenvalues --   -1.12185  -1.12158  -1.12069  -1.12050  -1.11976
 Alpha  occ. eigenvalues --   -0.18982  -0.14488  -0.11289  -0.10988
 Alpha virt. eigenvalues --   -0.06810  -0.04834  -0.04738  -0.03101  -0.02704
 Alpha virt. eigenvalues --   -0.02272  -0.02141  -0.01229  -0.00675  -0.00043
 Alpha virt. eigenvalues --    0.00091   0.00368   0.00405   0.00768   0.00797
 Alpha virt. eigenvalues --    0.00829   0.00926   0.01050   0.01181   0.01469
 Alpha virt. eigenvalues --    0.01526   0.01670   0.01799   0.01972   0.02020
 Alpha virt. eigenvalues --    0.02163   0.02447   0.02560   0.02670   0.02727
 Alpha virt. eigenvalues --    0.02791   0.02825   0.02855   0.02904   0.02974
 Alpha virt. eigenvalues --    0.03084   0.03290   0.03349   0.03775   0.04010
 Alpha virt. eigenvalues --    0.04102   0.04116   0.04565   0.04684   0.04988
 Alpha virt. eigenvalues --    0.05136   0.05337   0.05396   0.05489   0.05730
 Alpha virt. eigenvalues --    0.05982   0.06292   0.06520   0.06899   0.07362
 Alpha virt. eigenvalues --    0.07483   0.07591   0.07846   0.08708   0.08943
 Alpha virt. eigenvalues --    0.09312   0.09631   0.10723   0.11191   0.11579
 Alpha virt. eigenvalues --    0.11643   0.11887   0.12676   0.12805   0.13160
 Alpha virt. eigenvalues --    0.13291   0.13563   0.14142   0.14268   0.14544
 Alpha virt. eigenvalues --    0.15124   0.15775   0.16001   0.16733   0.17083
 Alpha virt. eigenvalues --    0.25083   0.26157   0.27527   0.27707   0.28418
 Alpha virt. eigenvalues --    0.30425   0.30865   0.32024   0.32111   0.32948
 Alpha virt. eigenvalues --    0.34581   0.35138   0.36095   0.37023   0.37502
 Alpha virt. eigenvalues --    0.38915   0.40299   0.40438   0.40895   0.42444
 Alpha virt. eigenvalues --    0.42843   0.43420   0.43991   0.44359   0.44738
 Alpha virt. eigenvalues --    0.44965   0.45159   0.45565   0.45861   0.45951
 Alpha virt. eigenvalues --    0.47417   0.47725   0.48059   0.48877   0.49097
 Alpha virt. eigenvalues --    0.49432   0.49990   0.50502   0.51770   0.52055
 Alpha virt. eigenvalues --    0.53923   0.54152   0.56362   0.56955   0.57487
 Alpha virt. eigenvalues --    0.59267   0.59707   0.60152   0.60347   0.61430
 Alpha virt. eigenvalues --    0.62230   0.63381   0.65571   0.70368   0.71418
 Alpha virt. eigenvalues --    0.79677   2.04171   2.11932   2.18193   2.20575
 Alpha virt. eigenvalues --    2.22544   2.24739   2.26851   4.42725   4.42983
 Alpha virt. eigenvalues --    4.43610   4.44155   4.44504   4.45131   4.45276
 Alpha virt. eigenvalues --    4.46361   4.47557   4.47716   4.48748   4.49358
 Alpha virt. eigenvalues --    4.49999   4.51798   4.53646   4.54647   4.55865
 Alpha virt. eigenvalues --    4.59999   4.61353   4.63218   4.76839  96.23556
 Alpha virt. eigenvalues --   96.33450  96.40881  96.43562  96.46251  96.49372
 Alpha virt. eigenvalues --   96.52576
  Beta  occ. eigenvalues --  -38.45034 -38.44461 -38.44153 -38.43980 -38.43688
  Beta  occ. eigenvalues --  -38.42606 -38.42475  -2.20820  -2.20310  -2.20147
  Beta  occ. eigenvalues --   -2.19827  -2.19635  -2.18505  -2.18376  -1.14512
  Beta  occ. eigenvalues --   -1.14484  -1.14471  -1.14040  -1.13978  -1.13958
  Beta  occ. eigenvalues --   -1.13955  -1.13796  -1.13765  -1.13512  -1.13488
  Beta  occ. eigenvalues --   -1.13469  -1.13338  -1.13280  -1.13198  -1.12228
  Beta  occ. eigenvalues --   -1.12169  -1.12143  -1.12069  -1.12032  -1.11967
  Beta  occ. eigenvalues --   -0.18277  -0.14097  -0.10848
  Beta virt. eigenvalues --   -0.07459  -0.06491  -0.04677  -0.04227  -0.02980
  Beta virt. eigenvalues --   -0.02434  -0.01639  -0.01528  -0.00738  -0.00586
  Beta virt. eigenvalues --    0.00066   0.00162   0.00441   0.00480   0.00798
  Beta virt. eigenvalues --    0.00880   0.00912   0.01000   0.01112   0.01248
  Beta virt. eigenvalues --    0.01596   0.01639   0.01788   0.01876   0.02044
  Beta virt. eigenvalues --    0.02053   0.02246   0.02522   0.02612   0.02680
  Beta virt. eigenvalues --    0.02763   0.02820   0.02882   0.02921   0.02990
  Beta virt. eigenvalues --    0.03047   0.03164   0.03315   0.03413   0.03819
  Beta virt. eigenvalues --    0.04132   0.04197   0.04267   0.04661   0.04813
  Beta virt. eigenvalues --    0.05041   0.05284   0.05445   0.05502   0.05630
  Beta virt. eigenvalues --    0.05814   0.06015   0.06418   0.06594   0.06996
  Beta virt. eigenvalues --    0.07484   0.07576   0.07718   0.07933   0.08813
  Beta virt. eigenvalues --    0.09099   0.09510   0.09721   0.11001   0.11435
  Beta virt. eigenvalues --    0.11848   0.11988   0.12042   0.12858   0.12980
  Beta virt. eigenvalues --    0.13320   0.13441   0.13713   0.14354   0.14436
  Beta virt. eigenvalues --    0.14725   0.15315   0.15868   0.16163   0.16873
  Beta virt. eigenvalues --    0.17383   0.25372   0.26308   0.27590   0.28021
  Beta virt. eigenvalues --    0.28726   0.30680   0.31039   0.32299   0.32427
  Beta virt. eigenvalues --    0.33220   0.34887   0.35417   0.36316   0.37380
  Beta virt. eigenvalues --    0.37871   0.39331   0.40554   0.40783   0.41183
  Beta virt. eigenvalues --    0.42766   0.43090   0.43627   0.44199   0.44515
  Beta virt. eigenvalues --    0.44852   0.45070   0.45327   0.45675   0.45996
  Beta virt. eigenvalues --    0.46019   0.47590   0.47887   0.48207   0.49035
  Beta virt. eigenvalues --    0.49220   0.49596   0.50099   0.50664   0.51905
  Beta virt. eigenvalues --    0.52208   0.54072   0.54243   0.56419   0.57029
  Beta virt. eigenvalues --    0.57555   0.59342   0.59827   0.60270   0.60574
  Beta virt. eigenvalues --    0.61600   0.62386   0.63485   0.65681   0.70407
  Beta virt. eigenvalues --    0.71471   0.79701   2.04292   2.12102   2.18316
  Beta virt. eigenvalues --    2.20708   2.22650   2.24809   2.26895   4.42783
  Beta virt. eigenvalues --    4.43042   4.43656   4.44192   4.44545   4.45191
  Beta virt. eigenvalues --    4.45344   4.46425   4.47600   4.47787   4.48804
  Beta virt. eigenvalues --    4.49417   4.50034   4.51825   4.53670   4.54684
  Beta virt. eigenvalues --    4.55911   4.60036   4.61391   4.63229   4.76870
  Beta virt. eigenvalues --   96.23597  96.33506  96.40919  96.43611  96.46282
  Beta virt. eigenvalues --   96.49396  96.52594
          Condensed to atoms (all electrons):
               1          2          3          4          5          6
     1  Na  12.822996   0.841265  -2.731660  -0.178286  -0.436124  -0.640691
     2  Na   0.841265  14.428583  -2.844599  -0.073304   0.057201  -0.720822
     3  Na  -2.731660  -2.844599  16.286494   0.206992  -0.069420   1.191212
     4  Na  -0.178286  -0.073304   0.206992  11.036454  -0.097903   0.022436
     5  Na  -0.436124   0.057201  -0.069420  -0.097903  11.582912  -0.072174
     6  Na  -0.640691  -0.720822   1.191212   0.022436  -0.072174  10.799330
     7  Na   0.577143   0.473989  -1.947277   0.292196   0.134695  -0.088305
               7
     1  Na   0.577143
     2  Na   0.473989
     3  Na  -1.947277
     4  Na   0.292196
     5  Na   0.134695
     6  Na  -0.088305
     7  Na  12.250105
          Atomic-Atomic Spin Densities.
               1          2          3          4          5          6
     1  Na   0.301796   0.246655  -0.275670  -0.083398  -0.130500  -0.023590
     2  Na   0.246655   0.888017  -0.369330   0.099155  -0.608057  -0.098149
     3  Na  -0.275670  -0.369330   0.852486   0.188329   0.169091   0.099543
     4  Na  -0.083398   0.099155   0.188329   0.031956  -0.088023   0.044844
     5  Na  -0.130500  -0.608057   0.169091  -0.088023   0.542343   0.082117
     6  Na  -0.023590  -0.098149   0.099543   0.044844   0.082117   0.100363
     7  Na   0.141630  -0.114406  -0.384830  -0.094239   0.239662  -0.049088
               7
     1  Na   0.141630
     2  Na  -0.114406
     3  Na  -0.384830
     4  Na  -0.094239
     5  Na   0.239662
     6  Na  -0.049088
     7  Na   0.299554
 Mulliken charges and spin densities:
               1          2
     1  Na   0.745357   0.176922
     2  Na  -1.162312   0.043883
     3  Na   0.908258   0.279617
     4  Na  -0.208585   0.098623
     5  Na  -0.099187   0.206632
     6  Na   0.509014   0.156041
     7  Na  -0.692544   0.038282
 Sum of Mulliken charges =  -0.00000   1.00000
 Mulliken charges and spin densities with hydrogens summed into heavy atoms:
               1          2
     1  Na   0.745357   0.176922
     2  Na  -1.162312   0.043883
     3  Na   0.908258   0.279617
     4  Na  -0.208585   0.098623
     5  Na  -0.099187   0.206632
     6  Na   0.509014   0.156041
     7  Na  -0.692544   0.038282
 Electronic spatial extent (au):  <R**2>=           2398.4620
 Charge=             -0.0000 electrons
 Dipole moment (field-independent basis, Debye):
    X=              0.3542    Y=             -0.2998    Z=              0.1695  Tot=              0.4940
 Quadrupole moment (field-independent basis, Debye-Ang):
   XX=            -47.8390   YY=            -79.9632   ZZ=            -65.5951
   XY=              0.3809   XZ=             -3.2529   YZ=             -2.0638
 Traceless Quadrupole moment (field-independent basis, Debye-Ang):
   XX=             16.6267   YY=            -15.4974   ZZ=             -1.1293
   XY=              0.3809   XZ=             -3.2529   YZ=             -2.0638
 Octapole moment (field-independent basis, Debye-Ang**2):
  XXX=             23.2651  YYY=              2.1587  ZZZ=             11.2757  XYY=              0.5870
  XXY=              0.4138  XXZ=            -13.9854  XZZ=             -3.3683  YZZ=             -8.4649
  YYZ=              1.1439  XYZ=             -0.3027
 Hexadecapole moment (field-independent basis, Debye-Ang**3):
 XXXX=          -1912.3720 YYYY=          -1203.3988 ZZZZ=           -737.1384 XXXY=             42.6845
 XXXZ=            -75.5126 YYYX=            -25.4860 YYYZ=            -20.2257 ZZZX=            -50.3426
 ZZZY=            -18.7061 XXYY=           -572.8432 XXZZ=           -450.7393 YYZZ=           -322.7155
 XXYZ=            -11.5557 YYXZ=             22.8259 ZZXY=             10.1899
 N-N= 3.437882352513D+02 E-N=-3.416993085602D+03  KE= 1.133010162277D+03
                          Isotropic Fermi Contact Couplings
        Atom                 a.u.       MegaHertz       Gauss      10(-4) cm-1
     1  Na(23)             0.17673     209.07282      74.60238      69.73918
     2  Na(23)            -0.00258      -3.05079      -1.08860      -1.01764
     3  Na(23)             0.05451      64.48880      23.01121      21.51115
     4  Na(23)             0.00882      10.43969       3.72514       3.48230
     5  Na(23)             0.20691     244.78344      87.34482      81.65097
     6  Na(23)             0.17804     210.62282      75.15546      70.25621
     7  Na(23)            -0.01702     -20.13124      -7.18333      -6.71506
 --------------------------------------------------------
       Center         ----  Spin Dipole Couplings  ----
                      3XX-RR        3YY-RR        3ZZ-RR
 --------------------------------------------------------
     1   Atom       -0.003021      0.004442     -0.001421
     2   Atom       -0.023013     -0.023482      0.046495
     3   Atom        0.031184     -0.025629     -0.005554
     4   Atom       -0.008199     -0.010952      0.019151
     5   Atom        0.024474     -0.006842     -0.017632
     6   Atom       -0.001434      0.001290      0.000144
     7   Atom       -0.001905     -0.008562      0.010467
 --------------------------------------------------------
                        XY            XZ            YZ
 --------------------------------------------------------
     1   Atom        0.003633     -0.009761     -0.005913
     2   Atom       -0.005120      0.023978     -0.014227
     3   Atom       -0.004933     -0.036906      0.004342
     4   Atom        0.000041      0.015365      0.008346
     5   Atom       -0.007261      0.009624     -0.001227
     6   Atom       -0.002096      0.004046      0.001316
     7   Atom        0.012080     -0.019007     -0.012179
 --------------------------------------------------------


 ---------------------------------------------------------------------------------
              Anisotropic Spin Dipole Couplings in Principal Axis System
 ---------------------------------------------------------------------------------

       Atom             a.u.   MegaHertz   Gauss  10(-4) cm-1        Axes

              Baa    -0.0121    -1.714    -0.612    -0.572  0.7100  0.0933  0.6980
     1 Na(23) Bbb    -0.0009    -0.125    -0.045    -0.042 -0.4916  0.7754  0.3963
              Bcc     0.0130     1.839     0.656     0.613  0.5043  0.6245 -0.5964
 
              Baa    -0.0306    -4.318    -1.541    -1.440  0.9518  0.1477 -0.2688
     2 Na(23) Bbb    -0.0262    -3.704    -1.322    -1.235 -0.0888  0.9716  0.2194
              Bcc     0.0568     8.022     2.862     2.676  0.2936 -0.1849  0.9379
 
              Baa    -0.0289    -4.074    -1.454    -1.359  0.4633 -0.3736  0.8036
     3 Na(23) Bbb    -0.0257    -3.631    -1.296    -1.211  0.2611  0.9241  0.2790
              Bcc     0.0546     7.705     2.749     2.570  0.8468 -0.0805 -0.5257
 
              Baa    -0.0174    -2.450    -0.874    -0.817  0.7152  0.5529 -0.4275
     4 Na(23) Bbb    -0.0102    -1.443    -0.515    -0.481 -0.5818  0.8099  0.0742
              Bcc     0.0276     3.893     1.389     1.299  0.3873  0.1956  0.9010
 
              Baa    -0.0197    -2.787    -0.995    -0.930 -0.2172 -0.0295  0.9757
     5 Na(23) Bbb    -0.0084    -1.183    -0.422    -0.395  0.1948  0.9781  0.0729
              Bcc     0.0281     3.971     1.417     1.324  0.9565 -0.2059  0.2067
 
              Baa    -0.0056    -0.796    -0.284    -0.266  0.7347  0.3344 -0.5902
     6 Na(23) Bbb     0.0021     0.296     0.106     0.099 -0.1199  0.9204  0.3721
              Bcc     0.0035     0.500     0.179     0.167  0.6677 -0.2027  0.7164
 
              Baa    -0.0181    -2.563    -0.914    -0.855  0.7256 -0.6578  0.2020
     7 Na(23) Bbb    -0.0133    -1.882    -0.672    -0.628  0.4024  0.6437  0.6509
              Bcc     0.0315     4.445     1.586     1.483 -0.5582 -0.3910  0.7318
 

 ---------------------------------------------------------------------------------

 No NMR shielding tensors so no spin-rotation constants.
 Leave Link  601 at Tue Dec  5 12:59:04 2023, MaxMem=  1879048192 cpu:               2.3 elap:               0.2
 (Enter /home/sekinelabo/g16/l701.exe)
 ... and contract with generalized density number  0.
 Compute integral first derivatives.
 Leave Link  701 at Tue Dec  5 12:59:04 2023, MaxMem=  1879048192 cpu:               1.5 elap:               0.1
 (Enter /home/sekinelabo/g16/l702.exe)
 L702 exits ... SP integral derivatives will be done elsewhere.
 Leave Link  702 at Tue Dec  5 12:59:04 2023, MaxMem=  1879048192 cpu:               0.4 elap:               0.0
 (Enter /home/sekinelabo/g16/l703.exe)
 Integral derivatives from FoFJK, PRISM(SPDF).
 Compute integral first derivatives, UseDBF=F ICtDFT=           0.
 Calling FoFJK, ICntrl=      2127 FMM=F ISym2X=0 I1Cent= 0 IOpClX= 1 NMat=1 NMatS=1 NMatT=0.
 FoFJK:  IHMeth= 1 ICntrl=    2127 DoSepK=F KAlg= 0 I1Cent=           0 FoldK=F
 IRaf=         0 NMat=       1 IRICut=       1 DoRegI=T DoRafI=F ISym2E= 0 IDoP0=0 IntGTp=1.
 FoFCou: FMM=F IPFlag=           0 FMFlag=      100000 FMFlg1=         800
         NFxFlg=           0 DoJE=F BraDBF=F KetDBF=F FulRan=T
         wScrn=  0.000000 ICntrl=      2127 IOpCl=  1 I1Cent=           0 NGrid=           0
         NMat0=    1 NMatS0=      1 NMatT0=    0 NMatD0=    1 NMtDS0=    0 NMtDT0=    0
 Symmetry not used in FoFCou.
 Leave Link  703 at Tue Dec  5 12:59:07 2023, MaxMem=  1879048192 cpu:              33.7 elap:               2.3
 (Enter /home/sekinelabo/g16/l716.exe)
 Dipole        = 1.39352904D-01-1.17949744D-01 6.66765513D-02
 ***** Axes restored to original set *****
 -------------------------------------------------------------------
 Center     Atomic                   Forces (Hartrees/Bohr)
 Number     Number              X              Y              Z
 -------------------------------------------------------------------
      1       11          -0.003167246    0.002012953    0.001560082
      2       11          -0.003519378   -0.002279829    0.006303932
      3       11           0.006923557    0.007709246   -0.004030038
      4       11          -0.001538673   -0.003735077   -0.001945779
      5       11           0.002614070   -0.000029725    0.000205013
      6       11          -0.002210835   -0.000557286    0.000716361
      7       11           0.000898505   -0.003120283   -0.002809571
 -------------------------------------------------------------------
 Cartesian Forces:  Max     0.007709246 RMS     0.003440509
 Z-matrix is all fixed cartesians, so copy forces.
 Force constants in Cartesian coordinates: 
                1             2             3             4             5 
      1  0.730560D-01
      2 -0.101620D-01  0.462450D-01
      3 -0.976948D-02  0.664815D-02  0.511239D-01
      4 -0.365935D-01  0.136923D-02 -0.249700D-01  0.135275D+00
      5  0.621071D-02 -0.227582D-01  0.329388D-02  0.686587D-03  0.107788D+00
      6  0.108606D-01 -0.519119D-02 -0.316602D-01  0.392480D-02 -0.564874D-03
      7 -0.320708D-02 -0.283958D-02  0.833126D-03 -0.455436D-01 -0.126173D-01
      8  0.640485D-03  0.737811D-02 -0.172646D-02 -0.363141D-02 -0.362538D-01
      9  0.223291D-02 -0.197717D-02  0.862070D-02  0.260645D-01  0.199180D-01
     10 -0.152571D-01  0.160237D-01  0.107285D-01 -0.159778D-01 -0.768504D-02
     11 -0.111472D-01 -0.211002D-01 -0.634346D-02 -0.312578D-02 -0.155824D-01
     12 -0.431161D-02 -0.137675D-01 -0.117349D-01 -0.113381D-01 -0.178792D-01
     13 -0.164295D-01 -0.113685D-01  0.187849D-01 -0.142214D-01  0.400733D-02
     14  0.975109D-02 -0.145712D-01 -0.171079D-02 -0.118299D-03 -0.201403D-01
     15 -0.407341D-02  0.147633D-01 -0.231749D-01 -0.413127D-02  0.200528D-01
     16 -0.114093D-04  0.180585D-03  0.858148D-04 -0.610938D-02  0.553699D-02
     17  0.160288D-04  0.400162D-03  0.356048D-03  0.232384D-02  0.354677D-03
     18  0.352297D-04  0.558736D-03  0.514282D-03  0.391421D-02 -0.479651D-02
     19 -0.155738D-02  0.679654D-02  0.430707D-02 -0.168289D-01  0.386071D-02
     20  0.469087D-02  0.440630D-02 -0.517360D-03  0.249583D-02 -0.134086D-01
     21  0.502573D-02 -0.103435D-02  0.631114D-02  0.653588D-02 -0.200241D-01
                6             7             8             9            10 
      6  0.170580D+00
      7 -0.337056D-02  0.107156D+00
      8  0.415678D-03  0.228497D-01  0.112907D+00
      9 -0.455814D-01  0.365356D-02 -0.103025D-01  0.735090D-01
     10  0.152097D-02 -0.219612D-02 -0.786013D-02 -0.328528D-02  0.866527D-01
     11  0.433212D-02 -0.729844D-02  0.309278D-02 -0.168917D-02  0.157572D-01
     12 -0.253610D-01 -0.227962D-02 -0.732248D-03  0.716601D-02  0.506148D-02
     13 -0.133290D-02 -0.193196D-01  0.117209D-01 -0.170579D-01 -0.150228D-01
     14 -0.318954D-02 -0.173449D-01 -0.227951D-01 -0.616936D-02  0.284678D-02
     15 -0.390985D-01  0.453654D-02  0.967465D-02 -0.168722D-01 -0.595550D-02
     16 -0.526385D-02 -0.155668D-01 -0.120758D-01 -0.258537D-02 -0.152030D-03
     17  0.539422D-03  0.853274D-02 -0.314922D-01  0.146180D-01 -0.121917D-03
     18  0.236581D-02 -0.754010D-02  0.150975D-02 -0.135084D-01 -0.132510D-03
     19 -0.633909D-02 -0.213230D-01 -0.116437D-01 -0.902236D-02 -0.380468D-01
     20  0.365837D-02  0.871775D-02 -0.328366D-01 -0.143978D-01 -0.189606D-01
     21 -0.312449D-01  0.416706D-02  0.116113D-02 -0.133336D-01 -0.793770D-02
               11            12            13            14            15 
     11  0.927813D-01
     12  0.198738D-01  0.625047D-01
     13 -0.118740D-01  0.522574D-02  0.724066D-01
     14 -0.297225D-01  0.210828D-01 -0.313779D-02  0.101845D+00
     15 -0.787383D-02 -0.115389D-01  0.409423D-02 -0.283068D-01  0.100099D+00
     16 -0.504927D-03 -0.523320D-02  0.969028D-03  0.428930D-02 -0.315195D-02
     17  0.106329D-02  0.152791D-03  0.309577D-02  0.608508D-02  0.340014D-02
     18  0.790645D-03  0.415798D-02 -0.162088D-03  0.243976D-02  0.170485D-02
     19  0.181931D-01  0.128753D-01 -0.838228D-02  0.371376D-02  0.868137D-02
     20 -0.305324D-01 -0.873044D-02  0.755630D-02 -0.207014D-01 -0.117102D-01
     21 -0.909009D-02 -0.251939D-01 -0.955198D-02  0.158540D-01 -0.111190D-01
               16            17            18            19            20 
     16  0.332614D-01
     17 -0.651678D-02  0.367846D-01
     18  0.112682D-01 -0.289441D-02  0.285330D-01
     19 -0.123908D-01 -0.732969D-02 -0.738291D-02  0.985291D-01
     20  0.909064D-02 -0.131956D-01  0.239202D-02 -0.135908D-01  0.106268D+00
     21  0.488038D-02 -0.161720D-01 -0.237675D-01 -0.311937D-02  0.293055D-01
               21 
     21  0.983478D-01
 Leave Link  716 at Tue Dec  5 12:59:07 2023, MaxMem=  1879048192 cpu:               0.4 elap:               0.0
 (Enter /home/sekinelabo/g16/l103.exe)

 GradGradGradGradGradGradGradGradGradGradGradGradGradGradGradGradGradGrad
 Berny optimization.
 Search for a local minimum.
 Step number   1 out of a maximum of    2
 All quantities printed in internal units (Hartrees-Bohrs-Radians)
 Second derivative matrix not updated -- first step.
 ITU=  0
     Eigenvalues ---    0.02738   0.04342   0.05303   0.07554   0.08397
     Eigenvalues ---    0.09709   0.10389   0.11534   0.11786   0.14329
     Eigenvalues ---    0.16374   0.16474   0.18203   0.19537   0.21244
 Angle between quadratic step and forces=  24.82 degrees.
 Linear search not attempted -- first point.
 B after Tr=     0.000000   -0.000000    0.000000
         Rot=    1.000000    0.000000   -0.000000    0.000000 Ang=   0.00 deg.
 Variable       Old X    -DE/DX   Delta X   Delta X   Delta X     New X
                                 (Linear)    (Quad)   (Total)
    X1       16.30888  -0.00317   0.00000  -0.05057  -0.05057  16.25832
    Y1       24.63107   0.00201   0.00000   0.01588   0.01588  24.64695
    Z1       24.16128   0.00156   0.00000   0.02937   0.02937  24.19065
    X2       22.06652  -0.00352   0.00000  -0.00943  -0.00943  22.05709
    Y2       23.61440  -0.00228   0.00000  -0.00419  -0.00419  23.61020
    Z2       25.18835   0.00630   0.00000   0.03360   0.03360  25.22195
    X3       26.72016   0.00692   0.00000   0.05981   0.05981  26.77997
    Y3       25.17512   0.00771   0.00000   0.04460   0.04460  25.21972
    Z3       23.05239  -0.00403   0.00000  -0.02753  -0.02753  23.02486
    X4       18.93846  -0.00154   0.00000  -0.02064  -0.02064  18.91782
    Y4       19.72987  -0.00374   0.00000  -0.04101  -0.04101  19.68887
    Z4       20.68532  -0.00195   0.00000  -0.02324  -0.02324  20.66208
    X5       20.77263   0.00261   0.00000   0.01484   0.01484  20.78747
    Y5       25.92799  -0.00003   0.00000   0.01673   0.01673  25.94472
    Z5       19.55111   0.00021   0.00000  -0.00448  -0.00448  19.54663
    X6       29.29453  -0.00221   0.00000  -0.01439  -0.01439  29.28014
    Y6       20.37125  -0.00056   0.00000  -0.00264  -0.00264  20.36861
    Z6       25.75281   0.00072   0.00000   0.01654   0.01654  25.76935
    X7       24.90168   0.00090   0.00000   0.02038   0.02038  24.92206
    Y7       19.55300  -0.00312   0.00000  -0.02938  -0.02938  19.52361
    Z7       20.61162  -0.00281   0.00000  -0.02426  -0.02426  20.58736
         Item               Value     Threshold  Converged?
 Maximum Force            0.007709     0.000450     NO 
 RMS     Force            0.003441     0.000300     NO 
 Maximum Displacement     0.059810     0.001800     NO 
 RMS     Displacement     0.028247     0.001200     NO 
 Predicted change in Energy=-9.261341D-04
 GradGradGradGradGradGradGradGradGradGradGradGradGradGradGradGradGradGrad

 Leave Link  103 at Tue Dec  5 12:59:07 2023, MaxMem=  1879048192 cpu:               0.2 elap:               0.0
 (Enter /home/sekinelabo/g16/l9999.exe)
 1\1\GINC-SEKINELABO-XA7R-R37\Force\UB3LYP\6-311+G(d)\Na7(2)\SEKINELABO
 \05-Dec-2023\0\\#P B3LYP/6-311+g(d) force\\DPGEN\\0,2\Na,8.63029,13.03
 42,12.7856\Na,11.6771,12.4962,13.3291\Na,14.1397,13.3221,12.1988\Na,10
 .0218,10.4406,10.9462\Na,10.9924,13.7205,10.346\Na,15.502,10.78,13.627
 8\Na,13.1774,10.347,10.9072\\Version=ES64L-G16RevB.01\State=2-A\HF=-11
 36.120153\S2=0.769161\S2-1=0.\S2A=0.750217\RMSD=8.797e-09\RMSF=3.441e-
 03\Dipole=0.1644546,0.1010677,0.0227409\Quadrupole=9.8763283,-6.850120
 6,-3.0262077,-4.4427158,3.6846519,-6.4258276\PG=C01 [X(Na7)]\\@


 TELEVISION IS CALLED A MEDIUM BECAUSE IT ISN'T
 RARE, AND IT ISN'T WELL DONE.
 Job cpu time:       0 days  0 hours  4 minutes 30.4 seconds.
 Elapsed time:       0 days  0 hours  0 minutes 23.1 seconds.
 File lengths (MBytes):  RWF=     32 Int=      0 D2E=      0 Chk=      4 Scr=      1
 Normal termination of Gaussian 16 at Tue Dec  5 12:59:07 2023.
