 Set GAUSS_MDEF to "14GB".
 Entering Gaussian System, Link 0=g16
 Initial command:
 /home/sekinelabo/g16/l1.exe "/home/sekinelabo/g16temp/Gau-639979.inp" -scrdir="/home/sekinelabo/g16temp/"
 Entering Link 1 = /home/sekinelabo/g16/l1.exe PID=    639981.
  
 Copyright (c) 1988-2017, Gaussian, Inc.  All Rights Reserved.
  
 This is part of the Gaussian(R) 16 program.  It is based on
 the Gaussian(R) 09 system (copyright 2009, Gaussian, Inc.),
 the Gaussian(R) 03 system (copyright 2003, Gaussian, Inc.),
 the Gaussian(R) 98 system (copyright 1998, Gaussian, Inc.),
 the Gaussian(R) 94 system (copyright 1995, Gaussian, Inc.),
 the Gaussian 92(TM) system (copyright 1992, Gaussian, Inc.),
 the Gaussian 90(TM) system (copyright 1990, Gaussian, Inc.),
 the Gaussian 88(TM) system (copyright 1988, Gaussian, Inc.),
 the Gaussian 86(TM) system (copyright 1986, Carnegie Mellon
 University), and the Gaussian 82(TM) system (copyright 1983,
 Carnegie Mellon University). Gaussian is a federally registered
 trademark of Gaussian, Inc.
  
 This software contains proprietary and confidential information,
 including trade secrets, belonging to Gaussian, Inc.
  
 This software is provided under written license and may be
 used, copied, transmitted, or stored only in accord with that
 written license.
  
 The following legend is applicable only to US Government
 contracts under FAR:
  
                    RESTRICTED RIGHTS LEGEND
  
 Use, reproduction and disclosure by the US Government is
 subject to restrictions as set forth in subparagraphs (a)
 and (c) of the Commercial Computer Software - Restricted
 Rights clause in FAR 52.227-19.
  
 Gaussian, Inc.
 340 Quinnipiac St., Bldg. 40, Wallingford CT 06492
  
  
 ---------------------------------------------------------------
 Warning -- This program may not be used in any manner that
 competes with the business of Gaussian, Inc. or will provide
 assistance to any competitor of Gaussian, Inc.  The licensee
 of this program is prohibited from giving any competitor of
 Gaussian, Inc. access to this program.  By using this program,
 the user acknowledges that Gaussian, Inc. is engaged in the
 business of creating and licensing software in the field of
 computational chemistry and represents and warrants to the
 licensee that it is not a competitor of Gaussian, Inc. and that
 it will not use this program in any manner prohibited above.
 ---------------------------------------------------------------
  

 Cite this work as:
 Gaussian 16, Revision B.01,
 M. J. Frisch, G. W. Trucks, H. B. Schlegel, G. E. Scuseria, 
 M. A. Robb, J. R. Cheeseman, G. Scalmani, V. Barone, 
 G. A. Petersson, H. Nakatsuji, X. Li, M. Caricato, A. V. Marenich, 
 J. Bloino, B. G. Janesko, R. Gomperts, B. Mennucci, H. P. Hratchian, 
 J. V. Ortiz, A. F. Izmaylov, J. L. Sonnenberg, D. Williams-Young, 
 F. Ding, F. Lipparini, F. Egidi, J. Goings, B. Peng, A. Petrone, 
 T. Henderson, D. Ranasinghe, V. G. Zakrzewski, J. Gao, N. Rega, 
 G. Zheng, W. Liang, M. Hada, M. Ehara, K. Toyota, R. Fukuda, 
 J. Hasegawa, M. Ishida, T. Nakajima, Y. Honda, O. Kitao, H. Nakai, 
 T. Vreven, K. Throssell, J. A. Montgomery, Jr., J. E. Peralta, 
 F. Ogliaro, M. J. Bearpark, J. J. Heyd, E. N. Brothers, K. N. Kudin, 
 V. N. Staroverov, T. A. Keith, R. Kobayashi, J. Normand, 
 K. Raghavachari, A. P. Rendell, J. C. Burant, S. S. Iyengar, 
 J. Tomasi, M. Cossi, J. M. Millam, M. Klene, C. Adamo, R. Cammi, 
 J. W. Ochterski, R. L. Martin, K. Morokuma, O. Farkas, 
 J. B. Foresman, and D. J. Fox, Gaussian, Inc., Wallingford CT, 2016.
 
 ******************************************
 Gaussian 16:  ES64L-G16RevB.01 20-Dec-2017
                29-Nov-2023 
 ******************************************
 %nproc=15
 Will use up to   15 processors via shared memory.
 -------------------------
 #P B3LYP/6-311+g(d) force
 -------------------------
 1/10=7,30=1,38=1/1,3;
 2/12=2,17=6,18=5,40=1/2;
 3/5=4,6=6,7=11,11=2,25=1,30=1,71=1,74=-5/1,2,3;
 4//1;
 5/5=2,38=5/2;
 6/7=2,8=2,9=2,10=2,28=1/1;
 7/29=1/1,2,3,16;
 1/10=7,30=1/3;
 99//99;
 Leave Link    1 at Wed Nov 29 15:39:14 2023, MaxMem=           0 cpu:               0.3 elap:               0.0
 (Enter /home/sekinelabo/g16/l101.exe)
 -----
 DPGEN
 -----
 Symbolic Z-matrix:
 Charge =  0 Multiplicity = 2
 Na                    11.592    15.4404   15.5113 
 Na                    16.6611   17.2875   12.4628 
 Na                    17.5906   12.9274   16.6221 
 Na                    17.9514   16.1354   15.6483 
 Na                    14.135    17.7106   15.1742 
 Na                    14.1747   12.9109   17.2658 
 Na                    15.3207   15.0133   14.741 
 
 ITRead=  0  0  0  0  0  0  0
 MicOpt= -1 -1 -1 -1 -1 -1 -1
 NAtoms=      7 NQM=        7 NQMF=       0 NMMI=      0 NMMIF=      0
                NMic=       0 NMicF=      0.
                    Isotopes and Nuclear Properties:
 (Nuclear quadrupole moments (NQMom) in fm**2, nuclear magnetic moments (NMagM)
  in nuclear magnetons)

  Atom         1           2           3           4           5           6           7
 IAtWgt=          23          23          23          23          23          23          23
 AtmWgt=  22.9897697  22.9897697  22.9897697  22.9897697  22.9897697  22.9897697  22.9897697
 NucSpn=           3           3           3           3           3           3           3
 AtZEff=  -0.0000000  -0.0000000  -0.0000000  -0.0000000  -0.0000000  -0.0000000  -0.0000000
 NQMom=   10.4000000  10.4000000  10.4000000  10.4000000  10.4000000  10.4000000  10.4000000
 NMagM=    2.2175200   2.2175200   2.2175200   2.2175200   2.2175200   2.2175200   2.2175200
 AtZNuc=  11.0000000  11.0000000  11.0000000  11.0000000  11.0000000  11.0000000  11.0000000
 Leave Link  101 at Wed Nov 29 15:39:15 2023, MaxMem=  1879048192 cpu:               2.4 elap:               0.2
 (Enter /home/sekinelabo/g16/l103.exe)

 GradGradGradGradGradGradGradGradGradGradGradGradGradGradGradGradGradGrad
 Berny optimization.
 Initialization pass.
 Trust Radius=3.00D-01 FncErr=1.00D-07 GrdErr=1.00D-07 EigMax=2.50D+02 EigMin=1.00D-04
 Number of steps in this run=      2 maximum allowed number of steps=      2.
 GradGradGradGradGradGradGradGradGradGradGradGradGradGradGradGradGradGrad

 Leave Link  103 at Wed Nov 29 15:39:15 2023, MaxMem=  1879048192 cpu:               0.2 elap:               0.0
 (Enter /home/sekinelabo/g16/l202.exe)
                          Input orientation:                          
 ---------------------------------------------------------------------
 Center     Atomic      Atomic             Coordinates (Angstroms)
 Number     Number       Type             X           Y           Z
 ---------------------------------------------------------------------
      1         11           0       11.592000   15.440400   15.511300
      2         11           0       16.661100   17.287500   12.462800
      3         11           0       17.590600   12.927400   16.622100
      4         11           0       17.951400   16.135400   15.648300
      5         11           0       14.135000   17.710600   15.174200
      6         11           0       14.174700   12.910900   17.265800
      7         11           0       15.320700   15.013300   14.741000
 ---------------------------------------------------------------------
                    Distance matrix (angstroms):
                    1          2          3          4          5
     1  Na   0.000000
     2  Na   6.196846   0.000000
     3  Na   6.597897   6.097066   0.000000
     4  Na   6.398731   3.624861   3.371903   0.000000
     5  Na   3.425535   3.729864   6.075902   4.155831   0.000000
     6  Na   4.018330   6.957415   3.476060   5.222755   5.235789
     7  Na   3.831316   3.486955   3.611366   3.000481   2.978082
                    6          7
     6  Na   0.000000
     7  Na   3.479658   0.000000
 Stoichiometry    Na7(2)
 Framework group  C1[X(Na7)]
 Deg. of freedom    15
 Full point group                 C1      NOp   1
 Largest Abelian subgroup         C1      NOp   1
 Largest concise Abelian subgroup C1      NOp   1
                         Standard orientation:                         
 ---------------------------------------------------------------------
 Center     Atomic      Atomic             Coordinates (Angstroms)
 Number     Number       Type             X           Y           Z
 ---------------------------------------------------------------------
      1         11           0       -1.720653    3.334888   -0.223876
      2         11           0        3.573293    0.208687   -0.999704
      3         11           0       -1.377104   -3.253885   -0.176065
      4         11           0        1.540330   -2.034029    0.994514
      5         11           0        1.172335    2.103080    1.135375
      6         11           0       -3.295256   -0.357850   -0.046974
      7         11           0        0.107056   -0.000890   -0.683269
 ---------------------------------------------------------------------
 Rotational constants (GHZ):           0.6414808           0.6094415           0.3506936
 Leave Link  202 at Wed Nov 29 15:39:15 2023, MaxMem=  1879048192 cpu:               0.0 elap:               0.0
 (Enter /home/sekinelabo/g16/l301.exe)
 Standard basis: 6-311+G(d) (5D, 7F)
 Ernie: Thresh=  0.10000D-02 Tol=  0.10000D-05 Strict=F.
 There are   217 symmetry adapted cartesian basis functions of A   symmetry.
 There are   210 symmetry adapted basis functions of A   symmetry.
   210 basis functions,   350 primitive gaussians,   217 cartesian basis functions
    39 alpha electrons       38 beta electrons
       nuclear repulsion energy       321.0994764979 Hartrees.
 IExCor=  402 DFT=T Ex+Corr=B3LYP ExCW=0 ScaHFX=  0.200000
 ScaDFX=  0.800000  0.720000  1.000000  0.810000 ScalE2=  1.000000  1.000000
 IRadAn=      5 IRanWt=     -1 IRanGd=            0 ICorTp=0 IEmpDi=  4
 NAtoms=    7 NActive=    7 NUniq=    7 SFac= 1.00D+00 NAtFMM=   60 NAOKFM=F Big=F
 Integral buffers will be    131072 words long.
 Raffenetti 2 integral format.
 Two-electron integral symmetry is turned on.
 Leave Link  301 at Wed Nov 29 15:39:15 2023, MaxMem=  1879048192 cpu:               0.5 elap:               0.0
 (Enter /home/sekinelabo/g16/l302.exe)
 NPDir=0 NMtPBC=     1 NCelOv=     1 NCel=       1 NClECP=     1 NCelD=      1
         NCelK=      1 NCelE2=     1 NClLst=     1 CellRange=     0.0.
 One-electron integrals computed using PRISM.
 One-electron integral symmetry used in STVInt
 NBasis=   210 RedAO= T EigKep=  5.65D-06  NBF=   210
 NBsUse=   210 1.00D-06 EigRej= -1.00D+00 NBFU=   210
 Precomputing XC quadrature grid using
 IXCGrd= 4 IRadAn=           5 IRanWt=          -1 IRanGd=           0 AccXCQ= 0.00D+00.
 Generated NRdTot=       0 NPtTot=           0 NUsed=           0 NTot=          32
 NSgBfM=   211   211   211   211   211 MxSgAt=     7 MxSgA2=     7.
 Leave Link  302 at Wed Nov 29 15:39:15 2023, MaxMem=  1879048192 cpu:               2.0 elap:               0.1
 (Enter /home/sekinelabo/g16/l303.exe)
 DipDrv:  MaxL=1.
 Leave Link  303 at Wed Nov 29 15:39:15 2023, MaxMem=  1879048192 cpu:               0.5 elap:               0.0
 (Enter /home/sekinelabo/g16/l401.exe)
 ExpMin= 7.60D-03 ExpMax= 3.62D+04 ExpMxC= 1.21D+03 IAcc=3 IRadAn=         5 AccDes= 0.00D+00
 Harris functional with IExCor=  402 and IRadAn=       5 diagonalized for initial guess.
 HarFok:  IExCor=  402 AccDes= 0.00D+00 IRadAn=         5 IDoV= 1 UseB2=F ITyADJ=14
 ICtDFT=  3500011 ScaDFX=  1.000000  1.000000  1.000000  1.000000
 FoFCou: FMM=F IPFlag=           0 FMFlag=      100000 FMFlg1=           0
         NFxFlg=           0 DoJE=T BraDBF=F KetDBF=T FulRan=T
         wScrn=  0.000000 ICntrl=       500 IOpCl=  0 I1Cent=   200000004 NGrid=           0
         NMat0=    1 NMatS0=      1 NMatT0=    0 NMatD0=    1 NMtDS0=    0 NMtDT0=    0
 Petite list used in FoFCou.
 Harris En= -1135.89360920270    
 JPrj=0 DoOrth=F DoCkMO=F.
 Initial guess <Sx>= 0.0000 <Sy>= 0.0000 <Sz>= 0.5000 <S**2>= 0.7500 S= 0.5000
 Leave Link  401 at Wed Nov 29 15:39:15 2023, MaxMem=  1879048192 cpu:               4.4 elap:               0.3
 (Enter /home/sekinelabo/g16/l502.exe)
 Keep R1 and R2 ints in memory in canonical form, NReq=506573321.
 FoFCou: FMM=F IPFlag=           0 FMFlag=           0 FMFlg1=           0
         NFxFlg=           0 DoJE=F BraDBF=F KetDBF=F FulRan=T
         wScrn=  0.000000 ICntrl=       600 IOpCl=  0 I1Cent=           0 NGrid=           0
         NMat0=    1 NMatS0=  22155 NMatT0=    0 NMatD0=    1 NMtDS0=    0 NMtDT0=    0
 Symmetry not used in FoFCou.
 Two-electron integral symmetry not used.
 UHF open shell SCF:
 Using DIIS extrapolation, IDIIS=  1040.
 NGot=  1879048192 LenX=  1388082579 LenY=  1388035049
 Requested convergence on RMS density matrix=1.00D-08 within 128 cycles.
 Requested convergence on MAX density matrix=1.00D-06.
 Requested convergence on             energy=1.00D-06.
 No special actions if energy rises.

 Cycle   1  Pass 1  IDiag  1:
 E= -1136.08943352586    
 DIIS: error= 1.17D-02 at cycle   1 NSaved=   1.
 NSaved= 1 IEnMin= 1 EnMin= -1136.08943352586     IErMin= 1 ErrMin= 1.17D-02
 ErrMax= 1.17D-02  0.00D+00 EMaxC= 1.00D-01 BMatC= 1.90D-01 BMatP= 1.90D-01
 IDIUse=3 WtCom= 8.83D-01 WtEn= 1.17D-01
 Coeff-Com:  0.100D+01
 Coeff-En:   0.100D+01
 Coeff:      0.100D+01
 Gap=     0.031 Goal=   None    Shift=    0.000
 Gap=     0.061 Goal=   None    Shift=    0.000
 GapD=    0.031 DampG=0.250 DampE=0.500 DampFc=0.2500 IDamp=-1.
 Damping current iteration by 2.50D-01
 RMSDP=3.40D-02 MaxDP=2.34D+00              OVMax= 2.37D-01

 Cycle   2  Pass 1  IDiag  1:
 E= -1136.10139155044     Delta-E=       -0.011958024580 Rises=F Damp=T
 DIIS: error= 8.29D-03 at cycle   2 NSaved=   2.
 NSaved= 2 IEnMin= 2 EnMin= -1136.10139155044     IErMin= 2 ErrMin= 8.29D-03
 ErrMax= 8.29D-03  0.00D+00 EMaxC= 1.00D-01 BMatC= 7.22D-02 BMatP= 1.90D-01
 IDIUse=3 WtCom= 9.17D-01 WtEn= 8.29D-02
 Coeff-Com: -0.125D+01 0.225D+01
 Coeff-En:   0.000D+00 0.100D+01
 Coeff:     -0.115D+01 0.215D+01
 Gap=     0.036 Goal=   None    Shift=    0.000
 Gap=     0.068 Goal=   None    Shift=    0.000
 RMSDP=1.19D-02 MaxDP=1.17D+00 DE=-1.20D-02 OVMax= 2.05D-01

 Cycle   3  Pass 1  IDiag  1:
 E= -1136.11945845978     Delta-E=       -0.018066909341 Rises=F Damp=F
 DIIS: error= 2.84D-03 at cycle   3 NSaved=   3.
 NSaved= 3 IEnMin= 3 EnMin= -1136.11945845978     IErMin= 3 ErrMin= 2.84D-03
 ErrMax= 2.84D-03  0.00D+00 EMaxC= 1.00D-01 BMatC= 4.45D-03 BMatP= 7.22D-02
 IDIUse=3 WtCom= 9.72D-01 WtEn= 2.84D-02
 Coeff-Com: -0.301D+00 0.530D+00 0.771D+00
 Coeff-En:   0.000D+00 0.000D+00 0.100D+01
 Coeff:     -0.292D+00 0.515D+00 0.777D+00
 Gap=     0.033 Goal=   None    Shift=    0.000
 Gap=     0.066 Goal=   None    Shift=    0.000
 RMSDP=9.79D-03 MaxDP=6.60D-01 DE=-1.81D-02 OVMax= 1.42D-01

 Cycle   4  Pass 1  IDiag  1:
 E= -1136.11821240398     Delta-E=        0.001246055803 Rises=F Damp=F
 DIIS: error= 3.52D-03 at cycle   4 NSaved=   4.
 NSaved= 4 IEnMin= 3 EnMin= -1136.11945845978     IErMin= 3 ErrMin= 2.84D-03
 ErrMax= 3.52D-03  0.00D+00 EMaxC= 1.00D-01 BMatC= 5.02D-03 BMatP= 4.45D-03
 IDIUse=3 WtCom= 1.44D-01 WtEn= 8.56D-01
 Coeff-Com: -0.846D-02 0.138D-01 0.514D+00 0.481D+00
 Coeff-En:   0.000D+00 0.000D+00 0.549D+00 0.451D+00
 Coeff:     -0.122D-02 0.199D-02 0.544D+00 0.455D+00
 Gap=     0.035 Goal=   None    Shift=    0.000
 Gap=     0.065 Goal=   None    Shift=    0.000
 RMSDP=4.04D-03 MaxDP=2.82D-01 DE= 1.25D-03 OVMax= 8.66D-02

 Cycle   5  Pass 1  IDiag  1:
 E= -1136.12379309690     Delta-E=       -0.005580692913 Rises=F Damp=F
 DIIS: error= 6.42D-04 at cycle   5 NSaved=   5.
 NSaved= 5 IEnMin= 5 EnMin= -1136.12379309690     IErMin= 5 ErrMin= 6.42D-04
 ErrMax= 6.42D-04  0.00D+00 EMaxC= 1.00D-01 BMatC= 1.52D-04 BMatP= 4.45D-03
 IDIUse=3 WtCom= 9.94D-01 WtEn= 6.42D-03
 Coeff-Com:  0.166D-03-0.133D-02 0.293D+00 0.251D+00 0.457D+00
 Coeff-En:   0.000D+00 0.000D+00 0.000D+00 0.000D+00 0.100D+01
 Coeff:      0.165D-03-0.132D-02 0.291D+00 0.250D+00 0.460D+00
 Gap=     0.035 Goal=   None    Shift=    0.000
 Gap=     0.064 Goal=   None    Shift=    0.000
 RMSDP=1.02D-03 MaxDP=7.82D-02 DE=-5.58D-03 OVMax= 1.31D-02

 Cycle   6  Pass 1  IDiag  1:
 E= -1136.12394284971     Delta-E=       -0.000149752812 Rises=F Damp=F
 DIIS: error= 1.40D-04 at cycle   6 NSaved=   6.
 NSaved= 6 IEnMin= 6 EnMin= -1136.12394284971     IErMin= 6 ErrMin= 1.40D-04
 ErrMax= 1.40D-04  0.00D+00 EMaxC= 1.00D-01 BMatC= 5.40D-06 BMatP= 1.52D-04
 IDIUse=3 WtCom= 9.99D-01 WtEn= 1.40D-03
 Coeff-Com: -0.155D-02 0.171D-02-0.483D-01-0.538D-01 0.830D-01 0.102D+01
 Coeff-En:   0.000D+00 0.000D+00 0.000D+00 0.000D+00 0.000D+00 0.100D+01
 Coeff:     -0.155D-02 0.171D-02-0.482D-01-0.537D-01 0.829D-01 0.102D+01
 Gap=     0.035 Goal=   None    Shift=    0.000
 Gap=     0.064 Goal=   None    Shift=    0.000
 RMSDP=5.48D-04 MaxDP=4.08D-02 DE=-1.50D-04 OVMax= 7.64D-03

 Cycle   7  Pass 1  IDiag  1:
 E= -1136.12396117308     Delta-E=       -0.000018323373 Rises=F Damp=F
 DIIS: error= 4.83D-05 at cycle   7 NSaved=   7.
 NSaved= 7 IEnMin= 7 EnMin= -1136.12396117308     IErMin= 7 ErrMin= 4.83D-05
 ErrMax= 4.83D-05  0.00D+00 EMaxC= 1.00D-01 BMatC= 6.74D-07 BMatP= 5.40D-06
 IDIUse=1 WtCom= 1.00D+00 WtEn= 0.00D+00
 Coeff-Com:  0.145D-02-0.187D-02-0.188D-01-0.173D-01-0.424D-01-0.151D+00
 Coeff-Com:  0.123D+01
 Coeff:      0.145D-02-0.187D-02-0.188D-01-0.173D-01-0.424D-01-0.151D+00
 Coeff:      0.123D+01
 Gap=     0.035 Goal=   None    Shift=    0.000
 Gap=     0.064 Goal=   None    Shift=    0.000
 RMSDP=3.06D-04 MaxDP=2.36D-02 DE=-1.83D-05 OVMax= 5.63D-03

 Cycle   8  Pass 1  IDiag  1:
 E= -1136.12396653362     Delta-E=       -0.000005360538 Rises=F Damp=F
 DIIS: error= 2.77D-05 at cycle   8 NSaved=   8.
 NSaved= 8 IEnMin= 8 EnMin= -1136.12396653362     IErMin= 8 ErrMin= 2.77D-05
 ErrMax= 2.77D-05  0.00D+00 EMaxC= 1.00D-01 BMatC= 2.22D-07 BMatP= 6.74D-07
 IDIUse=1 WtCom= 1.00D+00 WtEn= 0.00D+00
 Coeff-Com:  0.124D-02-0.156D-02 0.189D-02 0.328D-02-0.369D-01-0.237D+00
 Coeff-Com:  0.305D+00 0.964D+00
 Coeff:      0.124D-02-0.156D-02 0.189D-02 0.328D-02-0.369D-01-0.237D+00
 Coeff:      0.305D+00 0.964D+00
 Gap=     0.035 Goal=   None    Shift=    0.000
 Gap=     0.064 Goal=   None    Shift=    0.000
 RMSDP=1.66D-04 MaxDP=1.34D-02 DE=-5.36D-06 OVMax= 3.47D-03

 Cycle   9  Pass 1  IDiag  1:
 E= -1136.12396795230     Delta-E=       -0.000001418679 Rises=F Damp=F
 DIIS: error= 2.07D-05 at cycle   9 NSaved=   9.
 NSaved= 9 IEnMin= 9 EnMin= -1136.12396795230     IErMin= 9 ErrMin= 2.07D-05
 ErrMax= 2.07D-05  0.00D+00 EMaxC= 1.00D-01 BMatC= 1.18D-07 BMatP= 2.22D-07
 IDIUse=1 WtCom= 1.00D+00 WtEn= 0.00D+00
 Coeff-Com:  0.553D-03-0.684D-03 0.523D-02 0.498D-02-0.146D-01-0.109D+00
 Coeff-Com: -0.623D-01 0.537D+00 0.639D+00
 Coeff:      0.553D-03-0.684D-03 0.523D-02 0.498D-02-0.146D-01-0.109D+00
 Coeff:     -0.623D-01 0.537D+00 0.639D+00
 Gap=     0.035 Goal=   None    Shift=    0.000
 Gap=     0.064 Goal=   None    Shift=    0.000
 RMSDP=4.66D-05 MaxDP=4.26D-03 DE=-1.42D-06 OVMax= 1.79D-03

 Cycle  10  Pass 1  IDiag  1:
 E= -1136.12396832628     Delta-E=       -0.000000373983 Rises=F Damp=F
 DIIS: error= 1.41D-05 at cycle  10 NSaved=  10.
 NSaved=10 IEnMin=10 EnMin= -1136.12396832628     IErMin=10 ErrMin= 1.41D-05
 ErrMax= 1.41D-05  0.00D+00 EMaxC= 1.00D-01 BMatC= 3.74D-08 BMatP= 1.18D-07
 IDIUse=1 WtCom= 1.00D+00 WtEn= 0.00D+00
 Coeff-Com: -0.737D-04 0.103D-03 0.316D-02 0.172D-02 0.523D-02 0.170D-01
 Coeff-Com: -0.127D+00-0.830D-01 0.352D+00 0.831D+00
 Coeff:     -0.737D-04 0.103D-03 0.316D-02 0.172D-02 0.523D-02 0.170D-01
 Coeff:     -0.127D+00-0.830D-01 0.352D+00 0.831D+00
 Gap=     0.035 Goal=   None    Shift=    0.000
 Gap=     0.064 Goal=   None    Shift=    0.000
 RMSDP=3.13D-05 MaxDP=3.07D-03 DE=-3.74D-07 OVMax= 1.19D-03

 Cycle  11  Pass 1  IDiag  1:
 E= -1136.12396848322     Delta-E=       -0.000000156940 Rises=F Damp=F
 DIIS: error= 4.87D-06 at cycle  11 NSaved=  11.
 NSaved=11 IEnMin=11 EnMin= -1136.12396848322     IErMin=11 ErrMin= 4.87D-06
 ErrMax= 4.87D-06  0.00D+00 EMaxC= 1.00D-01 BMatC= 6.91D-09 BMatP= 3.74D-08
 IDIUse=1 WtCom= 1.00D+00 WtEn= 0.00D+00
 Coeff-Com: -0.182D-03 0.230D-03 0.281D-03-0.571D-03 0.759D-02 0.384D-01
 Coeff-Com: -0.452D-01-0.187D+00-0.790D-02 0.364D+00 0.830D+00
 Coeff:     -0.182D-03 0.230D-03 0.281D-03-0.571D-03 0.759D-02 0.384D-01
 Coeff:     -0.452D-01-0.187D+00-0.790D-02 0.364D+00 0.830D+00
 Gap=     0.035 Goal=   None    Shift=    0.000
 Gap=     0.064 Goal=   None    Shift=    0.000
 RMSDP=1.06D-05 MaxDP=7.93D-04 DE=-1.57D-07 OVMax= 7.62D-04

 Cycle  12  Pass 1  IDiag  1:
 E= -1136.12396851939     Delta-E=       -0.000000036175 Rises=F Damp=F
 DIIS: error= 2.33D-06 at cycle  12 NSaved=  12.
 NSaved=12 IEnMin=12 EnMin= -1136.12396851939     IErMin=12 ErrMin= 2.33D-06
 ErrMax= 2.33D-06  0.00D+00 EMaxC= 1.00D-01 BMatC= 9.44D-10 BMatP= 6.91D-09
 IDIUse=1 WtCom= 1.00D+00 WtEn= 0.00D+00
 Coeff-Com: -0.142D-05-0.389D-05-0.416D-03-0.344D-03 0.685D-03 0.349D-02
 Coeff-Com:  0.134D-01-0.195D-01-0.577D-01-0.119D+00 0.115D+00 0.107D+01
 Coeff:     -0.142D-05-0.389D-05-0.416D-03-0.344D-03 0.685D-03 0.349D-02
 Coeff:      0.134D-01-0.195D-01-0.577D-01-0.119D+00 0.115D+00 0.107D+01
 Gap=     0.035 Goal=   None    Shift=    0.000
 Gap=     0.064 Goal=   None    Shift=    0.000
 RMSDP=4.95D-06 MaxDP=2.78D-04 DE=-3.62D-08 OVMax= 4.27D-04

 Cycle  13  Pass 1  IDiag  1:
 E= -1136.12396852789     Delta-E=       -0.000000008490 Rises=F Damp=F
 DIIS: error= 1.05D-06 at cycle  13 NSaved=  13.
 NSaved=13 IEnMin=13 EnMin= -1136.12396852789     IErMin=13 ErrMin= 1.05D-06
 ErrMax= 1.05D-06  0.00D+00 EMaxC= 1.00D-01 BMatC= 2.26D-10 BMatP= 9.44D-10
 IDIUse=1 WtCom= 1.00D+00 WtEn= 0.00D+00
 Coeff-Com:  0.429D-04-0.567D-04-0.133D-03-0.297D-04-0.113D-02-0.544D-02
 Coeff-Com:  0.110D-01 0.218D-01-0.747D-02-0.872D-01-0.942D-01 0.211D+00
 Coeff-Com:  0.952D+00
 Coeff:      0.429D-04-0.567D-04-0.133D-03-0.297D-04-0.113D-02-0.544D-02
 Coeff:      0.110D-01 0.218D-01-0.747D-02-0.872D-01-0.942D-01 0.211D+00
 Coeff:      0.952D+00
 Gap=     0.035 Goal=   None    Shift=    0.000
 Gap=     0.064 Goal=   None    Shift=    0.000
 RMSDP=2.53D-06 MaxDP=1.84D-04 DE=-8.49D-09 OVMax= 1.73D-04

 Cycle  14  Pass 1  IDiag  1:
 E= -1136.12396852962     Delta-E=       -0.000000001730 Rises=F Damp=F
 DIIS: error= 5.36D-07 at cycle  14 NSaved=  14.
 NSaved=14 IEnMin=14 EnMin= -1136.12396852962     IErMin=14 ErrMin= 5.36D-07
 ErrMax= 5.36D-07  0.00D+00 EMaxC= 1.00D-01 BMatC= 9.66D-11 BMatP= 2.26D-10
 IDIUse=1 WtCom= 1.00D+00 WtEn= 0.00D+00
 Coeff-Com:  0.278D-04-0.355D-04 0.787D-04 0.870D-04-0.711D-03-0.405D-02
 Coeff-Com:  0.297D-02 0.142D-01 0.143D-01-0.121D-01-0.665D-01-0.198D+00
 Coeff-Com:  0.407D+00 0.843D+00
 Coeff:      0.278D-04-0.355D-04 0.787D-04 0.870D-04-0.711D-03-0.405D-02
 Coeff:      0.297D-02 0.142D-01 0.143D-01-0.121D-01-0.665D-01-0.198D+00
 Coeff:      0.407D+00 0.843D+00
 Gap=     0.035 Goal=   None    Shift=    0.000
 Gap=     0.064 Goal=   None    Shift=    0.000
 RMSDP=1.25D-06 MaxDP=6.90D-05 DE=-1.73D-09 OVMax= 8.97D-05

 Cycle  15  Pass 1  IDiag  1:
 E= -1136.12396853019     Delta-E=       -0.000000000578 Rises=F Damp=F
 DIIS: error= 2.48D-07 at cycle  15 NSaved=  15.
 NSaved=15 IEnMin=15 EnMin= -1136.12396853019     IErMin=15 ErrMin= 2.48D-07
 ErrMax= 2.48D-07  0.00D+00 EMaxC= 1.00D-01 BMatC= 2.25D-11 BMatP= 9.66D-11
 IDIUse=1 WtCom= 1.00D+00 WtEn= 0.00D+00
 Coeff-Com: -0.870D-05 0.119D-04 0.825D-04 0.214D-04 0.262D-03 0.909D-03
 Coeff-Com: -0.229D-02-0.827D-02 0.102D-01 0.349D-01 0.203D-01-0.166D+00
 Coeff-Com: -0.212D+00 0.127D+00 0.120D+01
 Coeff:     -0.870D-05 0.119D-04 0.825D-04 0.214D-04 0.262D-03 0.909D-03
 Coeff:     -0.229D-02-0.827D-02 0.102D-01 0.349D-01 0.203D-01-0.166D+00
 Coeff:     -0.212D+00 0.127D+00 0.120D+01
 Gap=     0.035 Goal=   None    Shift=    0.000
 Gap=     0.064 Goal=   None    Shift=    0.000
 RMSDP=1.18D-06 MaxDP=1.17D-04 DE=-5.78D-10 OVMax= 7.02D-05

 Cycle  16  Pass 1  IDiag  1:
 E= -1136.12396853042     Delta-E=       -0.000000000231 Rises=F Damp=F
 DIIS: error= 9.23D-08 at cycle  16 NSaved=  16.
 NSaved=16 IEnMin=16 EnMin= -1136.12396853042     IErMin=16 ErrMin= 9.23D-08
 ErrMax= 9.23D-08  0.00D+00 EMaxC= 1.00D-01 BMatC= 2.68D-12 BMatP= 2.25D-11
 IDIUse=1 WtCom= 1.00D+00 WtEn= 0.00D+00
 Coeff-Com: -0.476D-05 0.603D-05-0.124D-04-0.401D-05 0.713D-04 0.456D-03
 Coeff-Com: -0.175D-04-0.138D-02-0.388D-02-0.497D-02 0.102D-01 0.687D-01
 Coeff-Com: -0.526D-01-0.140D+00-0.207D+00 0.133D+01
 Coeff:     -0.476D-05 0.603D-05-0.124D-04-0.401D-05 0.713D-04 0.456D-03
 Coeff:     -0.175D-04-0.138D-02-0.388D-02-0.497D-02 0.102D-01 0.687D-01
 Coeff:     -0.526D-01-0.140D+00-0.207D+00 0.133D+01
 Gap=     0.035 Goal=   None    Shift=    0.000
 Gap=     0.064 Goal=   None    Shift=    0.000
 RMSDP=5.28D-07 MaxDP=4.96D-05 DE=-2.31D-10 OVMax= 2.62D-05

 Cycle  17  Pass 1  IDiag  1:
 E= -1136.12396853045     Delta-E=       -0.000000000027 Rises=F Damp=F
 DIIS: error= 4.30D-08 at cycle  17 NSaved=  17.
 NSaved=17 IEnMin=17 EnMin= -1136.12396853045     IErMin=17 ErrMin= 4.30D-08
 ErrMax= 4.30D-08  0.00D+00 EMaxC= 1.00D-01 BMatC= 6.32D-13 BMatP= 2.68D-12
 IDIUse=1 WtCom= 1.00D+00 WtEn= 0.00D+00
 Coeff-Com:  0.155D-05-0.216D-05-0.182D-04-0.572D-05-0.419D-04-0.982D-04
 Coeff-Com:  0.219D-03 0.150D-02-0.112D-02-0.640D-02-0.426D-02 0.274D-01
 Coeff-Com:  0.442D-01-0.313D-01-0.223D+00 0.866D-01 0.111D+01
 Coeff:      0.155D-05-0.216D-05-0.182D-04-0.572D-05-0.419D-04-0.982D-04
 Coeff:      0.219D-03 0.150D-02-0.112D-02-0.640D-02-0.426D-02 0.274D-01
 Coeff:      0.442D-01-0.313D-01-0.223D+00 0.866D-01 0.111D+01
 Gap=     0.035 Goal=   None    Shift=    0.000
 Gap=     0.064 Goal=   None    Shift=    0.000
 RMSDP=1.28D-07 MaxDP=4.94D-06 DE=-2.73D-11 OVMax= 1.04D-05

 Cycle  18  Pass 1  IDiag  1:
 E= -1136.12396853046     Delta-E=       -0.000000000005 Rises=F Damp=F
 DIIS: error= 2.10D-08 at cycle  18 NSaved=  18.
 NSaved=18 IEnMin=18 EnMin= -1136.12396853046     IErMin=18 ErrMin= 2.10D-08
 ErrMax= 2.10D-08  0.00D+00 EMaxC= 1.00D-01 BMatC= 1.64D-13 BMatP= 6.32D-13
 IDIUse=1 WtCom= 1.00D+00 WtEn= 0.00D+00
 Coeff-Com:  0.193D-05-0.248D-05-0.160D-05-0.525D-06-0.352D-04-0.176D-03
 Coeff-Com:  0.112D-03 0.761D-03 0.989D-03-0.297D-03-0.403D-02-0.147D-01
 Coeff-Com:  0.289D-01 0.310D-01 0.631D-02-0.365D+00 0.213D+00 0.110D+01
 Coeff:      0.193D-05-0.248D-05-0.160D-05-0.525D-06-0.352D-04-0.176D-03
 Coeff:      0.112D-03 0.761D-03 0.989D-03-0.297D-03-0.403D-02-0.147D-01
 Coeff:      0.289D-01 0.310D-01 0.631D-02-0.365D+00 0.213D+00 0.110D+01
 Gap=     0.035 Goal=   None    Shift=    0.000
 Gap=     0.064 Goal=   None    Shift=    0.000
 RMSDP=7.44D-08 MaxDP=3.14D-06 DE=-4.55D-12 OVMax= 6.35D-06

 Cycle  19  Pass 1  IDiag  1:
 E= -1136.12396853046     Delta-E=        0.000000000000 Rises=F Damp=F
 DIIS: error= 7.66D-09 at cycle  19 NSaved=  19.
 NSaved=19 IEnMin=18 EnMin= -1136.12396853046     IErMin=19 ErrMin= 7.66D-09
 ErrMax= 7.66D-09  0.00D+00 EMaxC= 1.00D-01 BMatC= 2.51D-14 BMatP= 1.64D-13
 IDIUse=1 WtCom= 1.00D+00 WtEn= 0.00D+00
 Coeff-Com: -0.857D-06 0.114D-05 0.225D-05 0.463D-06 0.135D-04 0.746D-04
 Coeff-Com: -0.662D-04-0.497D-03 0.201D-04 0.132D-02 0.191D-02-0.289D-02
 Coeff-Com: -0.131D-01 0.299D-02 0.403D-01 0.398D-01-0.235D+00-0.159D+00
 Coeff-Com:  0.132D+01
 Coeff:     -0.857D-06 0.114D-05 0.225D-05 0.463D-06 0.135D-04 0.746D-04
 Coeff:     -0.662D-04-0.497D-03 0.201D-04 0.132D-02 0.191D-02-0.289D-02
 Coeff:     -0.131D-01 0.299D-02 0.403D-01 0.398D-01-0.235D+00-0.159D+00
 Coeff:      0.132D+01
 Gap=     0.035 Goal=   None    Shift=    0.000
 Gap=     0.064 Goal=   None    Shift=    0.000
 RMSDP=4.88D-08 MaxDP=3.75D-06 DE= 0.00D+00 OVMax= 2.41D-06

 Cycle  20  Pass 1  IDiag  1:
 E= -1136.12396853045     Delta-E=        0.000000000010 Rises=F Damp=F
 DIIS: error= 3.29D-09 at cycle  20 NSaved=  20.
 NSaved=20 IEnMin=18 EnMin= -1136.12396853046     IErMin=20 ErrMin= 3.29D-09
 ErrMax= 3.29D-09  0.00D+00 EMaxC= 1.00D-01 BMatC= 3.55D-15 BMatP= 2.51D-14
 IDIUse=1 WtCom= 1.00D+00 WtEn= 0.00D+00
 Large coefficients: NSaved= 20 BigCof=    0.00 CofMax=   10.00 Det=-4.55D-15
 Inversion failed.  Reducing to 19 matrices.
 Large coefficients: NSaved= 19 BigCof=    0.00 CofMax=   10.00 Det=-6.07D-15
 Inversion failed.  Reducing to 18 matrices.
 Large coefficients: NSaved= 18 BigCof=    0.00 CofMax=   10.00 Det=-6.18D-15
 Inversion failed.  Reducing to 17 matrices.
 Large coefficients: NSaved= 17 BigCof=    0.00 CofMax=   10.00 Det=-6.24D-15
 Inversion failed.  Reducing to 16 matrices.
 Large coefficients: NSaved= 16 BigCof=    0.00 CofMax=   10.00 Det=-6.34D-15
 Inversion failed.  Reducing to 15 matrices.
 Coeff-Com:  0.232D-05-0.692D-06 0.753D-05-0.346D-04-0.168D-03 0.113D-04
 Coeff-Com:  0.133D-02-0.143D-02-0.286D-02-0.366D-02 0.256D-01 0.199D-01
 Coeff-Com: -0.138D+00-0.162D+00 0.126D+01
 Coeff:      0.232D-05-0.692D-06 0.753D-05-0.346D-04-0.168D-03 0.113D-04
 Coeff:      0.133D-02-0.143D-02-0.286D-02-0.366D-02 0.256D-01 0.199D-01
 Coeff:     -0.138D+00-0.162D+00 0.126D+01
 Gap=     0.035 Goal=   None    Shift=    0.000
 Gap=     0.064 Goal=   None    Shift=    0.000
 RMSDP=1.83D-08 MaxDP=1.03D-06 DE= 1.05D-11 OVMax= 9.69D-07

 Cycle  21  Pass 1  IDiag  1:
 E= -1136.12396853045     Delta-E=       -0.000000000007 Rises=F Damp=F
 DIIS: error= 1.13D-09 at cycle  21 NSaved=  16.
 NSaved=16 IEnMin=13 EnMin= -1136.12396853046     IErMin=16 ErrMin= 1.13D-09
 ErrMax= 1.13D-09  0.00D+00 EMaxC= 1.00D-01 BMatC= 7.79D-16 BMatP= 3.55D-15
 IDIUse=1 WtCom= 1.00D+00 WtEn= 0.00D+00
 Large coefficients: NSaved= 16 BigCof=    0.00 CofMax=   10.00 Det=-1.18D-15
 Inversion failed.  Reducing to 15 matrices.
 Coeff-Com: -0.697D-05 0.252D-04-0.153D-04-0.124D-03-0.258D-04 0.617D-03
 Coeff-Com:  0.181D-03-0.124D-02-0.374D-02 0.851D-02 0.165D-01-0.129D-01
 Coeff-Com: -0.191D+00 0.286D+00 0.897D+00
 Coeff:     -0.697D-05 0.252D-04-0.153D-04-0.124D-03-0.258D-04 0.617D-03
 Coeff:      0.181D-03-0.124D-02-0.374D-02 0.851D-02 0.165D-01-0.129D-01
 Coeff:     -0.191D+00 0.286D+00 0.897D+00
 Gap=     0.035 Goal=   None    Shift=    0.000
 Gap=     0.064 Goal=   None    Shift=    0.000
 RMSDP=4.28D-09 MaxDP=3.22D-07 DE=-6.59D-12 OVMax= 2.19D-07

 SCF Done:  E(UB3LYP) =  -1136.12396853     A.U. after   21 cycles
            NFock= 21  Conv=0.43D-08     -V/T= 2.0028
 <Sx>= 0.0000 <Sy>= 0.0000 <Sz>= 0.5000 <S**2>= 0.7750 S= 0.5124
 <L.S>= 0.000000000000E+00
 KE= 1.132924501383D+03 PE=-3.371551289757D+03 EE= 7.814033433452D+02
 Annihilation of the first spin contaminant:
 S**2 before annihilation     0.7750,   after     0.7504
 Leave Link  502 at Wed Nov 29 15:39:32 2023, MaxMem=  1879048192 cpu:             194.1 elap:              17.2
 (Enter /home/sekinelabo/g16/l601.exe)
 Copying SCF densities to generalized density rwf, IOpCl= 1 IROHF=0.

 **********************************************************************

            Population analysis using the SCF Density.

 **********************************************************************

 Orbital symmetries:
 Alpha Orbitals:
       Occupied  (A) (A) (A) (A) (A) (A) (A) (A) (A) (A) (A) (A)
                 (A) (A) (A) (A) (A) (A) (A) (A) (A) (A) (A) (A)
                 (A) (A) (A) (A) (A) (A) (A) (A) (A) (A) (A) (A)
                 (A) (A) (A)
       Virtual   (A) (A) (A) (A) (A) (A) (A) (A) (A) (A) (A) (A)
                 (A) (A) (A) (A) (A) (A) (A) (A) (A) (A) (A) (A)
                 (A) (A) (A) (A) (A) (A) (A) (A) (A) (A) (A) (A)
                 (A) (A) (A) (A) (A) (A) (A) (A) (A) (A) (A) (A)
                 (A) (A) (A) (A) (A) (A) (A) (A) (A) (A) (A) (A)
                 (A) (A) (A) (A) (A) (A) (A) (A) (A) (A) (A) (A)
                 (A) (A) (A) (A) (A) (A) (A) (A) (A) (A) (A) (A)
                 (A) (A) (A) (A) (A) (A) (A) (A) (A) (A) (A) (A)
                 (A) (A) (A) (A) (A) (A) (A) (A) (A) (A) (A) (A)
                 (A) (A) (A) (A) (A) (A) (A) (A) (A) (A) (A) (A)
                 (A) (A) (A) (A) (A) (A) (A) (A) (A) (A) (A) (A)
                 (A) (A) (A) (A) (A) (A) (A) (A) (A) (A) (A) (A)
                 (A) (A) (A) (A) (A) (A) (A) (A) (A) (A) (A) (A)
                 (A) (A) (A) (A) (A) (A) (A) (A) (A) (A) (A) (A)
                 (A) (A) (A)
 Beta  Orbitals:
       Occupied  (A) (A) (A) (A) (A) (A) (A) (A) (A) (A) (A) (A)
                 (A) (A) (A) (A) (A) (A) (A) (A) (A) (A) (A) (A)
                 (A) (A) (A) (A) (A) (A) (A) (A) (A) (A) (A) (A)
                 (A) (A)
       Virtual   (A) (A) (A) (A) (A) (A) (A) (A) (A) (A) (A) (A)
                 (A) (A) (A) (A) (A) (A) (A) (A) (A) (A) (A) (A)
                 (A) (A) (A) (A) (A) (A) (A) (A) (A) (A) (A) (A)
                 (A) (A) (A) (A) (A) (A) (A) (A) (A) (A) (A) (A)
                 (A) (A) (A) (A) (A) (A) (A) (A) (A) (A) (A) (A)
                 (A) (A) (A) (A) (A) (A) (A) (A) (A) (A) (A) (A)
                 (A) (A) (A) (A) (A) (A) (A) (A) (A) (A) (A) (A)
                 (A) (A) (A) (A) (A) (A) (A) (A) (A) (A) (A) (A)
                 (A) (A) (A) (A) (A) (A) (A) (A) (A) (A) (A) (A)
                 (A) (A) (A) (A) (A) (A) (A) (A) (A) (A) (A) (A)
                 (A) (A) (A) (A) (A) (A) (A) (A) (A) (A) (A) (A)
                 (A) (A) (A) (A) (A) (A) (A) (A) (A) (A) (A) (A)
                 (A) (A) (A) (A) (A) (A) (A) (A) (A) (A) (A) (A)
                 (A) (A) (A) (A) (A) (A) (A) (A) (A) (A) (A) (A)
                 (A) (A) (A) (A)
 The electronic state is 2-A.
 Alpha  occ. eigenvalues --  -38.44228 -38.44220 -38.43885 -38.43819 -38.43778
 Alpha  occ. eigenvalues --  -38.43731 -38.43384  -2.20094  -2.20009  -2.19830
 Alpha  occ. eigenvalues --   -2.19713  -2.19675  -2.19547  -2.19232  -1.13887
 Alpha  occ. eigenvalues --   -1.13752  -1.13703  -1.13688  -1.13654  -1.13629
 Alpha  occ. eigenvalues --   -1.13614  -1.13504  -1.13441  -1.13391  -1.13384
 Alpha  occ. eigenvalues --   -1.13361  -1.13329  -1.13307  -1.13248  -1.13210
 Alpha  occ. eigenvalues --   -1.13200  -1.13159  -1.12889  -1.12883  -1.12835
 Alpha  occ. eigenvalues --   -0.17916  -0.13392  -0.13145  -0.09521
 Alpha virt. eigenvalues --   -0.06003  -0.05664  -0.05559  -0.02814  -0.02563
 Alpha virt. eigenvalues --   -0.02052  -0.01813  -0.01355  -0.01126  -0.00812
 Alpha virt. eigenvalues --   -0.00014   0.00252   0.00534   0.00636   0.00708
 Alpha virt. eigenvalues --    0.00733   0.00908   0.00960   0.01295   0.01307
 Alpha virt. eigenvalues --    0.01494   0.01699   0.01735   0.01797   0.02002
 Alpha virt. eigenvalues --    0.02032   0.02188   0.02310   0.02435   0.02676
 Alpha virt. eigenvalues --    0.02759   0.02880   0.02989   0.03043   0.03066
 Alpha virt. eigenvalues --    0.03254   0.03337   0.03355   0.03389   0.03614
 Alpha virt. eigenvalues --    0.03800   0.03987   0.04049   0.04242   0.04520
 Alpha virt. eigenvalues --    0.04689   0.04858   0.04994   0.05339   0.05933
 Alpha virt. eigenvalues --    0.06164   0.06299   0.06404   0.06461   0.07305
 Alpha virt. eigenvalues --    0.07433   0.07690   0.08328   0.08521   0.08624
 Alpha virt. eigenvalues --    0.09038   0.09389   0.09954   0.10323   0.10678
 Alpha virt. eigenvalues --    0.11486   0.11974   0.12186   0.12472   0.12754
 Alpha virt. eigenvalues --    0.13116   0.13275   0.13437   0.13984   0.14099
 Alpha virt. eigenvalues --    0.14290   0.14442   0.15380   0.16610   0.17737
 Alpha virt. eigenvalues --    0.25138   0.26242   0.28403   0.28959   0.30301
 Alpha virt. eigenvalues --    0.30579   0.31200   0.31395   0.32614   0.33263
 Alpha virt. eigenvalues --    0.34024   0.35196   0.35849   0.36690   0.37481
 Alpha virt. eigenvalues --    0.38244   0.40199   0.40904   0.41176   0.41473
 Alpha virt. eigenvalues --    0.42138   0.43181   0.43425   0.43626   0.44051
 Alpha virt. eigenvalues --    0.44266   0.44412   0.45118   0.45400   0.45858
 Alpha virt. eigenvalues --    0.45990   0.46562   0.47005   0.47145   0.47591
 Alpha virt. eigenvalues --    0.47781   0.48725   0.49302   0.49559   0.50257
 Alpha virt. eigenvalues --    0.51492   0.52129   0.52385   0.54083   0.54663
 Alpha virt. eigenvalues --    0.54823   0.55757   0.56430   0.58133   0.59221
 Alpha virt. eigenvalues --    0.60804   0.61856   0.63675   0.65381   0.72595
 Alpha virt. eigenvalues --    0.75401   2.04160   2.10494   2.10953   2.15427
 Alpha virt. eigenvalues --    2.18723   2.20320   2.26355   4.43087   4.44120
 Alpha virt. eigenvalues --    4.44384   4.45038   4.45198   4.45607   4.45729
 Alpha virt. eigenvalues --    4.45916   4.46154   4.46628   4.47055   4.47838
 Alpha virt. eigenvalues --    4.47979   4.50688   4.51224   4.52152   4.52957
 Alpha virt. eigenvalues --    4.53424   4.55271   4.67042   4.69537  96.23675
 Alpha virt. eigenvalues --   96.31406  96.32326  96.37203  96.41402  96.43501
 Alpha virt. eigenvalues --   96.51732
  Beta  occ. eigenvalues --  -38.44229 -38.44195 -38.43881 -38.43817 -38.43737
  Beta  occ. eigenvalues --  -38.43686 -38.43313  -2.20048  -2.20013  -2.19829
  Beta  occ. eigenvalues --   -2.19711  -2.19602  -2.19463  -2.19099  -1.13863
  Beta  occ. eigenvalues --   -1.13717  -1.13692  -1.13677  -1.13651  -1.13611
  Beta  occ. eigenvalues --   -1.13591  -1.13493  -1.13440  -1.13394  -1.13370
  Beta  occ. eigenvalues --   -1.13338  -1.13281  -1.13267  -1.13188  -1.13148
  Beta  occ. eigenvalues --   -1.13145  -1.13107  -1.12795  -1.12791  -1.12750
  Beta  occ. eigenvalues --   -0.17557  -0.12894  -0.12710
  Beta virt. eigenvalues --   -0.06276  -0.05784  -0.05359  -0.05288  -0.02327
  Beta virt. eigenvalues --   -0.02220  -0.01823  -0.01668  -0.01095  -0.00881
  Beta virt. eigenvalues --   -0.00455   0.00219   0.00406   0.00654   0.00721
  Beta virt. eigenvalues --    0.00804   0.00866   0.00954   0.01049   0.01383
  Beta virt. eigenvalues --    0.01410   0.01603   0.01832   0.01876   0.01905
  Beta virt. eigenvalues --    0.02108   0.02180   0.02306   0.02388   0.02545
  Beta virt. eigenvalues --    0.02790   0.02798   0.02969   0.03034   0.03053
  Beta virt. eigenvalues --    0.03118   0.03318   0.03363   0.03421   0.03441
  Beta virt. eigenvalues --    0.03730   0.03915   0.04096   0.04256   0.04404
  Beta virt. eigenvalues --    0.04621   0.04798   0.04960   0.05136   0.05431
  Beta virt. eigenvalues --    0.05997   0.06246   0.06334   0.06427   0.06606
  Beta virt. eigenvalues --    0.07414   0.07546   0.07900   0.08498   0.08594
  Beta virt. eigenvalues --    0.08757   0.09028   0.09545   0.10212   0.10570
  Beta virt. eigenvalues --    0.10819   0.11869   0.12058   0.12365   0.12680
  Beta virt. eigenvalues --    0.12961   0.13302   0.13349   0.13733   0.14145
  Beta virt. eigenvalues --    0.14254   0.14461   0.14659   0.15479   0.16945
  Beta virt. eigenvalues --    0.18016   0.25296   0.26321   0.28685   0.29303
  Beta virt. eigenvalues --    0.30558   0.30827   0.31445   0.31752   0.32859
  Beta virt. eigenvalues --    0.33423   0.34251   0.35428   0.36176   0.37244
  Beta virt. eigenvalues --    0.37613   0.38611   0.40380   0.41117   0.41381
  Beta virt. eigenvalues --    0.41663   0.42315   0.43373   0.43538   0.43756
  Beta virt. eigenvalues --    0.44230   0.44370   0.44524   0.45364   0.45563
  Beta virt. eigenvalues --    0.46007   0.46059   0.46708   0.47117   0.47300
  Beta virt. eigenvalues --    0.47750   0.48075   0.48891   0.49457   0.49596
  Beta virt. eigenvalues --    0.50438   0.51700   0.52311   0.52607   0.54307
  Beta virt. eigenvalues --    0.54906   0.55003   0.55926   0.56482   0.58303
  Beta virt. eigenvalues --    0.59317   0.60871   0.61975   0.63823   0.65535
  Beta virt. eigenvalues --    0.72687   0.75444   2.04249   2.10534   2.11143
  Beta virt. eigenvalues --    2.15598   2.18840   2.20440   2.26382   4.43123
  Beta virt. eigenvalues --    4.44147   4.44413   4.45052   4.45229   4.45614
  Beta virt. eigenvalues --    4.45791   4.45959   4.46247   4.46686   4.47145
  Beta virt. eigenvalues --    4.47864   4.48046   4.50750   4.51276   4.52200
  Beta virt. eigenvalues --    4.52996   4.53456   4.55324   4.67052   4.69559
  Beta virt. eigenvalues --   96.23707  96.31418  96.32390  96.37257  96.41440
  Beta virt. eigenvalues --   96.43542  96.51743
          Condensed to atoms (all electrons):
               1          2          3          4          5          6
     1  Na  10.509403  -0.124639  -0.006951   0.075244   0.111350   0.073921
     2  Na  -0.124639  12.221616   0.067551  -0.299446  -0.326679  -1.359876
     3  Na  -0.006951   0.067551  10.455145   0.056320   0.039755  -0.084822
     4  Na   0.075244  -0.299446   0.056320  11.171048   0.482101   0.279996
     5  Na   0.111350  -0.326679   0.039755   0.482101  11.042669   0.339745
     6  Na   0.073921  -1.359876  -0.084822   0.279996   0.339745  12.371089
     7  Na   0.114656   0.334670   0.215968  -0.767230  -0.701025  -1.029801
               7
     1  Na   0.114656
     2  Na   0.334670
     3  Na   0.215968
     4  Na  -0.767230
     5  Na  -0.701025
     6  Na  -1.029801
     7  Na  14.247415
          Atomic-Atomic Spin Densities.
               1          2          3          4          5          6
     1  Na  -0.002190   0.008552   0.001538   0.014454   0.067128  -0.060193
     2  Na   0.008552   0.110709  -0.005990   0.148398   0.188391   0.305255
     3  Na   0.001538  -0.005990  -0.004893   0.109695   0.029732   0.026056
     4  Na   0.014454   0.148398   0.109695   0.287404   0.065399  -0.409003
     5  Na   0.067128   0.188391   0.029732   0.065399   0.119810  -0.393711
     6  Na  -0.060193   0.305255   0.026056  -0.409003  -0.393711  -0.213291
     7  Na  -0.025015  -0.443385  -0.113319  -0.048797   0.022540   1.051088
               7
     1  Na  -0.025015
     2  Na  -0.443385
     3  Na  -0.113319
     4  Na  -0.048797
     5  Na   0.022540
     6  Na   1.051088
     7  Na  -0.375176
 Mulliken charges and spin densities:
               1          2
     1  Na   0.247017   0.004275
     2  Na   0.486803   0.311930
     3  Na   0.257034   0.042818
     4  Na   0.001967   0.167549
     5  Na   0.012085   0.099289
     6  Na   0.409748   0.306202
     7  Na  -1.414653   0.067936
 Sum of Mulliken charges =  -0.00000   1.00000
 Mulliken charges and spin densities with hydrogens summed into heavy atoms:
               1          2
     1  Na   0.247017   0.004275
     2  Na   0.486803   0.311930
     3  Na   0.257034   0.042818
     4  Na   0.001967   0.167549
     5  Na   0.012085   0.099289
     6  Na   0.409748   0.306202
     7  Na  -1.414653   0.067936
 Electronic spatial extent (au):  <R**2>=           2758.5808
 Charge=             -0.0000 electrons
 Dipole moment (field-independent basis, Debye):
    X=             -0.2409    Y=              0.2310    Z=              0.4915  Tot=              0.5941
 Quadrupole moment (field-independent basis, Debye-Ang):
   XX=            -64.6941   YY=            -59.5260   ZZ=            -72.0169
   XY=             -1.4167   XZ=              2.0659   YZ=              0.1503
 Traceless Quadrupole moment (field-independent basis, Debye-Ang):
   XX=              0.7182   YY=              5.8863   ZZ=             -6.6045
   XY=             -1.4167   XZ=              2.0659   YZ=              0.1503
 Octapole moment (field-independent basis, Debye-Ang**2):
  XXX=             -2.4544  YYY=             -1.8931  ZZZ=              6.7404  XYY=            -26.3447
  XXY=              6.5836  XXZ=             15.4985  XZZ=              5.6259  YZZ=              2.4914
  YYZ=             -9.7931  XYZ=              5.3797
 Hexadecapole moment (field-independent basis, Debye-Ang**3):
 XXXX=          -2189.9214 YYYY=          -1844.5102 ZZZZ=           -541.4489 XXXY=            -35.0887
 XXXZ=            -18.8735 YYYX=            -19.0218 YYYZ=              0.1722 ZZZX=             23.2934
 ZZZY=              6.0122 XXYY=           -640.2623 XXZZ=           -477.8398 YYZZ=           -439.6130
 XXYZ=             -9.7013 YYXZ=             49.7995 ZZXY=              0.0267
 N-N= 3.210994764979D+02 E-N=-3.371551289785D+03  KE= 1.132924501383D+03
                          Isotropic Fermi Contact Couplings
        Atom                 a.u.       MegaHertz       Gauss      10(-4) cm-1
     1  Na(23)            -0.02936     -34.73157     -12.39309     -11.58520
     2  Na(23)             0.31012     366.88076     130.91218     122.37825
     3  Na(23)            -0.03293     -38.95414     -13.89981     -12.99370
     4  Na(23)             0.15145     179.16733      63.93136      59.76379
     5  Na(23)             0.09257     109.51176      39.07652      36.52919
     6  Na(23)             0.19612     232.01529      82.78882      77.39197
     7  Na(23)            -0.01623     -19.19954      -6.85087      -6.40428
 --------------------------------------------------------
       Center         ----  Spin Dipole Couplings  ----
                      3XX-RR        3YY-RR        3ZZ-RR
 --------------------------------------------------------
     1   Atom        0.005569     -0.005355     -0.000214
     2   Atom       -0.003385      0.001060      0.002325
     3   Atom        0.020709     -0.014353     -0.006356
     4   Atom        0.010911     -0.009143     -0.001768
     5   Atom        0.008732     -0.010048      0.001316
     6   Atom       -0.000774     -0.006385      0.007159
     7   Atom       -0.013958     -0.015908      0.029865
 --------------------------------------------------------
                        XY            XZ            YZ
 --------------------------------------------------------
     1   Atom        0.005922      0.012340      0.004214
     2   Atom       -0.000988      0.004614     -0.000451
     3   Atom       -0.011840      0.023001     -0.005822
     4   Atom        0.009085     -0.015428     -0.004229
     5   Atom       -0.001689     -0.014735      0.001569
     6   Atom        0.002428      0.002661      0.001588
     7   Atom        0.000096     -0.006277     -0.004984
 --------------------------------------------------------


 ---------------------------------------------------------------------------------
              Anisotropic Spin Dipole Couplings in Principal Axis System
 ---------------------------------------------------------------------------------

       Atom             a.u.   MegaHertz   Gauss  10(-4) cm-1        Axes

              Baa    -0.0101    -1.419    -0.506    -0.473 -0.6462  0.1420  0.7498
     1 Na(23) Bbb    -0.0076    -1.072    -0.383    -0.358 -0.1421  0.9430 -0.3010
              Bcc     0.0176     2.491     0.889     0.831  0.7498  0.3010  0.5892
 
              Baa    -0.0060    -0.849    -0.303    -0.283  0.8734  0.0915 -0.4783
     2 Na(23) Bbb     0.0009     0.131     0.047     0.044  0.0248  0.9725  0.2315
              Bcc     0.0051     0.718     0.256     0.240  0.4863 -0.2140  0.8472
 
              Baa    -0.0198    -2.798    -0.998    -0.933 -0.5375 -0.3452  0.7693
     3 Na(23) Bbb    -0.0174    -2.459    -0.877    -0.820  0.0254  0.9053  0.4240
              Bcc     0.0372     5.257     1.876     1.753  0.8429 -0.2474  0.4779
 
              Baa    -0.0136    -1.918    -0.684    -0.640 -0.5555  0.6768 -0.4832
     4 Na(23) Bbb    -0.0106    -1.499    -0.535    -0.500  0.2165  0.6787  0.7018
              Bcc     0.0242     3.417     1.219     1.140  0.8029  0.2852 -0.5235
 
              Baa    -0.0104    -1.468    -0.524    -0.490 -0.3618  0.7487 -0.5555
     5 Na(23) Bbb    -0.0100    -1.412    -0.504    -0.471  0.5011  0.6587  0.5613
              Bcc     0.0204     2.880     1.028     0.961  0.7861 -0.0752 -0.6135
 
              Baa    -0.0073    -1.033    -0.369    -0.344 -0.3326  0.9421 -0.0422
     6 Na(23) Bbb    -0.0010    -0.141    -0.050    -0.047  0.8888  0.2982 -0.3479
              Bcc     0.0083     1.174     0.419     0.392  0.3152  0.1533  0.9366
 
              Baa    -0.0166    -2.348    -0.838    -0.783  0.2991  0.9437  0.1415
     7 Na(23) Bbb    -0.0146    -2.068    -0.738    -0.690  0.9443 -0.3140  0.0980
              Bcc     0.0313     4.415     1.575     1.473 -0.1369 -0.1043  0.9851
 

 ---------------------------------------------------------------------------------

 No NMR shielding tensors so no spin-rotation constants.
 Leave Link  601 at Wed Nov 29 15:39:33 2023, MaxMem=  1879048192 cpu:               2.6 elap:               0.2
 (Enter /home/sekinelabo/g16/l701.exe)
 ... and contract with generalized density number  0.
 Compute integral first derivatives.
 Leave Link  701 at Wed Nov 29 15:39:33 2023, MaxMem=  1879048192 cpu:               1.6 elap:               0.1
 (Enter /home/sekinelabo/g16/l702.exe)
 L702 exits ... SP integral derivatives will be done elsewhere.
 Leave Link  702 at Wed Nov 29 15:39:33 2023, MaxMem=  1879048192 cpu:               0.5 elap:               0.0
 (Enter /home/sekinelabo/g16/l703.exe)
 Integral derivatives from FoFJK, PRISM(SPDF).
 Compute integral first derivatives, UseDBF=F ICtDFT=           0.
 Calling FoFJK, ICntrl=      2127 FMM=F ISym2X=0 I1Cent= 0 IOpClX= 1 NMat=1 NMatS=1 NMatT=0.
 FoFJK:  IHMeth= 1 ICntrl=    2127 DoSepK=F KAlg= 0 I1Cent=           0 FoldK=F
 IRaf=         0 NMat=       1 IRICut=       1 DoRegI=T DoRafI=F ISym2E= 0 IDoP0=0 IntGTp=1.
 FoFCou: FMM=F IPFlag=           0 FMFlag=      100000 FMFlg1=         800
         NFxFlg=           0 DoJE=F BraDBF=F KetDBF=F FulRan=T
         wScrn=  0.000000 ICntrl=      2127 IOpCl=  1 I1Cent=           0 NGrid=           0
         NMat0=    1 NMatS0=      1 NMatT0=    0 NMatD0=    1 NMtDS0=    0 NMtDT0=    0
 Symmetry not used in FoFCou.
 Leave Link  703 at Wed Nov 29 15:39:35 2023, MaxMem=  1879048192 cpu:              32.2 elap:               2.2
 (Enter /home/sekinelabo/g16/l716.exe)
 Dipole        =-9.47794784D-02 9.08889975D-02 1.93377320D-01
 ***** Axes restored to original set *****
 -------------------------------------------------------------------
 Center     Atomic                   Forces (Hartrees/Bohr)
 Number     Number              X              Y              Z
 -------------------------------------------------------------------
      1       11           0.003708592   -0.000338853    0.001092457
      2       11          -0.000342000    0.000014854   -0.000318546
      3       11          -0.001156377    0.000518941    0.000360532
      4       11           0.004391806    0.003094111    0.001833483
      5       11          -0.001962177    0.004484467    0.000698146
      6       11          -0.000909256    0.000453021   -0.001733736
      7       11          -0.003730587   -0.008226541   -0.001932336
 -------------------------------------------------------------------
 Cartesian Forces:  Max     0.008226541 RMS     0.002786474
 Z-matrix is all fixed cartesians, so copy forces.
 Force constants in Cartesian coordinates: 
                1             2             3             4             5 
      1  0.520277D-01
      2  0.333371D-02  0.369627D-01
      3 -0.103907D-02 -0.488194D-02  0.257127D-01
      4 -0.633706D-03 -0.261861D-02  0.555539D-02  0.487293D-01
      5 -0.137898D-02  0.538775D-02  0.328792D-02 -0.611610D-02  0.424645D-01
      6 -0.145501D-03  0.152970D-02  0.310762D-02 -0.533355D-02 -0.547334D-02
      7 -0.776809D-03  0.238800D-02 -0.262048D-02  0.547602D-02  0.107894D-02
      8  0.328556D-02  0.407935D-02 -0.124690D-02  0.312088D-02  0.127145D-02
      9 -0.159703D-02 -0.177531D-02  0.594655D-02 -0.762407D-03  0.661429D-02
     10 -0.785922D-03 -0.228022D-02 -0.248896D-02 -0.754359D-02 -0.709128D-02
     11  0.831504D-03  0.303372D-02  0.247961D-02  0.322482D-02 -0.782843D-02
     12  0.115049D-02  0.287424D-02  0.398058D-02 -0.147919D-01 -0.456337D-02
     13 -0.180551D-01 -0.179232D-01 -0.129467D-02 -0.794167D-02  0.808371D-02
     14  0.547507D-02 -0.205894D-01 -0.540493D-02 -0.628067D-02 -0.795384D-02
     15  0.118839D-02 -0.116593D-02 -0.738524D-02  0.855991D-02 -0.126260D-01
     16 -0.130942D-01  0.785400D-02 -0.844816D-02  0.144817D-01 -0.817127D-02
     17 -0.835759D-02 -0.889578D-02  0.682374D-02 -0.818652D-02  0.108625D-01
     18  0.578908D-02  0.473531D-02 -0.703413D-02 -0.228772D-03  0.534559D-02
     19 -0.186819D-01  0.924633D-02  0.103359D-01 -0.525681D-01  0.135950D-01
     20 -0.318927D-02 -0.199783D-01 -0.105750D-02  0.168562D-01 -0.442039D-01
     21 -0.534636D-02 -0.131606D-02 -0.243281D-01  0.700137D-02  0.741488D-02
                6             7             8             9            10 
      6  0.508274D-01
      7  0.169596D-02  0.559725D-01
      8  0.200473D-02 -0.664557D-02  0.543856D-01
      9  0.156368D-02  0.238586D-02 -0.135800D-01  0.324820D-01
     10  0.329650D-02 -0.133862D-01  0.864496D-02 -0.720104D-02  0.642041D-01
     11  0.639308D-02 -0.137315D-01 -0.269506D-01 -0.363811D-02  0.141669D-01
     12 -0.196269D-01 -0.185087D-03  0.709910D-02 -0.895437D-02  0.159806D-01
     13  0.374429D-02  0.579294D-03  0.269875D-02  0.231602D-02 -0.614934D-02
     14  0.404147D-02  0.287707D-03  0.434019D-03  0.180693D-03  0.539789D-03
     15 -0.150554D-01  0.343456D-04  0.444516D-02  0.488765D-02 -0.451180D-02
     16  0.365143D-03 -0.223961D-01 -0.664568D-02  0.114979D-01 -0.144389D-03
     17  0.599936D-02  0.117470D-01 -0.152157D-01  0.459859D-02 -0.649233D-02
     18  0.512384D-02 -0.388823D-02  0.852442D-02 -0.859275D-02  0.664159D-03
     19 -0.362286D-02 -0.254687D-01 -0.445889D-02 -0.663925D-02 -0.361947D-01
     20 -0.144950D-01  0.487539D-02 -0.180041D-01  0.759989D-02 -0.748784D-02
     21 -0.259403D-01  0.257762D-02 -0.724646D-02 -0.273328D-01 -0.573943D-02
               11            12            13            14            15 
     11  0.648231D-01
     12 -0.282155D-02  0.523627D-01
     13  0.727811D-02  0.277192D-02  0.557191D-01
     14  0.187676D-02 -0.541945D-03 -0.135624D-02  0.771392D-01
     15  0.330679D-02  0.282749D-02 -0.919376D-02  0.847084D-02  0.441810D-01
     16 -0.290981D-02  0.481432D-02  0.447442D-02 -0.111034D-02 -0.677924D-03
     17  0.834747D-03  0.315327D-02  0.428622D-03 -0.388947D-02  0.695708D-02
     18 -0.159282D-02  0.389818D-02 -0.850518D-03 -0.460074D-03  0.316316D-02
     19 -0.886002D-02 -0.974026D-02 -0.286268D-01  0.244469D-02  0.460084D-02
     20 -0.357892D-01 -0.519973D-02  0.790272D-03 -0.470172D-01 -0.938799D-02
     21 -0.412699D-02 -0.344877D-01  0.250672D-02 -0.628607D-02 -0.326186D-01
               16            17            18            19            20 
     16  0.656637D-01
     17 -0.520404D-02  0.550092D-01
     18 -0.723142D-02 -0.138222D-01  0.410610D-01
     19 -0.489851D-01  0.160648D-01  0.574570D-02  0.210525D+00
     20  0.161871D-01 -0.387056D-01 -0.273025D-02 -0.280319D-01  0.203698D+00
     21 -0.319805D-03 -0.137099D-01 -0.376193D-01 -0.680124D-03  0.252706D-01
               21 
     21  0.182327D+00
 Leave Link  716 at Wed Nov 29 15:39:35 2023, MaxMem=  1879048192 cpu:               0.4 elap:               0.0
 (Enter /home/sekinelabo/g16/l103.exe)

 GradGradGradGradGradGradGradGradGradGradGradGradGradGradGradGradGradGrad
 Berny optimization.
 Search for a local minimum.
 Step number   1 out of a maximum of    2
 All quantities printed in internal units (Hartrees-Bohrs-Radians)
 Second derivative matrix not updated -- first step.
 ITU=  0
     Eigenvalues ---    0.03087   0.03532   0.03629   0.04685   0.05274
     Eigenvalues ---    0.05839   0.07634   0.08037   0.08298   0.08893
     Eigenvalues ---    0.09627   0.10449   0.19236   0.23419   0.29269
 Angle between quadratic step and forces=  37.03 degrees.
 Linear search not attempted -- first point.
 B after Tr=     0.000000   -0.000000    0.000000
         Rot=    1.000000    0.000000   -0.000000   -0.000000 Ang=   0.00 deg.
 Variable       Old X    -DE/DX   Delta X   Delta X   Delta X     New X
                                 (Linear)    (Quad)   (Total)
    X1       21.90571   0.00371   0.00000   0.04894   0.04894  21.95464
    Y1       29.17813  -0.00034   0.00000  -0.00697  -0.00697  29.17116
    Z1       29.31211   0.00109   0.00000   0.03261   0.03261  29.34472
    X2       31.48492  -0.00034   0.00000  -0.00791  -0.00791  31.47701
    Y2       32.66864   0.00001   0.00000  -0.00679  -0.00679  32.66185
    Z2       23.55128  -0.00032   0.00000  -0.01776  -0.01776  23.53352
    X3       33.24142  -0.00116   0.00000  -0.01703  -0.01703  33.22438
    Y3       24.42925   0.00052   0.00000   0.00504   0.00504  24.43428
    Z3       31.41122   0.00036   0.00000   0.02560   0.02560  31.43682
    X4       33.92323   0.00439   0.00000   0.04168   0.04168  33.96491
    Y4       30.49149   0.00309   0.00000   0.01825   0.01825  30.50974
    Z4       29.57100   0.00183   0.00000   0.01285   0.01285  29.58385
    X5       26.71128  -0.00196   0.00000  -0.02781  -0.02781  26.68347
    Y5       33.46818   0.00448   0.00000   0.03304   0.03304  33.50122
    Z5       28.67508   0.00070   0.00000  -0.00279  -0.00279  28.67229
    X6       26.78630  -0.00091   0.00000  -0.01805  -0.01805  26.76825
    Y6       24.39807   0.00045   0.00000  -0.00960  -0.00960  24.38847
    Z6       32.62763  -0.00173   0.00000  -0.04717  -0.04717  32.58046
    X7       28.95193  -0.00373   0.00000  -0.01982  -0.01982  28.93211
    Y7       28.37103  -0.00823   0.00000  -0.03297  -0.03297  28.33805
    Z7       27.85645  -0.00193   0.00000  -0.00335  -0.00335  27.85311
         Item               Value     Threshold  Converged?
 Maximum Force            0.008227     0.000450     NO 
 RMS     Force            0.002786     0.000300     NO 
 Maximum Displacement     0.048937     0.001800     NO 
 RMS     Displacement     0.025018     0.001200     NO 
 Predicted change in Energy=-5.843154D-04
 GradGradGradGradGradGradGradGradGradGradGradGradGradGradGradGradGradGrad

 Leave Link  103 at Wed Nov 29 15:39:35 2023, MaxMem=  1879048192 cpu:               0.2 elap:               0.0
 (Enter /home/sekinelabo/g16/l9999.exe)
 1\1\GINC-SEKINELABO-XA7R-R37\Force\UB3LYP\6-311+G(d)\Na7(2)\SEKINELABO
 \29-Nov-2023\0\\#P B3LYP/6-311+g(d) force\\DPGEN\\0,2\Na,11.592,15.440
 4,15.5113\Na,16.6611,17.2875,12.4628\Na,17.5906,12.9274,16.6221\Na,17.
 9514,16.1354,15.6483\Na,14.135,17.7106,15.1742\Na,14.1747,12.9109,17.2
 658\Na,15.3207,15.0133,14.741\\Version=ES64L-G16RevB.01\State=2-A\HF=-
 1136.1239685\S2=0.775037\S2-1=0.\S2A=0.750395\RMSD=4.282e-09\RMSF=2.78
 6e-03\Dipole=-0.1020506,0.0883369,0.1908429\Quadrupole=4.4563009,-0.00
 8676,-4.4476249,-0.8772811,0.1113969,-2.1571492\PG=C01 [X(Na7)]\\@


 There are more things in heaven and earth, Horatio,
 than are dreamt of in your philosophy.
                   -- Hamlet, Act I, Scene 5
 Job cpu time:       0 days  0 hours  4 minutes  2.5 seconds.
 Elapsed time:       0 days  0 hours  0 minutes 20.4 seconds.
 File lengths (MBytes):  RWF=     32 Int=      0 D2E=      0 Chk=      4 Scr=      1
 Normal termination of Gaussian 16 at Wed Nov 29 15:39:35 2023.
