 Set GAUSS_MDEF to "14GB".
 Entering Gaussian System, Link 0=g16
 Initial command:
 /home/sekinelabo/g16/l1.exe "/home/sekinelabo/g16temp/Gau-50241.inp" -scrdir="/home/sekinelabo/g16temp/"
 Entering Link 1 = /home/sekinelabo/g16/l1.exe PID=     50243.
  
 Copyright (c) 1988-2017, Gaussian, Inc.  All Rights Reserved.
  
 This is part of the Gaussian(R) 16 program.  It is based on
 the Gaussian(R) 09 system (copyright 2009, Gaussian, Inc.),
 the Gaussian(R) 03 system (copyright 2003, Gaussian, Inc.),
 the Gaussian(R) 98 system (copyright 1998, Gaussian, Inc.),
 the Gaussian(R) 94 system (copyright 1995, Gaussian, Inc.),
 the Gaussian 92(TM) system (copyright 1992, Gaussian, Inc.),
 the Gaussian 90(TM) system (copyright 1990, Gaussian, Inc.),
 the Gaussian 88(TM) system (copyright 1988, Gaussian, Inc.),
 the Gaussian 86(TM) system (copyright 1986, Carnegie Mellon
 University), and the Gaussian 82(TM) system (copyright 1983,
 Carnegie Mellon University). Gaussian is a federally registered
 trademark of Gaussian, Inc.
  
 This software contains proprietary and confidential information,
 including trade secrets, belonging to Gaussian, Inc.
  
 This software is provided under written license and may be
 used, copied, transmitted, or stored only in accord with that
 written license.
  
 The following legend is applicable only to US Government
 contracts under FAR:
  
                    RESTRICTED RIGHTS LEGEND
  
 Use, reproduction and disclosure by the US Government is
 subject to restrictions as set forth in subparagraphs (a)
 and (c) of the Commercial Computer Software - Restricted
 Rights clause in FAR 52.227-19.
  
 Gaussian, Inc.
 340 Quinnipiac St., Bldg. 40, Wallingford CT 06492
  
  
 ---------------------------------------------------------------
 Warning -- This program may not be used in any manner that
 competes with the business of Gaussian, Inc. or will provide
 assistance to any competitor of Gaussian, Inc.  The licensee
 of this program is prohibited from giving any competitor of
 Gaussian, Inc. access to this program.  By using this program,
 the user acknowledges that Gaussian, Inc. is engaged in the
 business of creating and licensing software in the field of
 computational chemistry and represents and warrants to the
 licensee that it is not a competitor of Gaussian, Inc. and that
 it will not use this program in any manner prohibited above.
 ---------------------------------------------------------------
  

 Cite this work as:
 Gaussian 16, Revision B.01,
 M. J. Frisch, G. W. Trucks, H. B. Schlegel, G. E. Scuseria, 
 M. A. Robb, J. R. Cheeseman, G. Scalmani, V. Barone, 
 G. A. Petersson, H. Nakatsuji, X. Li, M. Caricato, A. V. Marenich, 
 J. Bloino, B. G. Janesko, R. Gomperts, B. Mennucci, H. P. Hratchian, 
 J. V. Ortiz, A. F. Izmaylov, J. L. Sonnenberg, D. Williams-Young, 
 F. Ding, F. Lipparini, F. Egidi, J. Goings, B. Peng, A. Petrone, 
 T. Henderson, D. Ranasinghe, V. G. Zakrzewski, J. Gao, N. Rega, 
 G. Zheng, W. Liang, M. Hada, M. Ehara, K. Toyota, R. Fukuda, 
 J. Hasegawa, M. Ishida, T. Nakajima, Y. Honda, O. Kitao, H. Nakai, 
 T. Vreven, K. Throssell, J. A. Montgomery, Jr., J. E. Peralta, 
 F. Ogliaro, M. J. Bearpark, J. J. Heyd, E. N. Brothers, K. N. Kudin, 
 V. N. Staroverov, T. A. Keith, R. Kobayashi, J. Normand, 
 K. Raghavachari, A. P. Rendell, J. C. Burant, S. S. Iyengar, 
 J. Tomasi, M. Cossi, J. M. Millam, M. Klene, C. Adamo, R. Cammi, 
 J. W. Ochterski, R. L. Martin, K. Morokuma, O. Farkas, 
 J. B. Foresman, and D. J. Fox, Gaussian, Inc., Wallingford CT, 2016.
 
 ******************************************
 Gaussian 16:  ES64L-G16RevB.01 20-Dec-2017
                28-Nov-2023 
 ******************************************
 %nproc=15
 Will use up to   15 processors via shared memory.
 -------------------------
 #P B3LYP/6-311+g(d) force
 -------------------------
 1/10=7,30=1,38=1/1,3;
 2/12=2,17=6,18=5,40=1/2;
 3/5=4,6=6,7=11,11=2,25=1,30=1,71=1,74=-5/1,2,3;
 4//1;
 5/5=2,38=5/2;
 6/7=2,8=2,9=2,10=2,28=1/1;
 7/29=1/1,2,3,16;
 1/10=7,30=1/3;
 99//99;
 Leave Link    1 at Tue Nov 28 19:55:42 2023, MaxMem=           0 cpu:               0.3 elap:               0.0
 (Enter /home/sekinelabo/g16/l101.exe)
 -----
 DPGEN
 -----
 Symbolic Z-matrix:
 Charge =  0 Multiplicity = 2
 Na                    16.344    18.0307   15.4858 
 Na                    16.0084   16.3527   12.6035 
 Na                    14.369    13.4331   13.4629 
 Na                    13.8155   16.0564   15.6662 
 Na                    14.5141   12.8158   16.7984 
 Na                    16.892    14.7757   15.2763 
 Na                    15.4825   15.9611   18.1324 
 
 ITRead=  0  0  0  0  0  0  0
 MicOpt= -1 -1 -1 -1 -1 -1 -1
 NAtoms=      7 NQM=        7 NQMF=       0 NMMI=      0 NMMIF=      0
                NMic=       0 NMicF=      0.
                    Isotopes and Nuclear Properties:
 (Nuclear quadrupole moments (NQMom) in fm**2, nuclear magnetic moments (NMagM)
  in nuclear magnetons)

  Atom         1           2           3           4           5           6           7
 IAtWgt=          23          23          23          23          23          23          23
 AtmWgt=  22.9897697  22.9897697  22.9897697  22.9897697  22.9897697  22.9897697  22.9897697
 NucSpn=           3           3           3           3           3           3           3
 AtZEff=  -0.0000000  -0.0000000  -0.0000000  -0.0000000  -0.0000000  -0.0000000  -0.0000000
 NQMom=   10.4000000  10.4000000  10.4000000  10.4000000  10.4000000  10.4000000  10.4000000
 NMagM=    2.2175200   2.2175200   2.2175200   2.2175200   2.2175200   2.2175200   2.2175200
 AtZNuc=  11.0000000  11.0000000  11.0000000  11.0000000  11.0000000  11.0000000  11.0000000
 Leave Link  101 at Tue Nov 28 19:55:42 2023, MaxMem=  1879048192 cpu:               2.3 elap:               0.2
 (Enter /home/sekinelabo/g16/l103.exe)

 GradGradGradGradGradGradGradGradGradGradGradGradGradGradGradGradGradGrad
 Berny optimization.
 Initialization pass.
 Trust Radius=3.00D-01 FncErr=1.00D-07 GrdErr=1.00D-07 EigMax=2.50D+02 EigMin=1.00D-04
 Number of steps in this run=      2 maximum allowed number of steps=      2.
 GradGradGradGradGradGradGradGradGradGradGradGradGradGradGradGradGradGrad

 Leave Link  103 at Tue Nov 28 19:55:42 2023, MaxMem=  1879048192 cpu:               0.2 elap:               0.0
 (Enter /home/sekinelabo/g16/l202.exe)
                          Input orientation:                          
 ---------------------------------------------------------------------
 Center     Atomic      Atomic             Coordinates (Angstroms)
 Number     Number       Type             X           Y           Z
 ---------------------------------------------------------------------
      1         11           0       16.344000   18.030700   15.485800
      2         11           0       16.008400   16.352700   12.603500
      3         11           0       14.369000   13.433100   13.462900
      4         11           0       13.815500   16.056400   15.666200
      5         11           0       14.514100   12.815800   16.798400
      6         11           0       16.892000   14.775700   15.276300
      7         11           0       15.482500   15.961100   18.132400
 ---------------------------------------------------------------------
                    Distance matrix (angstroms):
                    1          2          3          4          5
     1  Na   0.000000
     2  Na   3.352009   0.000000
     3  Na   5.397284   3.456916   0.000000
     4  Na   3.213054   3.778457   3.470244   0.000000
     5  Na   5.680373   5.686808   3.395243   3.503057   0.000000
     6  Na   3.307449   3.226691   3.384749   3.355155   3.436918
     7  Na   3.468417   5.567644   5.425394   2.978274   3.551094
                    6          7
     6  Na   0.000000
     7  Na   3.398407   0.000000
 Stoichiometry    Na7(2)
 Framework group  C1[X(Na7)]
 Deg. of freedom    15
 Full point group                 C1      NOp   1
 Largest Abelian subgroup         C1      NOp   1
 Largest concise Abelian subgroup C1      NOp   1
                         Standard orientation:                         
 ---------------------------------------------------------------------
 Center     Atomic      Atomic             Coordinates (Angstroms)
 Number     Number       Type             X           Y           Z
 ---------------------------------------------------------------------
      1         11           0        2.191268   -1.848350    0.035915
      2         11           0        2.605815    1.476143   -0.072993
      3         11           0       -0.569479    2.779584    0.337876
      4         11           0       -0.175565   -0.404667    1.659984
      5         11           0       -2.988418    0.467465   -0.237027
      6         11           0        0.130475    0.122982   -1.639257
      7         11           0       -1.194095   -2.593157   -0.084499
 ---------------------------------------------------------------------
 Rotational constants (GHZ):           0.8432160           0.7865770           0.5140495
 Leave Link  202 at Tue Nov 28 19:55:42 2023, MaxMem=  1879048192 cpu:               0.0 elap:               0.0
 (Enter /home/sekinelabo/g16/l301.exe)
 Standard basis: 6-311+G(d) (5D, 7F)
 Ernie: Thresh=  0.10000D-02 Tol=  0.10000D-05 Strict=F.
 There are   217 symmetry adapted cartesian basis functions of A   symmetry.
 There are   210 symmetry adapted basis functions of A   symmetry.
   210 basis functions,   350 primitive gaussians,   217 cartesian basis functions
    39 alpha electrons       38 beta electrons
       nuclear repulsion energy       360.4529959446 Hartrees.
 IExCor=  402 DFT=T Ex+Corr=B3LYP ExCW=0 ScaHFX=  0.200000
 ScaDFX=  0.800000  0.720000  1.000000  0.810000 ScalE2=  1.000000  1.000000
 IRadAn=      5 IRanWt=     -1 IRanGd=            0 ICorTp=0 IEmpDi=  4
 NAtoms=    7 NActive=    7 NUniq=    7 SFac= 1.00D+00 NAtFMM=   60 NAOKFM=F Big=F
 Integral buffers will be    131072 words long.
 Raffenetti 2 integral format.
 Two-electron integral symmetry is turned on.
 Leave Link  301 at Tue Nov 28 19:55:42 2023, MaxMem=  1879048192 cpu:               0.5 elap:               0.0
 (Enter /home/sekinelabo/g16/l302.exe)
 NPDir=0 NMtPBC=     1 NCelOv=     1 NCel=       1 NClECP=     1 NCelD=      1
         NCelK=      1 NCelE2=     1 NClLst=     1 CellRange=     0.0.
 One-electron integrals computed using PRISM.
 One-electron integral symmetry used in STVInt
 NBasis=   210 RedAO= T EigKep=  3.07D-06  NBF=   210
 NBsUse=   210 1.00D-06 EigRej= -1.00D+00 NBFU=   210
 Precomputing XC quadrature grid using
 IXCGrd= 4 IRadAn=           5 IRanWt=          -1 IRanGd=           0 AccXCQ= 0.00D+00.
 Generated NRdTot=       0 NPtTot=           0 NUsed=           0 NTot=          32
 NSgBfM=   211   211   211   211   211 MxSgAt=     7 MxSgA2=     7.
 Leave Link  302 at Tue Nov 28 19:55:42 2023, MaxMem=  1879048192 cpu:               1.8 elap:               0.1
 (Enter /home/sekinelabo/g16/l303.exe)
 DipDrv:  MaxL=1.
 Leave Link  303 at Tue Nov 28 19:55:42 2023, MaxMem=  1879048192 cpu:               0.5 elap:               0.0
 (Enter /home/sekinelabo/g16/l401.exe)
 ExpMin= 7.60D-03 ExpMax= 3.62D+04 ExpMxC= 1.21D+03 IAcc=3 IRadAn=         5 AccDes= 0.00D+00
 Harris functional with IExCor=  402 and IRadAn=       5 diagonalized for initial guess.
 HarFok:  IExCor=  402 AccDes= 0.00D+00 IRadAn=         5 IDoV= 1 UseB2=F ITyADJ=14
 ICtDFT=  3500011 ScaDFX=  1.000000  1.000000  1.000000  1.000000
 FoFCou: FMM=F IPFlag=           0 FMFlag=      100000 FMFlg1=           0
         NFxFlg=           0 DoJE=T BraDBF=F KetDBF=T FulRan=T
         wScrn=  0.000000 ICntrl=       500 IOpCl=  0 I1Cent=   200000004 NGrid=           0
         NMat0=    1 NMatS0=      1 NMatT0=    0 NMatD0=    1 NMtDS0=    0 NMtDT0=    0
 Petite list used in FoFCou.
 Harris En= -1135.90914115968    
 JPrj=0 DoOrth=F DoCkMO=F.
 Initial guess <Sx>= 0.0000 <Sy>= 0.0000 <Sz>= 0.5000 <S**2>= 0.7500 S= 0.5000
 Leave Link  401 at Tue Nov 28 19:55:42 2023, MaxMem=  1879048192 cpu:               4.4 elap:               0.3
 (Enter /home/sekinelabo/g16/l502.exe)
 Keep R1 and R2 ints in memory in canonical form, NReq=506573335.
 FoFCou: FMM=F IPFlag=           0 FMFlag=           0 FMFlg1=           0
         NFxFlg=           0 DoJE=F BraDBF=F KetDBF=F FulRan=T
         wScrn=  0.000000 ICntrl=       600 IOpCl=  0 I1Cent=           0 NGrid=           0
         NMat0=    1 NMatS0=  22155 NMatT0=    0 NMatD0=    1 NMtDS0=    0 NMtDT0=    0
 Symmetry not used in FoFCou.
 Two-electron integral symmetry not used.
 UHF open shell SCF:
 Using DIIS extrapolation, IDIIS=  1040.
 NGot=  1879048192 LenX=  1388082565 LenY=  1388035035
 Requested convergence on RMS density matrix=1.00D-08 within 128 cycles.
 Requested convergence on MAX density matrix=1.00D-06.
 Requested convergence on             energy=1.00D-06.
 No special actions if energy rises.

 Cycle   1  Pass 1  IDiag  1:
 E= -1136.09496815851    
 DIIS: error= 1.37D-02 at cycle   1 NSaved=   1.
 NSaved= 1 IEnMin= 1 EnMin= -1136.09496815851     IErMin= 1 ErrMin= 1.37D-02
 ErrMax= 1.37D-02  0.00D+00 EMaxC= 1.00D-01 BMatC= 1.99D-01 BMatP= 1.99D-01
 IDIUse=3 WtCom= 8.63D-01 WtEn= 1.37D-01
 Coeff-Com:  0.100D+01
 Coeff-En:   0.100D+01
 Coeff:      0.100D+01
 Gap=     0.041 Goal=   None    Shift=    0.000
 Gap=     0.060 Goal=   None    Shift=    0.000
 GapD=    0.041 DampG=0.250 DampE=0.500 DampFc=0.2500 IDamp=-1.
 Damping current iteration by 2.50D-01
 RMSDP=4.78D-02 MaxDP=3.17D+00              OVMax= 2.67D-01

 Cycle   2  Pass 1  IDiag  1:
 E= -1136.11017888398     Delta-E=       -0.015210725473 Rises=F Damp=T
 DIIS: error= 8.00D-03 at cycle   2 NSaved=   2.
 NSaved= 2 IEnMin= 2 EnMin= -1136.11017888398     IErMin= 2 ErrMin= 8.00D-03
 ErrMax= 8.00D-03  0.00D+00 EMaxC= 1.00D-01 BMatC= 7.48D-02 BMatP= 1.99D-01
 IDIUse=3 WtCom= 9.20D-01 WtEn= 8.00D-02
 Coeff-Com: -0.126D+01 0.226D+01
 Coeff-En:   0.000D+00 0.100D+01
 Coeff:     -0.116D+01 0.216D+01
 Gap=     0.055 Goal=   None    Shift=    0.000
 Gap=     0.063 Goal=   None    Shift=    0.000
 RMSDP=2.52D-02 MaxDP=1.99D+00 DE=-1.52D-02 OVMax= 1.72D-01

 Cycle   3  Pass 1  IDiag  1:
 E= -1136.13556241155     Delta-E=       -0.025383527566 Rises=F Damp=F
 DIIS: error= 3.39D-03 at cycle   3 NSaved=   3.
 NSaved= 3 IEnMin= 3 EnMin= -1136.13556241155     IErMin= 3 ErrMin= 3.39D-03
 ErrMax= 3.39D-03  0.00D+00 EMaxC= 1.00D-01 BMatC= 3.06D-03 BMatP= 7.48D-02
 IDIUse=3 WtCom= 9.66D-01 WtEn= 3.39D-02
 Coeff-Com: -0.218D+00 0.393D+00 0.825D+00
 Coeff-En:   0.000D+00 0.000D+00 0.100D+01
 Coeff:     -0.211D+00 0.380D+00 0.831D+00
 Gap=     0.049 Goal=   None    Shift=    0.000
 Gap=     0.060 Goal=   None    Shift=    0.000
 RMSDP=1.29D-02 MaxDP=1.61D+00 DE=-2.54D-02 OVMax= 7.07D-02

 Cycle   4  Pass 1  IDiag  1:
 E= -1136.13529027324     Delta-E=        0.000272138313 Rises=F Damp=F
 DIIS: error= 2.91D-03 at cycle   4 NSaved=   4.
 NSaved= 4 IEnMin= 3 EnMin= -1136.13556241155     IErMin= 4 ErrMin= 2.91D-03
 ErrMax= 2.91D-03  0.00D+00 EMaxC= 1.00D-01 BMatC= 2.93D-03 BMatP= 3.06D-03
 IDIUse=3 WtCom= 9.71D-01 WtEn= 2.91D-02
 Coeff-Com: -0.346D-02 0.692D-02 0.494D+00 0.503D+00
 Coeff-En:   0.000D+00 0.000D+00 0.525D+00 0.475D+00
 Coeff:     -0.336D-02 0.672D-02 0.495D+00 0.502D+00
 Gap=     0.052 Goal=   None    Shift=    0.000
 Gap=     0.060 Goal=   None    Shift=    0.000
 RMSDP=2.65D-03 MaxDP=1.40D-01 DE= 2.72D-04 OVMax= 5.00D-02

 Cycle   5  Pass 1  IDiag  1:
 E= -1136.13750578293     Delta-E=       -0.002215509688 Rises=F Damp=F
 DIIS: error= 9.60D-04 at cycle   5 NSaved=   5.
 NSaved= 5 IEnMin= 5 EnMin= -1136.13750578293     IErMin= 5 ErrMin= 9.60D-04
 ErrMax= 9.60D-04  0.00D+00 EMaxC= 1.00D-01 BMatC= 2.01D-04 BMatP= 2.93D-03
 IDIUse=3 WtCom= 9.90D-01 WtEn= 9.60D-03
 Coeff-Com: -0.481D-03 0.128D-03 0.308D+00 0.334D+00 0.358D+00
 Coeff-En:   0.000D+00 0.000D+00 0.000D+00 0.137D-01 0.986D+00
 Coeff:     -0.476D-03 0.127D-03 0.305D+00 0.331D+00 0.364D+00
 Gap=     0.052 Goal=   None    Shift=    0.000
 Gap=     0.060 Goal=   None    Shift=    0.000
 RMSDP=5.72D-04 MaxDP=3.62D-02 DE=-2.22D-03 OVMax= 1.52D-02

 Cycle   6  Pass 1  IDiag  1:
 E= -1136.13774458595     Delta-E=       -0.000238803026 Rises=F Damp=F
 DIIS: error= 6.92D-05 at cycle   6 NSaved=   6.
 NSaved= 6 IEnMin= 6 EnMin= -1136.13774458595     IErMin= 6 ErrMin= 6.92D-05
 ErrMax= 6.92D-05  0.00D+00 EMaxC= 1.00D-01 BMatC= 1.41D-06 BMatP= 2.01D-04
 IDIUse=1 WtCom= 1.00D+00 WtEn= 0.00D+00
 Coeff-Com: -0.285D-02 0.354D-02-0.306D-01-0.319D-01 0.370D-01 0.102D+01
 Coeff:     -0.285D-02 0.354D-02-0.306D-01-0.319D-01 0.370D-01 0.102D+01
 Gap=     0.052 Goal=   None    Shift=    0.000
 Gap=     0.060 Goal=   None    Shift=    0.000
 RMSDP=7.31D-04 MaxDP=1.11D-01 DE=-2.39D-04 OVMax= 1.51D-03

 Cycle   7  Pass 1  IDiag  1:
 E= -1136.13774645184     Delta-E=       -0.000001865889 Rises=F Damp=F
 DIIS: error= 3.47D-05 at cycle   7 NSaved=   7.
 NSaved= 7 IEnMin= 7 EnMin= -1136.13774645184     IErMin= 7 ErrMin= 3.47D-05
 ErrMax= 3.47D-05  0.00D+00 EMaxC= 1.00D-01 BMatC= 3.15D-07 BMatP= 1.41D-06
 IDIUse=1 WtCom= 1.00D+00 WtEn= 0.00D+00
 Coeff-Com: -0.121D-02 0.149D-02-0.253D-01-0.265D-01 0.835D-02 0.499D+00
 Coeff-Com:  0.545D+00
 Coeff:     -0.121D-02 0.149D-02-0.253D-01-0.265D-01 0.835D-02 0.499D+00
 Coeff:      0.545D+00
 Gap=     0.052 Goal=   None    Shift=    0.000
 Gap=     0.060 Goal=   None    Shift=    0.000
 RMSDP=1.27D-04 MaxDP=2.37D-02 DE=-1.87D-06 OVMax= 8.04D-04

 Cycle   8  Pass 1  IDiag  1:
 E= -1136.13774676423     Delta-E=       -0.000000312391 Rises=F Damp=F
 DIIS: error= 1.85D-05 at cycle   8 NSaved=   8.
 NSaved= 8 IEnMin= 8 EnMin= -1136.13774676423     IErMin= 8 ErrMin= 1.85D-05
 ErrMax= 1.85D-05  0.00D+00 EMaxC= 1.00D-01 BMatC= 9.28D-08 BMatP= 3.15D-07
 IDIUse=1 WtCom= 1.00D+00 WtEn= 0.00D+00
 Coeff-Com:  0.473D-03-0.634D-03-0.461D-02-0.449D-02-0.794D-02-0.703D-01
 Coeff-Com:  0.340D+00 0.748D+00
 Coeff:      0.473D-03-0.634D-03-0.461D-02-0.449D-02-0.794D-02-0.703D-01
 Coeff:      0.340D+00 0.748D+00
 Gap=     0.052 Goal=   None    Shift=    0.000
 Gap=     0.060 Goal=   None    Shift=    0.000
 RMSDP=9.38D-05 MaxDP=1.41D-02 DE=-3.12D-07 OVMax= 4.82D-04

 Cycle   9  Pass 1  IDiag  1:
 E= -1136.13774689828     Delta-E=       -0.000000134052 Rises=F Damp=F
 DIIS: error= 9.13D-06 at cycle   9 NSaved=   9.
 NSaved= 9 IEnMin= 9 EnMin= -1136.13774689828     IErMin= 9 ErrMin= 9.13D-06
 ErrMax= 9.13D-06  0.00D+00 EMaxC= 1.00D-01 BMatC= 2.37D-08 BMatP= 9.28D-08
 IDIUse=1 WtCom= 1.00D+00 WtEn= 0.00D+00
 Coeff-Com:  0.460D-03-0.598D-03 0.127D-03 0.364D-03-0.686D-02-0.102D+00
 Coeff-Com:  0.131D+00 0.451D+00 0.528D+00
 Coeff:      0.460D-03-0.598D-03 0.127D-03 0.364D-03-0.686D-02-0.102D+00
 Coeff:      0.131D+00 0.451D+00 0.528D+00
 Gap=     0.052 Goal=   None    Shift=    0.000
 Gap=     0.060 Goal=   None    Shift=    0.000
 RMSDP=2.57D-05 MaxDP=4.98D-03 DE=-1.34D-07 OVMax= 2.25D-04

 Cycle  10  Pass 1  IDiag  1:
 E= -1136.13774693311     Delta-E=       -0.000000034830 Rises=F Damp=F
 DIIS: error= 4.46D-06 at cycle  10 NSaved=  10.
 NSaved=10 IEnMin=10 EnMin= -1136.13774693311     IErMin=10 ErrMin= 4.46D-06
 ErrMax= 4.46D-06  0.00D+00 EMaxC= 1.00D-01 BMatC= 3.79D-09 BMatP= 2.37D-08
 IDIUse=1 WtCom= 1.00D+00 WtEn= 0.00D+00
 Coeff-Com:  0.748D-04-0.895D-04 0.119D-02 0.121D-02-0.160D-02-0.235D-01
 Coeff-Com: -0.437D-01-0.188D-01 0.259D+00 0.826D+00
 Coeff:      0.748D-04-0.895D-04 0.119D-02 0.121D-02-0.160D-02-0.235D-01
 Coeff:     -0.437D-01-0.188D-01 0.259D+00 0.826D+00
 Gap=     0.052 Goal=   None    Shift=    0.000
 Gap=     0.060 Goal=   None    Shift=    0.000
 RMSDP=1.41D-05 MaxDP=1.33D-03 DE=-3.48D-08 OVMax= 1.65D-04

 Cycle  11  Pass 1  IDiag  1:
 E= -1136.13774694416     Delta-E=       -0.000000011044 Rises=F Damp=F
 DIIS: error= 1.66D-06 at cycle  11 NSaved=  11.
 NSaved=11 IEnMin=11 EnMin= -1136.13774694416     IErMin=11 ErrMin= 1.66D-06
 ErrMax= 1.66D-06  0.00D+00 EMaxC= 1.00D-01 BMatC= 5.61D-10 BMatP= 3.79D-09
 IDIUse=1 WtCom= 1.00D+00 WtEn= 0.00D+00
 Coeff-Com: -0.751D-04 0.101D-03 0.454D-03 0.340D-03 0.140D-02 0.118D-01
 Coeff-Com: -0.374D-01-0.945D-01-0.605D-01 0.144D+00 0.103D+01
 Coeff:     -0.751D-04 0.101D-03 0.454D-03 0.340D-03 0.140D-02 0.118D-01
 Coeff:     -0.374D-01-0.945D-01-0.605D-01 0.144D+00 0.103D+01
 Gap=     0.052 Goal=   None    Shift=    0.000
 Gap=     0.060 Goal=   None    Shift=    0.000
 RMSDP=1.03D-05 MaxDP=1.26D-03 DE=-1.10D-08 OVMax= 1.14D-04

 Cycle  12  Pass 1  IDiag  1:
 E= -1136.13774694716     Delta-E=       -0.000000003007 Rises=F Damp=F
 DIIS: error= 4.95D-07 at cycle  12 NSaved=  12.
 NSaved=12 IEnMin=12 EnMin= -1136.13774694716     IErMin=12 ErrMin= 4.95D-07
 ErrMax= 4.95D-07  0.00D+00 EMaxC= 1.00D-01 BMatC= 1.29D-10 BMatP= 5.61D-10
 IDIUse=1 WtCom= 1.00D+00 WtEn= 0.00D+00
 Coeff-Com: -0.555D-04 0.718D-04-0.263D-04-0.802D-04 0.103D-02 0.111D-01
 Coeff-Com: -0.976D-02-0.414D-01-0.790D-01-0.111D+00 0.384D+00 0.846D+00
 Coeff:     -0.555D-04 0.718D-04-0.263D-04-0.802D-04 0.103D-02 0.111D-01
 Coeff:     -0.976D-02-0.414D-01-0.790D-01-0.111D+00 0.384D+00 0.846D+00
 Gap=     0.052 Goal=   None    Shift=    0.000
 Gap=     0.060 Goal=   None    Shift=    0.000
 RMSDP=4.97D-06 MaxDP=4.59D-04 DE=-3.01D-09 OVMax= 5.19D-05

 Cycle  13  Pass 1  IDiag  1:
 E= -1136.13774694764     Delta-E=       -0.000000000473 Rises=F Damp=F
 DIIS: error= 1.67D-07 at cycle  13 NSaved=  13.
 NSaved=13 IEnMin=13 EnMin= -1136.13774694764     IErMin=13 ErrMin= 1.67D-07
 ErrMax= 1.67D-07  0.00D+00 EMaxC= 1.00D-01 BMatC= 8.07D-12 BMatP= 1.29D-10
 IDIUse=1 WtCom= 1.00D+00 WtEn= 0.00D+00
 Coeff-Com:  0.274D-05-0.433D-05-0.466D-04-0.279D-04-0.340D-04-0.181D-03
 Coeff-Com:  0.363D-02 0.729D-02-0.328D-02-0.312D-01-0.878D-01 0.521D-01
 Coeff-Com:  0.106D+01
 Coeff:      0.274D-05-0.433D-05-0.466D-04-0.279D-04-0.340D-04-0.181D-03
 Coeff:      0.363D-02 0.729D-02-0.328D-02-0.312D-01-0.878D-01 0.521D-01
 Coeff:      0.106D+01
 Gap=     0.052 Goal=   None    Shift=    0.000
 Gap=     0.060 Goal=   None    Shift=    0.000
 RMSDP=1.71D-06 MaxDP=1.84D-04 DE=-4.73D-10 OVMax= 1.60D-05

 Cycle  14  Pass 1  IDiag  1:
 E= -1136.13774694769     Delta-E=       -0.000000000053 Rises=F Damp=F
 DIIS: error= 5.77D-08 at cycle  14 NSaved=  14.
 NSaved=14 IEnMin=14 EnMin= -1136.13774694769     IErMin=14 ErrMin= 5.77D-08
 ErrMax= 5.77D-08  0.00D+00 EMaxC= 1.00D-01 BMatC= 8.39D-13 BMatP= 8.07D-12
 IDIUse=1 WtCom= 1.00D+00 WtEn= 0.00D+00
 Coeff-Com:  0.442D-05-0.578D-05-0.130D-04-0.444D-05-0.905D-04-0.793D-03
 Coeff-Com:  0.792D-03 0.359D-02 0.729D-02 0.921D-02-0.400D-01-0.599D-01
 Coeff-Com:  0.690D-02 0.107D+01
 Coeff:      0.442D-05-0.578D-05-0.130D-04-0.444D-05-0.905D-04-0.793D-03
 Coeff:      0.792D-03 0.359D-02 0.729D-02 0.921D-02-0.400D-01-0.599D-01
 Coeff:      0.690D-02 0.107D+01
 Gap=     0.052 Goal=   None    Shift=    0.000
 Gap=     0.060 Goal=   None    Shift=    0.000
 RMSDP=4.75D-07 MaxDP=4.76D-05 DE=-5.32D-11 OVMax= 3.35D-06

 Cycle  15  Pass 1  IDiag  1:
 E= -1136.13774694770     Delta-E=       -0.000000000010 Rises=F Damp=F
 DIIS: error= 2.19D-08 at cycle  15 NSaved=  15.
 NSaved=15 IEnMin=15 EnMin= -1136.13774694770     IErMin=15 ErrMin= 2.19D-08
 ErrMax= 2.19D-08  0.00D+00 EMaxC= 1.00D-01 BMatC= 1.24D-13 BMatP= 8.39D-13
 IDIUse=1 WtCom= 1.00D+00 WtEn= 0.00D+00
 Coeff-Com: -0.103D-05 0.146D-05 0.675D-05 0.252D-05 0.227D-04 0.130D-03
 Coeff-Com: -0.580D-03-0.148D-02-0.106D-02 0.185D-02 0.209D-01 0.945D-03
 Coeff-Com: -0.145D+00-0.189D+00 0.131D+01
 Coeff:     -0.103D-05 0.146D-05 0.675D-05 0.252D-05 0.227D-04 0.130D-03
 Coeff:     -0.580D-03-0.148D-02-0.106D-02 0.185D-02 0.209D-01 0.945D-03
 Coeff:     -0.145D+00-0.189D+00 0.131D+01
 Gap=     0.052 Goal=   None    Shift=    0.000
 Gap=     0.060 Goal=   None    Shift=    0.000
 RMSDP=2.10D-07 MaxDP=2.32D-05 DE=-9.55D-12 OVMax= 1.70D-06

 Cycle  16  Pass 1  IDiag  1:
 E= -1136.13774694769     Delta-E=        0.000000000012 Rises=F Damp=F
 DIIS: error= 1.08D-08 at cycle  16 NSaved=  16.
 NSaved=16 IEnMin=15 EnMin= -1136.13774694770     IErMin=16 ErrMin= 1.08D-08
 ErrMax= 1.08D-08  0.00D+00 EMaxC= 1.00D-01 BMatC= 1.83D-14 BMatP= 1.24D-13
 IDIUse=1 WtCom= 1.00D+00 WtEn= 0.00D+00
 Coeff-Com: -0.510D-06 0.676D-06 0.274D-05 0.119D-05 0.124D-04 0.692D-04
 Coeff-Com: -0.833D-04-0.386D-03-0.818D-03-0.868D-03 0.516D-02 0.647D-02
 Coeff-Com: -0.710D-02-0.140D+00 0.134D+00 0.100D+01
 Coeff:     -0.510D-06 0.676D-06 0.274D-05 0.119D-05 0.124D-04 0.692D-04
 Coeff:     -0.833D-04-0.386D-03-0.818D-03-0.868D-03 0.516D-02 0.647D-02
 Coeff:     -0.710D-02-0.140D+00 0.134D+00 0.100D+01
 Gap=     0.052 Goal=   None    Shift=    0.000
 Gap=     0.060 Goal=   None    Shift=    0.000
 RMSDP=5.57D-08 MaxDP=8.20D-06 DE= 1.18D-11 OVMax= 5.89D-07

 Cycle  17  Pass 1  IDiag  1:
 E= -1136.13774694770     Delta-E=       -0.000000000009 Rises=F Damp=F
 DIIS: error= 6.24D-09 at cycle  17 NSaved=  17.
 NSaved=17 IEnMin=15 EnMin= -1136.13774694770     IErMin=17 ErrMin= 6.24D-09
 ErrMax= 6.24D-09  0.00D+00 EMaxC= 1.00D-01 BMatC= 4.91D-15 BMatP= 1.83D-14
 IDIUse=1 WtCom= 1.00D+00 WtEn= 0.00D+00
 Coeff-Com: -0.190D-07 0.625D-08-0.743D-06-0.419D-06-0.176D-05 0.112D-04
 Coeff-Com:  0.738D-04 0.125D-03-0.344D-04-0.590D-03-0.235D-02 0.230D-02
 Coeff-Com:  0.234D-01 0.135D-02-0.223D+00 0.259D+00 0.939D+00
 Coeff:     -0.190D-07 0.625D-08-0.743D-06-0.419D-06-0.176D-05 0.112D-04
 Coeff:      0.738D-04 0.125D-03-0.344D-04-0.590D-03-0.235D-02 0.230D-02
 Coeff:      0.234D-01 0.135D-02-0.223D+00 0.259D+00 0.939D+00
 Gap=     0.052 Goal=   None    Shift=    0.000
 Gap=     0.060 Goal=   None    Shift=    0.000
 RMSDP=2.38D-08 MaxDP=3.15D-06 DE=-9.09D-12 OVMax= 3.12D-07

 Cycle  18  Pass 1  IDiag  1:
 E= -1136.13774694768     Delta-E=        0.000000000014 Rises=F Damp=F
 DIIS: error= 1.96D-09 at cycle  18 NSaved=  18.
 NSaved=18 IEnMin=15 EnMin= -1136.13774694770     IErMin=18 ErrMin= 1.96D-09
 ErrMax= 1.96D-09  0.00D+00 EMaxC= 1.00D-01 BMatC= 6.33D-16 BMatP= 4.91D-15
 IDIUse=1 WtCom= 1.00D+00 WtEn= 0.00D+00
 Large coefficients: NSaved= 18 BigCof=    0.00 CofMax=   10.00 Det=-1.31D-15
 Inversion failed.  Reducing to 17 matrices.
 Large coefficients: NSaved= 17 BigCof=    0.00 CofMax=   10.00 Det=-1.31D-15
 Inversion failed.  Reducing to 16 matrices.
 Large coefficients: NSaved= 16 BigCof=    0.00 CofMax=   10.00 Det=-1.34D-15
 Inversion failed.  Reducing to 15 matrices.
 Coeff-Com: -0.984D-07 0.182D-06 0.324D-05-0.183D-04-0.329D-04 0.649D-04
 Coeff-Com:  0.223D-03 0.420D-05-0.114D-02-0.284D-02 0.163D-01 0.185D-01
 Coeff-Com: -0.206D+00-0.153D+00 0.133D+01
 Coeff:     -0.984D-07 0.182D-06 0.324D-05-0.183D-04-0.329D-04 0.649D-04
 Coeff:      0.223D-03 0.420D-05-0.114D-02-0.284D-02 0.163D-01 0.185D-01
 Coeff:     -0.206D+00-0.153D+00 0.133D+01
 Gap=     0.052 Goal=   None    Shift=    0.000
 Gap=     0.060 Goal=   None    Shift=    0.000
 RMSDP=8.84D-09 MaxDP=9.28D-07 DE= 1.41D-11 OVMax= 1.42D-07

 SCF Done:  E(UB3LYP) =  -1136.13774695     A.U. after   18 cycles
            NFock= 18  Conv=0.88D-08     -V/T= 2.0027
 <Sx>= 0.0000 <Sy>= 0.0000 <Sz>= 0.5000 <S**2>= 0.7580 S= 0.5040
 <L.S>= 0.000000000000E+00
 KE= 1.133040254299D+03 PE=-3.450658178695D+03 EE= 8.210271815033D+02
 Annihilation of the first spin contaminant:
 S**2 before annihilation     0.7580,   after     0.7500
 Leave Link  502 at Tue Nov 28 19:55:58 2023, MaxMem=  1879048192 cpu:             173.2 elap:              15.4
 (Enter /home/sekinelabo/g16/l601.exe)
 Copying SCF densities to generalized density rwf, IOpCl= 1 IROHF=0.

 **********************************************************************

            Population analysis using the SCF Density.

 **********************************************************************

 Orbital symmetries:
 Alpha Orbitals:
       Occupied  (A) (A) (A) (A) (A) (A) (A) (A) (A) (A) (A) (A)
                 (A) (A) (A) (A) (A) (A) (A) (A) (A) (A) (A) (A)
                 (A) (A) (A) (A) (A) (A) (A) (A) (A) (A) (A) (A)
                 (A) (A) (A)
       Virtual   (A) (A) (A) (A) (A) (A) (A) (A) (A) (A) (A) (A)
                 (A) (A) (A) (A) (A) (A) (A) (A) (A) (A) (A) (A)
                 (A) (A) (A) (A) (A) (A) (A) (A) (A) (A) (A) (A)
                 (A) (A) (A) (A) (A) (A) (A) (A) (A) (A) (A) (A)
                 (A) (A) (A) (A) (A) (A) (A) (A) (A) (A) (A) (A)
                 (A) (A) (A) (A) (A) (A) (A) (A) (A) (A) (A) (A)
                 (A) (A) (A) (A) (A) (A) (A) (A) (A) (A) (A) (A)
                 (A) (A) (A) (A) (A) (A) (A) (A) (A) (A) (A) (A)
                 (A) (A) (A) (A) (A) (A) (A) (A) (A) (A) (A) (A)
                 (A) (A) (A) (A) (A) (A) (A) (A) (A) (A) (A) (A)
                 (A) (A) (A) (A) (A) (A) (A) (A) (A) (A) (A) (A)
                 (A) (A) (A) (A) (A) (A) (A) (A) (A) (A) (A) (A)
                 (A) (A) (A) (A) (A) (A) (A) (A) (A) (A) (A) (A)
                 (A) (A) (A) (A) (A) (A) (A) (A) (A) (A) (A) (A)
                 (A) (A) (A)
 Beta  Orbitals:
       Occupied  (A) (A) (A) (A) (A) (A) (A) (A) (A) (A) (A) (A)
                 (A) (A) (A) (A) (A) (A) (A) (A) (A) (A) (A) (A)
                 (A) (A) (A) (A) (A) (A) (A) (A) (A) (A) (A) (A)
                 (A) (A)
       Virtual   (A) (A) (A) (A) (A) (A) (A) (A) (A) (A) (A) (A)
                 (A) (A) (A) (A) (A) (A) (A) (A) (A) (A) (A) (A)
                 (A) (A) (A) (A) (A) (A) (A) (A) (A) (A) (A) (A)
                 (A) (A) (A) (A) (A) (A) (A) (A) (A) (A) (A) (A)
                 (A) (A) (A) (A) (A) (A) (A) (A) (A) (A) (A) (A)
                 (A) (A) (A) (A) (A) (A) (A) (A) (A) (A) (A) (A)
                 (A) (A) (A) (A) (A) (A) (A) (A) (A) (A) (A) (A)
                 (A) (A) (A) (A) (A) (A) (A) (A) (A) (A) (A) (A)
                 (A) (A) (A) (A) (A) (A) (A) (A) (A) (A) (A) (A)
                 (A) (A) (A) (A) (A) (A) (A) (A) (A) (A) (A) (A)
                 (A) (A) (A) (A) (A) (A) (A) (A) (A) (A) (A) (A)
                 (A) (A) (A) (A) (A) (A) (A) (A) (A) (A) (A) (A)
                 (A) (A) (A) (A) (A) (A) (A) (A) (A) (A) (A) (A)
                 (A) (A) (A) (A) (A) (A) (A) (A) (A) (A) (A) (A)
                 (A) (A) (A) (A)
 The electronic state is 2-A.
 Alpha  occ. eigenvalues --  -38.43737 -38.43586 -38.43527 -38.43490 -38.43377
 Alpha  occ. eigenvalues --  -38.42966 -38.42868  -2.19602  -2.19464  -2.19440
 Alpha  occ. eigenvalues --   -2.19410  -2.19257  -2.19008  -2.18907  -1.13280
 Alpha  occ. eigenvalues --   -1.13268  -1.13248  -1.13189  -1.13172  -1.13142
 Alpha  occ. eigenvalues --   -1.13118  -1.13113  -1.13109  -1.13066  -1.13047
 Alpha  occ. eigenvalues --   -1.13003  -1.12939  -1.12923  -1.12884  -1.12697
 Alpha  occ. eigenvalues --   -1.12623  -1.12610  -1.12579  -1.12527  -1.12521
 Alpha  occ. eigenvalues --   -0.19367  -0.13122  -0.12910  -0.10552
 Alpha virt. eigenvalues --   -0.05313  -0.05133  -0.04849  -0.02996  -0.02926
 Alpha virt. eigenvalues --   -0.02106  -0.01383  -0.01149  -0.00212  -0.00170
 Alpha virt. eigenvalues --    0.00054   0.00366   0.00876   0.00919   0.00939
 Alpha virt. eigenvalues --    0.00978   0.01265   0.01301   0.01340   0.01356
 Alpha virt. eigenvalues --    0.01399   0.01490   0.01850   0.01886   0.02221
 Alpha virt. eigenvalues --    0.02326   0.02333   0.02643   0.02653   0.02892
 Alpha virt. eigenvalues --    0.03129   0.03151   0.03162   0.03265   0.03288
 Alpha virt. eigenvalues --    0.03308   0.03330   0.03374   0.03418   0.03464
 Alpha virt. eigenvalues --    0.04480   0.04572   0.04776   0.04861   0.04921
 Alpha virt. eigenvalues --    0.05092   0.05165   0.05235   0.05273   0.05380
 Alpha virt. eigenvalues --    0.06123   0.07290   0.07381   0.07604   0.07676
 Alpha virt. eigenvalues --    0.07924   0.08019   0.08074   0.08298   0.09464
 Alpha virt. eigenvalues --    0.09590   0.09817   0.11228   0.11385   0.11871
 Alpha virt. eigenvalues --    0.12102   0.12871   0.13215   0.13358   0.13933
 Alpha virt. eigenvalues --    0.13983   0.14272   0.14547   0.14911   0.15321
 Alpha virt. eigenvalues --    0.15444   0.15729   0.15944   0.16549   0.17596
 Alpha virt. eigenvalues --    0.25884   0.26242   0.26999   0.27570   0.28277
 Alpha virt. eigenvalues --    0.29094   0.29125   0.31804   0.32013   0.34492
 Alpha virt. eigenvalues --    0.35341   0.36492   0.37106   0.37738   0.39548
 Alpha virt. eigenvalues --    0.39914   0.40826   0.40948   0.42212   0.44100
 Alpha virt. eigenvalues --    0.44562   0.45235   0.45328   0.45350   0.45613
 Alpha virt. eigenvalues --    0.45796   0.45798   0.45919   0.46063   0.47534
 Alpha virt. eigenvalues --    0.47762   0.48644   0.49087   0.50332   0.50718
 Alpha virt. eigenvalues --    0.51483   0.52206   0.52984   0.53429   0.53779
 Alpha virt. eigenvalues --    0.55101   0.55494   0.56423   0.58084   0.59306
 Alpha virt. eigenvalues --    0.59936   0.60458   0.61534   0.61923   0.62487
 Alpha virt. eigenvalues --    0.63679   0.67169   0.67246   0.68613   0.68976
 Alpha virt. eigenvalues --    0.74626   2.05558   2.18083   2.19433   2.22096
 Alpha virt. eigenvalues --    2.23721   2.29812   2.31137   4.43534   4.43842
 Alpha virt. eigenvalues --    4.44004   4.44582   4.45141   4.45753   4.46308
 Alpha virt. eigenvalues --    4.46702   4.48030   4.48810   4.49387   4.50503
 Alpha virt. eigenvalues --    4.52130   4.52261   4.55231   4.56174   4.58531
 Alpha virt. eigenvalues --    4.60136   4.60832   4.64869   4.72390  96.24819
 Alpha virt. eigenvalues --   96.40454  96.42241  96.45678  96.48011  96.55607
 Alpha virt. eigenvalues --   96.56980
  Beta  occ. eigenvalues --  -38.43731 -38.43582 -38.43519 -38.43482 -38.43367
  Beta  occ. eigenvalues --  -38.42891 -38.42794  -2.19594  -2.19460  -2.19430
  Beta  occ. eigenvalues --   -2.19399  -2.19243  -2.18870  -2.18772  -1.13275
  Beta  occ. eigenvalues --   -1.13248  -1.13235  -1.13180  -1.13162  -1.13134
  Beta  occ. eigenvalues --   -1.13109  -1.13094  -1.13071  -1.13046  -1.13029
  Beta  occ. eigenvalues --   -1.12999  -1.12931  -1.12886  -1.12879  -1.12607
  Beta  occ. eigenvalues --   -1.12527  -1.12511  -1.12485  -1.12431  -1.12421
  Beta  occ. eigenvalues --   -0.18642  -0.12849  -0.12634
  Beta virt. eigenvalues --   -0.06624  -0.05300  -0.05126  -0.04822  -0.02196
  Beta virt. eigenvalues --   -0.02117  -0.01304  -0.01104  -0.01070  -0.00246
  Beta virt. eigenvalues --   -0.00228   0.00172   0.00396   0.00914   0.00918
  Beta virt. eigenvalues --    0.00938   0.01024   0.01378   0.01421   0.01445
  Beta virt. eigenvalues --    0.01473   0.01554   0.01646   0.01870   0.01905
  Beta virt. eigenvalues --    0.02284   0.02324   0.02427   0.02625   0.02644
  Beta virt. eigenvalues --    0.02916   0.03133   0.03159   0.03259   0.03299
  Beta virt. eigenvalues --    0.03311   0.03354   0.03418   0.03479   0.03511
  Beta virt. eigenvalues --    0.03689   0.04566   0.04646   0.04845   0.04940
  Beta virt. eigenvalues --    0.04983   0.05256   0.05285   0.05354   0.05460
  Beta virt. eigenvalues --    0.05668   0.06478   0.07262   0.07365   0.07576
  Beta virt. eigenvalues --    0.07874   0.08079   0.08148   0.08268   0.08399
  Beta virt. eigenvalues --    0.09741   0.09910   0.10082   0.11321   0.11518
  Beta virt. eigenvalues --    0.12084   0.12286   0.13169   0.13450   0.13662
  Beta virt. eigenvalues --    0.14048   0.14225   0.14447   0.14855   0.15012
  Beta virt. eigenvalues --    0.15386   0.15696   0.16134   0.16354   0.16933
  Beta virt. eigenvalues --    0.18152   0.26048   0.26380   0.27241   0.27749
  Beta virt. eigenvalues --    0.28306   0.29161   0.29614   0.32408   0.32604
  Beta virt. eigenvalues --    0.34860   0.35475   0.36662   0.37387   0.38036
  Beta virt. eigenvalues --    0.39676   0.40098   0.40919   0.41370   0.42359
  Beta virt. eigenvalues --    0.44388   0.44779   0.45187   0.45475   0.45594
  Beta virt. eigenvalues --    0.45719   0.45819   0.45977   0.46057   0.46186
  Beta virt. eigenvalues --    0.47581   0.48019   0.48707   0.49175   0.50304
  Beta virt. eigenvalues --    0.50699   0.51626   0.52312   0.53253   0.53525
  Beta virt. eigenvalues --    0.54013   0.55312   0.55705   0.56602   0.58385
  Beta virt. eigenvalues --    0.59713   0.60150   0.60731   0.61723   0.62271
  Beta virt. eigenvalues --    0.62873   0.64113   0.67144   0.67524   0.68782
  Beta virt. eigenvalues --    0.69232   0.74849   2.05625   2.18089   2.19447
  Beta virt. eigenvalues --    2.22111   2.23728   2.30107   2.31474   4.43626
  Beta virt. eigenvalues --    4.43872   4.44046   4.44595   4.45210   4.45808
  Beta virt. eigenvalues --    4.46355   4.46756   4.48051   4.48826   4.49431
  Beta virt. eigenvalues --    4.50523   4.52149   4.52284   4.55340   4.56171
  Beta virt. eigenvalues --    4.58624   4.60219   4.60905   4.64940   4.72456
  Beta virt. eigenvalues --   96.24846  96.40458  96.42248  96.45685  96.48017
  Beta virt. eigenvalues --   96.55695  96.57082
          Condensed to atoms (all electrons):
               1          2          3          4          5          6
     1  Na  11.685297   0.495506  -0.060499  -0.402675  -0.612043  -0.447588
     2  Na   0.495506  11.209990   0.536824   0.412247  -0.372196  -0.620899
     3  Na  -0.060499   0.536824  11.037535   1.005855   0.082112  -1.123803
     4  Na  -0.402675   0.412247   1.005855  20.367551  -0.940714  -7.185694
     5  Na  -0.612043  -0.372196   0.082112  -0.940714  11.294614   0.731542
     6  Na  -0.447588  -0.620899  -1.123803  -7.185694   0.731542  19.319336
     7  Na   0.080674  -0.785349  -0.526369  -1.844641   0.724599   0.743280
               7
     1  Na   0.080674
     2  Na  -0.785349
     3  Na  -0.526369
     4  Na  -1.844641
     5  Na   0.724599
     6  Na   0.743280
     7  Na  12.305337
          Atomic-Atomic Spin Densities.
               1          2          3          4          5          6
     1  Na  -0.261206  -0.087279   0.036745   0.034866   0.126861   0.027865
     2  Na  -0.087279  -0.166043  -0.073297   0.205155   0.025323  -0.083706
     3  Na   0.036745  -0.073297  -0.010838   0.825262  -0.138250  -0.693771
     4  Na   0.034866   0.205155   0.825262   8.013106  -0.526926  -7.311358
     5  Na   0.126861   0.025323  -0.138250  -0.526926  -0.152640   0.694370
     6  Na   0.027865  -0.083706  -0.693771  -7.311358   0.694370   7.365678
     7  Na   0.030816   0.123508   0.016456  -0.570989  -0.074849   0.649361
               7
     1  Na   0.030816
     2  Na   0.123508
     3  Na   0.016456
     4  Na  -0.570989
     5  Na  -0.074849
     6  Na   0.649361
     7  Na  -0.260386
 Mulliken charges and spin densities:
               1          2
     1  Na   0.261327  -0.091331
     2  Na   0.123877  -0.056339
     3  Na   0.048344  -0.037692
     4  Na  -0.411928   0.669117
     5  Na   0.092087  -0.046111
     6  Na  -0.416175   0.648439
     7  Na   0.302468  -0.086083
 Sum of Mulliken charges =  -0.00000   1.00000
 Mulliken charges and spin densities with hydrogens summed into heavy atoms:
               1          2
     1  Na   0.261327  -0.091331
     2  Na   0.123877  -0.056339
     3  Na   0.048344  -0.037692
     4  Na  -0.411928   0.669117
     5  Na   0.092087  -0.046111
     6  Na  -0.416175   0.648439
     7  Na   0.302468  -0.086083
 Electronic spatial extent (au):  <R**2>=           2043.8853
 Charge=             -0.0000 electrons
 Dipole moment (field-independent basis, Debye):
    X=             -0.0602    Y=              0.0176    Z=             -0.0200  Tot=              0.0658
 Quadrupole moment (field-independent basis, Debye-Ang):
   XX=            -56.6349   YY=            -60.2528   ZZ=            -75.4708
   XY=              0.1132   XZ=              0.7746   YZ=              1.1939
 Traceless Quadrupole moment (field-independent basis, Debye-Ang):
   XX=              7.4846   YY=              3.8667   ZZ=            -11.3513
   XY=              0.1132   XZ=              0.7746   YZ=              1.1939
 Octapole moment (field-independent basis, Debye-Ang**2):
  XXX=             -2.8262  YYY=             -1.8293  ZZZ=             -0.2346  XYY=              1.3567
  XXY=              1.1641  XXZ=             -1.5808  XZZ=             -0.4870  YZZ=              0.7089
  YYZ=              0.6781  XYZ=             -0.6796
 Hexadecapole moment (field-independent basis, Debye-Ang**3):
 XXXX=          -1299.8545 YYYY=          -1286.1306 ZZZZ=           -678.3578 XXXY=             -5.6682
 XXXZ=             21.7067 YYYX=              8.9750 YYYZ=             32.9604 ZZZX=             -1.0237
 ZZZY=             -1.7987 XXYY=           -429.7927 XXZZ=           -400.9645 YYZZ=           -384.9526
 XXYZ=             -1.3523 YYXZ=             -0.2999 ZZXY=             -0.0105
 N-N= 3.604529959446D+02 E-N=-3.450658178799D+03  KE= 1.133040254299D+03
                          Isotropic Fermi Contact Couplings
        Atom                 a.u.       MegaHertz       Gauss      10(-4) cm-1
     1  Na(23)            -0.01570     -18.57398      -6.62766      -6.19561
     2  Na(23)            -0.01996     -23.60881      -8.42421      -7.87505
     3  Na(23)             0.00294       3.48085       1.24205       1.16109
     4  Na(23)             0.30029     355.24803     126.76133     118.49799
     5  Na(23)            -0.00954     -11.28464      -4.02664      -3.76415
     6  Na(23)             0.29073     343.94518     122.72819     114.72776
     7  Na(23)            -0.01633     -19.32297      -6.89492      -6.44545
 --------------------------------------------------------
       Center         ----  Spin Dipole Couplings  ----
                      3XX-RR        3YY-RR        3ZZ-RR
 --------------------------------------------------------
     1   Atom       -0.018247     -0.018996      0.037243
     2   Atom       -0.012682     -0.015302      0.027984
     3   Atom       -0.016886     -0.010047      0.026933
     4   Atom       -0.004040      0.003998      0.000043
     5   Atom       -0.011072     -0.016359      0.027431
     6   Atom        0.003229     -0.004234      0.001005
     7   Atom       -0.020940     -0.018053      0.038993
 --------------------------------------------------------
                        XY            XZ            YZ
 --------------------------------------------------------
     1   Atom       -0.002440     -0.004347     -0.003612
     2   Atom        0.002568     -0.001115      0.005412
     3   Atom       -0.001743      0.002827     -0.007218
     4   Atom       -0.001531      0.002113      0.000409
     5   Atom       -0.001512     -0.004676      0.006164
     6   Atom        0.001747      0.001486      0.005211
     7   Atom        0.001140      0.005151     -0.005882
 --------------------------------------------------------


 ---------------------------------------------------------------------------------
              Anisotropic Spin Dipole Couplings in Principal Axis System
 ---------------------------------------------------------------------------------

       Atom             a.u.   MegaHertz   Gauss  10(-4) cm-1        Axes

              Baa    -0.0216    -3.053    -1.089    -1.018  0.6607  0.7447  0.0945
     1 Na(23) Bbb    -0.0162    -2.283    -0.815    -0.762  0.7470 -0.6647  0.0158
              Bcc     0.0378     5.336     1.904     1.780 -0.0746 -0.0601  0.9954
 
              Baa    -0.0175    -2.468    -0.881    -0.823 -0.4897  0.8643 -0.1149
     2 Na(23) Bbb    -0.0112    -1.580    -0.564    -0.527  0.8717  0.4882 -0.0426
              Bcc     0.0287     4.048     1.444     1.350 -0.0192  0.1210  0.9925
 
              Baa    -0.0173    -2.448    -0.873    -0.817  0.9783  0.2052 -0.0290
     3 Na(23) Bbb    -0.0112    -1.577    -0.563    -0.526 -0.1957  0.9608  0.1965
              Bcc     0.0285     4.025     1.436     1.343  0.0682 -0.1866  0.9801
 
              Baa    -0.0052    -0.735    -0.262    -0.245  0.9098  0.1683 -0.3795
     4 Na(23) Bbb     0.0009     0.131     0.047     0.044  0.3742  0.0632  0.9252
              Bcc     0.0043     0.604     0.216     0.202 -0.1796  0.9837  0.0055
 
              Baa    -0.0173    -2.448    -0.874    -0.817  0.1475  0.9818 -0.1198
     5 Na(23) Bbb    -0.0115    -1.628    -0.581    -0.543  0.9817 -0.1306  0.1385
              Bcc     0.0289     4.077     1.455     1.360 -0.1203  0.1380  0.9831
 
              Baa    -0.0075    -1.058    -0.378    -0.353 -0.0684  0.8559 -0.5127
     6 Na(23) Bbb     0.0015     0.215     0.077     0.072  0.7761 -0.2773 -0.5664
              Bcc     0.0060     0.844     0.301     0.281  0.6269  0.4366  0.6453
 
              Baa    -0.0221    -3.126    -1.115    -1.043  0.9005 -0.4190 -0.1162
     7 Na(23) Bbb    -0.0179    -2.523    -0.900    -0.842  0.4270  0.9026  0.0547
              Bcc     0.0400     5.649     2.016     1.884  0.0820 -0.0989  0.9917
 

 ---------------------------------------------------------------------------------

 No NMR shielding tensors so no spin-rotation constants.
 Leave Link  601 at Tue Nov 28 19:55:58 2023, MaxMem=  1879048192 cpu:               2.2 elap:               0.2
 (Enter /home/sekinelabo/g16/l701.exe)
 ... and contract with generalized density number  0.
 Compute integral first derivatives.
 Leave Link  701 at Tue Nov 28 19:55:58 2023, MaxMem=  1879048192 cpu:               1.5 elap:               0.1
 (Enter /home/sekinelabo/g16/l702.exe)
 L702 exits ... SP integral derivatives will be done elsewhere.
 Leave Link  702 at Tue Nov 28 19:55:58 2023, MaxMem=  1879048192 cpu:               0.4 elap:               0.0
 (Enter /home/sekinelabo/g16/l703.exe)
 Integral derivatives from FoFJK, PRISM(SPDF).
 Compute integral first derivatives, UseDBF=F ICtDFT=           0.
 Calling FoFJK, ICntrl=      2127 FMM=F ISym2X=0 I1Cent= 0 IOpClX= 1 NMat=1 NMatS=1 NMatT=0.
 FoFJK:  IHMeth= 1 ICntrl=    2127 DoSepK=F KAlg= 0 I1Cent=           0 FoldK=F
 IRaf=         0 NMat=       1 IRICut=       1 DoRegI=T DoRafI=F ISym2E= 0 IDoP0=0 IntGTp=1.
 FoFCou: FMM=F IPFlag=           0 FMFlag=      100000 FMFlg1=         800
         NFxFlg=           0 DoJE=F BraDBF=F KetDBF=F FulRan=T
         wScrn=  0.000000 ICntrl=      2127 IOpCl=  1 I1Cent=           0 NGrid=           0
         NMat0=    1 NMatS0=      1 NMatT0=    0 NMatD0=    1 NMtDS0=    0 NMtDT0=    0
 Symmetry not used in FoFCou.
 Leave Link  703 at Tue Nov 28 19:56:01 2023, MaxMem=  1879048192 cpu:              34.6 elap:               2.3
 (Enter /home/sekinelabo/g16/l716.exe)
 Dipole        =-2.36704856D-02 6.92362507D-03-7.86590685D-03
 ***** Axes restored to original set *****
 -------------------------------------------------------------------
 Center     Atomic                   Forces (Hartrees/Bohr)
 Number     Number              X              Y              Z
 -------------------------------------------------------------------
      1       11           0.001973403    0.003945664    0.001126621
      2       11          -0.001191934    0.000494772   -0.002407958
      3       11          -0.000999802   -0.000864185   -0.001565417
      4       11          -0.007840798    0.000086316   -0.005381037
      5       11           0.000005605   -0.000113535    0.000775848
      6       11           0.004893105   -0.003553471    0.001221141
      7       11           0.003160421    0.000004438    0.006230801
 -------------------------------------------------------------------
 Cartesian Forces:  Max     0.007840798 RMS     0.003164690
 Z-matrix is all fixed cartesians, so copy forces.
 Force constants in Cartesian coordinates: 
                1             2             3             4             5 
      1  0.670806D-01
      2  0.222137D-01  0.116242D+00
      3 -0.292923D-02  0.507141D-02  0.790392D-01
      4 -0.921642D-02 -0.916385D-02 -0.604686D-02  0.567031D-01
      5 -0.621557D-02 -0.244312D-01 -0.229176D-01  0.959681D-02  0.741542D-01
      6  0.706082D-02  0.143573D-01 -0.288155D-01 -0.643839D-02 -0.120605D-01
      7  0.588647D-02 -0.407928D-02 -0.235713D-02 -0.109146D-01 -0.900186D-02
      8 -0.530052D-02 -0.328850D-02 -0.490122D-02 -0.982594D-02 -0.232188D-01
      9 -0.256256D-02 -0.402452D-02  0.544531D-02  0.105369D-01  0.172397D-01
     10 -0.408755D-01  0.138443D-01  0.987298D-03 -0.224043D-01  0.841850D-02
     11 -0.278885D-01 -0.256056D-01 -0.516797D-03 -0.373197D-02 -0.109002D-01
     12  0.530133D-03 -0.344506D-02 -0.191752D-01  0.226161D-01 -0.600656D-02
     13  0.733513D-02 -0.511191D-02  0.375906D-03  0.722135D-02 -0.180535D-02
     14 -0.433853D-02 -0.370123D-02  0.254303D-02 -0.138858D-02  0.171378D-02
     15  0.510790D-03  0.347891D-02  0.661816D-02  0.306090D-02  0.671074D-02
     16 -0.243677D-01 -0.119692D-01  0.256731D-03 -0.295432D-01 -0.311037D-03
     17  0.271386D-01 -0.365294D-01 -0.675771D-03  0.151008D-01 -0.254825D-01
     18  0.285986D-02 -0.762874D-03 -0.169896D-01 -0.242079D-01  0.159270D-01
     19 -0.584256D-02 -0.573376D-02  0.971327D-02  0.815402D-02 -0.681496D-03
     20 -0.560908D-02 -0.226864D-01  0.213970D-01 -0.587298D-03  0.816476D-02
     21 -0.546981D-02 -0.146751D-01 -0.261223D-01  0.479233D-03  0.110732D-02
                6             7             8             9            10 
      6  0.106985D+00
      7 -0.789086D-02  0.626880D-01
      8 -0.160704D-01  0.180980D-01  0.870434D-01
      9 -0.235296D-01  0.979585D-02  0.168304D-01  0.930636D-01
     10 -0.701673D-02 -0.216280D-01 -0.844432D-02 -0.881592D-02  0.191764D+00
     11  0.679900D-02  0.200244D-01 -0.262121D-01 -0.243484D-02 -0.236142D-01
     12 -0.179358D-01  0.166918D-01 -0.111390D-01 -0.209777D-01  0.203983D-02
     13  0.317167D-02 -0.873416D-02 -0.422376D-02 -0.990265D-02 -0.224779D-01
     14  0.589485D-02 -0.794322D-02 -0.217880D-01 -0.156032D-01 -0.818157D-02
     15  0.142230D-03  0.454081D-02  0.196742D-01 -0.298271D-01  0.598496D-02
     16  0.102370D-01 -0.345852D-01  0.118846D-01  0.368617D-02 -0.426587D-01
     17  0.266490D-03 -0.150406D-01 -0.175058D-01 -0.628579D-02  0.958599D-02
     18 -0.303739D-01 -0.183640D-01  0.110912D-02 -0.205422D-01  0.760844D-03
     19  0.876474D-03  0.728754D-02 -0.218801D-02 -0.273781D-02 -0.417200D-01
     20  0.813261D-03 -0.205739D-02  0.496988D-02 -0.572171D-02  0.839128D-02
     21 -0.647236D-02 -0.241647D-02 -0.550305D-02 -0.363229D-02  0.605972D-02
               11            12            13            14            15 
     11  0.137759D+00
     12  0.162028D-02  0.131535D+00
     13  0.254145D-01 -0.782419D-02  0.559993D-01
     14 -0.273514D-01  0.983660D-02  0.141090D-01  0.933934D-01
     15  0.734386D-03 -0.155364D-01 -0.515618D-02 -0.163172D-01  0.792762D-01
     16  0.101482D-01  0.537696D-05 -0.328246D-01  0.135011D-01 -0.254587D-02
     17 -0.221682D-01  0.643597D-03 -0.213463D-01 -0.196042D-01  0.707248D-02
     18  0.236275D-03 -0.180597D-01  0.146515D-01 -0.151162D-02 -0.187054D-01
     19 -0.352308D-03 -0.340590D-01 -0.651918D-02 -0.575822D-02 -0.639541D-02
     20 -0.255218D-01  0.849017D-02 -0.703620D-02 -0.226623D-01 -0.213535D-01
     21 -0.643831D-02 -0.398502D-01  0.468391D-02  0.151575D-01 -0.219678D-01
               16            17            18            19            20 
     16  0.188716D+00
     17 -0.246613D-01  0.141489D+00
     18 -0.117128D-02 -0.294315D-02  0.131631D+00
     19 -0.247365D-01  0.922280D-02  0.254709D-01  0.633767D-01
     20  0.140769D-02 -0.201992D-01 -0.120547D-01  0.549100D-02  0.779350D-01
     21 -0.104681D-01  0.192215D-02 -0.269599D-01  0.713157D-02  0.842951D-02
               21 
     21  0.125005D+00
 Leave Link  716 at Tue Nov 28 19:56:01 2023, MaxMem=  1879048192 cpu:               0.4 elap:               0.0
 (Enter /home/sekinelabo/g16/l103.exe)

 GradGradGradGradGradGradGradGradGradGradGradGradGradGradGradGradGradGrad
 Berny optimization.
 Search for a local minimum.
 Step number   1 out of a maximum of    2
 All quantities printed in internal units (Hartrees-Bohrs-Radians)
 Second derivative matrix not updated -- first step.
 ITU=  0
     Eigenvalues ---    0.06636   0.06902   0.07619   0.10163   0.10599
     Eigenvalues ---    0.10992   0.11201   0.15738   0.16534   0.16979
     Eigenvalues ---    0.17568   0.17995   0.18599   0.21608   0.25349
 Angle between quadratic step and forces=  27.82 degrees.
 Linear search not attempted -- first point.
 B after Tr=     0.000000    0.000000    0.000000
         Rot=    1.000000   -0.000000   -0.000000   -0.000000 Ang=   0.00 deg.
 Variable       Old X    -DE/DX   Delta X   Delta X   Delta X     New X
                                 (Linear)    (Quad)   (Total)
    X1       30.88568   0.00197   0.00000   0.01804   0.01804  30.90372
    Y1       34.07308   0.00395   0.00000   0.04350   0.04350  34.11658
    Z1       29.26392   0.00113   0.00000   0.01064   0.01064  29.27456
    X2       30.25149  -0.00119   0.00000  -0.00372  -0.00372  30.24777
    Y2       30.90212   0.00049   0.00000   0.01041   0.01041  30.91254
    Z2       23.81716  -0.00241   0.00000  -0.03914  -0.03914  23.77803
    X3       27.15347  -0.00100   0.00000  -0.00764  -0.00764  27.14584
    Y3       25.38488  -0.00086   0.00000  -0.02394  -0.02394  25.36094
    Z3       25.44119  -0.00157   0.00000  -0.02709  -0.02709  25.41410
    X4       26.10751  -0.00784   0.00000  -0.03929  -0.03929  26.06822
    Y4       30.34220   0.00009   0.00000   0.00179   0.00179  30.34398
    Z4       29.60483  -0.00538   0.00000  -0.02297  -0.02297  29.58186
    X5       27.42767   0.00001   0.00000  -0.01198  -0.01198  27.41569
    Y5       24.21835  -0.00011   0.00000  -0.01753  -0.01753  24.20083
    Z5       31.74438   0.00078   0.00000   0.01819   0.01819  31.76257
    X6       31.92125   0.00489   0.00000   0.02671   0.02671  31.94796
    Y6       27.92203  -0.00355   0.00000  -0.01854  -0.01854  27.90349
    Z6       28.86802   0.00122   0.00000   0.00400   0.00400  28.87203
    X7       29.25768   0.00316   0.00000   0.01788   0.01788  29.27556
    Y7       30.16211   0.00000   0.00000   0.00431   0.00431  30.16642
    Z7       34.26527   0.00623   0.00000   0.05636   0.05636  34.32163
         Item               Value     Threshold  Converged?
 Maximum Force            0.007841     0.000450     NO 
 RMS     Force            0.003165     0.000300     NO 
 Maximum Displacement     0.056362     0.001800     NO 
 RMS     Displacement     0.024683     0.001200     NO 
 Predicted change in Energy=-7.253857D-04
 GradGradGradGradGradGradGradGradGradGradGradGradGradGradGradGradGradGrad

 Leave Link  103 at Tue Nov 28 19:56:01 2023, MaxMem=  1879048192 cpu:               0.2 elap:               0.0
 (Enter /home/sekinelabo/g16/l9999.exe)
 1\1\GINC-SEKINELABO-XA7R-R37\Force\UB3LYP\6-311+G(d)\Na7(2)\SEKINELABO
 \28-Nov-2023\0\\#P B3LYP/6-311+g(d) force\\DPGEN\\0,2\Na,16.344,18.030
 7,15.4858\Na,16.0084,16.3527,12.6035\Na,14.369,13.4331,13.4629\Na,13.8
 155,16.0564,15.6662\Na,14.5141,12.8158,16.7984\Na,16.892,14.7757,15.27
 63\Na,15.4825,15.9611,18.1324\\Version=ES64L-G16RevB.01\State=2-A\HF=-
 1136.1377469\S2=0.757978\S2-1=0.\S2A=0.750044\RMSD=8.844e-09\RMSF=3.16
 5e-03\Dipole=-0.001579,-0.024094,0.0093321\Quadrupole=-6.6960506,2.667
 3898,4.0286608,4.5258247,-0.2480853,-1.3104575\PG=C01 [X(Na7)]\\@


 THERE ARE TWO THINGS THAT EVERYBODY THINKS THEY CAN DO BETTER THAN
 ANYONE ELSE - PUNCH THE FIRE, AND EDIT A DAILY PAPER.
 -- UNCLE ESEK, "CENTURY MAGAZINE", 1885
 Job cpu time:       0 days  0 hours  3 minutes 43.4 seconds.
 Elapsed time:       0 days  0 hours  0 minutes 18.7 seconds.
 File lengths (MBytes):  RWF=     32 Int=      0 D2E=      0 Chk=      4 Scr=      1
 Normal termination of Gaussian 16 at Tue Nov 28 19:56:01 2023.
