 Set GAUSS_MDEF to "14GB".
 Entering Gaussian System, Link 0=g16
 Initial command:
 /home/sekinelabo/g16/l1.exe "/home/sekinelabo/g16temp/Gau-518504.inp" -scrdir="/home/sekinelabo/g16temp/"
 Entering Link 1 = /home/sekinelabo/g16/l1.exe PID=    518506.
  
 Copyright (c) 1988-2017, Gaussian, Inc.  All Rights Reserved.
  
 This is part of the Gaussian(R) 16 program.  It is based on
 the Gaussian(R) 09 system (copyright 2009, Gaussian, Inc.),
 the Gaussian(R) 03 system (copyright 2003, Gaussian, Inc.),
 the Gaussian(R) 98 system (copyright 1998, Gaussian, Inc.),
 the Gaussian(R) 94 system (copyright 1995, Gaussian, Inc.),
 the Gaussian 92(TM) system (copyright 1992, Gaussian, Inc.),
 the Gaussian 90(TM) system (copyright 1990, Gaussian, Inc.),
 the Gaussian 88(TM) system (copyright 1988, Gaussian, Inc.),
 the Gaussian 86(TM) system (copyright 1986, Carnegie Mellon
 University), and the Gaussian 82(TM) system (copyright 1983,
 Carnegie Mellon University). Gaussian is a federally registered
 trademark of Gaussian, Inc.
  
 This software contains proprietary and confidential information,
 including trade secrets, belonging to Gaussian, Inc.
  
 This software is provided under written license and may be
 used, copied, transmitted, or stored only in accord with that
 written license.
  
 The following legend is applicable only to US Government
 contracts under FAR:
  
                    RESTRICTED RIGHTS LEGEND
  
 Use, reproduction and disclosure by the US Government is
 subject to restrictions as set forth in subparagraphs (a)
 and (c) of the Commercial Computer Software - Restricted
 Rights clause in FAR 52.227-19.
  
 Gaussian, Inc.
 340 Quinnipiac St., Bldg. 40, Wallingford CT 06492
  
  
 ---------------------------------------------------------------
 Warning -- This program may not be used in any manner that
 competes with the business of Gaussian, Inc. or will provide
 assistance to any competitor of Gaussian, Inc.  The licensee
 of this program is prohibited from giving any competitor of
 Gaussian, Inc. access to this program.  By using this program,
 the user acknowledges that Gaussian, Inc. is engaged in the
 business of creating and licensing software in the field of
 computational chemistry and represents and warrants to the
 licensee that it is not a competitor of Gaussian, Inc. and that
 it will not use this program in any manner prohibited above.
 ---------------------------------------------------------------
  

 Cite this work as:
 Gaussian 16, Revision B.01,
 M. J. Frisch, G. W. Trucks, H. B. Schlegel, G. E. Scuseria, 
 M. A. Robb, J. R. Cheeseman, G. Scalmani, V. Barone, 
 G. A. Petersson, H. Nakatsuji, X. Li, M. Caricato, A. V. Marenich, 
 J. Bloino, B. G. Janesko, R. Gomperts, B. Mennucci, H. P. Hratchian, 
 J. V. Ortiz, A. F. Izmaylov, J. L. Sonnenberg, D. Williams-Young, 
 F. Ding, F. Lipparini, F. Egidi, J. Goings, B. Peng, A. Petrone, 
 T. Henderson, D. Ranasinghe, V. G. Zakrzewski, J. Gao, N. Rega, 
 G. Zheng, W. Liang, M. Hada, M. Ehara, K. Toyota, R. Fukuda, 
 J. Hasegawa, M. Ishida, T. Nakajima, Y. Honda, O. Kitao, H. Nakai, 
 T. Vreven, K. Throssell, J. A. Montgomery, Jr., J. E. Peralta, 
 F. Ogliaro, M. J. Bearpark, J. J. Heyd, E. N. Brothers, K. N. Kudin, 
 V. N. Staroverov, T. A. Keith, R. Kobayashi, J. Normand, 
 K. Raghavachari, A. P. Rendell, J. C. Burant, S. S. Iyengar, 
 J. Tomasi, M. Cossi, J. M. Millam, M. Klene, C. Adamo, R. Cammi, 
 J. W. Ochterski, R. L. Martin, K. Morokuma, O. Farkas, 
 J. B. Foresman, and D. J. Fox, Gaussian, Inc., Wallingford CT, 2016.
 
 ******************************************
 Gaussian 16:  ES64L-G16RevB.01 20-Dec-2017
                 3-Dec-2023 
 ******************************************
 %nproc=15
 Will use up to   15 processors via shared memory.
 -------------------------
 #P B3LYP/6-311+g(d) force
 -------------------------
 1/10=7,30=1,38=1/1,3;
 2/12=2,17=6,18=5,40=1/2;
 3/5=4,6=6,7=11,11=2,25=1,30=1,71=1,74=-5/1,2,3;
 4//1;
 5/5=2,38=5/2;
 6/7=2,8=2,9=2,10=2,28=1/1;
 7/29=1/1,2,3,16;
 1/10=7,30=1/3;
 99//99;
 Leave Link    1 at Sun Dec  3 16:24:18 2023, MaxMem=           0 cpu:               0.3 elap:               0.0
 (Enter /home/sekinelabo/g16/l101.exe)
 -----
 DPGEN
 -----
 Symbolic Z-matrix:
 Charge =  0 Multiplicity = 2
 Na                    15.371    11.5332   13.8717 
 Na                    10.2831   9.43532   13.4245 
 Na                    14.3731   14.6389   13.0049 
 Na                    7.9334    11.9674   12.3086 
 Na                    12.0339   14.0877   10.1165 
 Na                    13.529    10.5756   11.1669 
 Na                    9.98414   11.2695   9.61457 
 
 ITRead=  0  0  0  0  0  0  0
 MicOpt= -1 -1 -1 -1 -1 -1 -1
 NAtoms=      7 NQM=        7 NQMF=       0 NMMI=      0 NMMIF=      0
                NMic=       0 NMicF=      0.
                    Isotopes and Nuclear Properties:
 (Nuclear quadrupole moments (NQMom) in fm**2, nuclear magnetic moments (NMagM)
  in nuclear magnetons)

  Atom         1           2           3           4           5           6           7
 IAtWgt=          23          23          23          23          23          23          23
 AtmWgt=  22.9897697  22.9897697  22.9897697  22.9897697  22.9897697  22.9897697  22.9897697
 NucSpn=           3           3           3           3           3           3           3
 AtZEff=  -0.0000000  -0.0000000  -0.0000000  -0.0000000  -0.0000000  -0.0000000  -0.0000000
 NQMom=   10.4000000  10.4000000  10.4000000  10.4000000  10.4000000  10.4000000  10.4000000
 NMagM=    2.2175200   2.2175200   2.2175200   2.2175200   2.2175200   2.2175200   2.2175200
 AtZNuc=  11.0000000  11.0000000  11.0000000  11.0000000  11.0000000  11.0000000  11.0000000
 Leave Link  101 at Sun Dec  3 16:24:18 2023, MaxMem=  1879048192 cpu:               2.5 elap:               0.2
 (Enter /home/sekinelabo/g16/l103.exe)

 GradGradGradGradGradGradGradGradGradGradGradGradGradGradGradGradGradGrad
 Berny optimization.
 Initialization pass.
 Trust Radius=3.00D-01 FncErr=1.00D-07 GrdErr=1.00D-07 EigMax=2.50D+02 EigMin=1.00D-04
 Number of steps in this run=      2 maximum allowed number of steps=      2.
 GradGradGradGradGradGradGradGradGradGradGradGradGradGradGradGradGradGrad

 Leave Link  103 at Sun Dec  3 16:24:19 2023, MaxMem=  1879048192 cpu:               0.2 elap:               0.0
 (Enter /home/sekinelabo/g16/l202.exe)
                          Input orientation:                          
 ---------------------------------------------------------------------
 Center     Atomic      Atomic             Coordinates (Angstroms)
 Number     Number       Type             X           Y           Z
 ---------------------------------------------------------------------
      1         11           0       15.371000   11.533200   13.871700
      2         11           0       10.283100    9.435320   13.424500
      3         11           0       14.373100   14.638900   13.004900
      4         11           0        7.933400   11.967400   12.308600
      5         11           0       12.033900   14.087700   10.116500
      6         11           0       13.529000   10.575600   11.166900
      7         11           0        9.984140   11.269500    9.614570
 ---------------------------------------------------------------------
                    Distance matrix (angstroms):
                    1          2          3          4          5
     1  Na   0.000000
     2  Na   5.521577   0.000000
     3  Na   3.375281   6.631848   0.000000
     4  Na   7.612470   3.630117   7.006531   0.000000
     5  Na   5.635888   5.970997   3.757464   5.110291   0.000000
     6  Na   3.409678   4.114956   4.538850   5.878038   3.958978
     7  Na   6.871023   4.239005   6.489234   3.456935   3.520753
                    6          7
     6  Na   0.000000
     7  Na   3.931572   0.000000
 Stoichiometry    Na7(2)
 Framework group  C1[X(Na7)]
 Deg. of freedom    15
 Full point group                 C1      NOp   1
 Largest Abelian subgroup         C1      NOp   1
 Largest concise Abelian subgroup C1      NOp   1
                         Standard orientation:                         
 ---------------------------------------------------------------------
 Center     Atomic      Atomic             Coordinates (Angstroms)
 Number     Number       Type             X           Y           Z
 ---------------------------------------------------------------------
      1         11           0        3.551334    1.774201   -0.108222
      2         11           0       -1.877964    2.734069   -0.406873
      3         11           0        3.269961   -1.321227   -1.424152
      4         11           0       -3.636131   -0.169996   -1.692567
      5         11           0        0.272231   -2.791379    0.299450
      6         11           0        0.948991    0.783701    1.859677
      7         11           0       -2.528421   -1.009368    1.472687
 ---------------------------------------------------------------------
 Rotational constants (GHZ):           0.6741241           0.3776620           0.3174743
 Leave Link  202 at Sun Dec  3 16:24:19 2023, MaxMem=  1879048192 cpu:               0.0 elap:               0.0
 (Enter /home/sekinelabo/g16/l301.exe)
 Standard basis: 6-311+G(d) (5D, 7F)
 Ernie: Thresh=  0.10000D-02 Tol=  0.10000D-05 Strict=F.
 There are   217 symmetry adapted cartesian basis functions of A   symmetry.
 There are   210 symmetry adapted basis functions of A   symmetry.
   210 basis functions,   350 primitive gaussians,   217 cartesian basis functions
    39 alpha electrons       38 beta electrons
       nuclear repulsion energy       289.8653139548 Hartrees.
 IExCor=  402 DFT=T Ex+Corr=B3LYP ExCW=0 ScaHFX=  0.200000
 ScaDFX=  0.800000  0.720000  1.000000  0.810000 ScalE2=  1.000000  1.000000
 IRadAn=      5 IRanWt=     -1 IRanGd=            0 ICorTp=0 IEmpDi=  4
 NAtoms=    7 NActive=    7 NUniq=    7 SFac= 1.00D+00 NAtFMM=   60 NAOKFM=F Big=F
 Integral buffers will be    131072 words long.
 Raffenetti 2 integral format.
 Two-electron integral symmetry is turned on.
 Leave Link  301 at Sun Dec  3 16:24:19 2023, MaxMem=  1879048192 cpu:               0.5 elap:               0.0
 (Enter /home/sekinelabo/g16/l302.exe)
 NPDir=0 NMtPBC=     1 NCelOv=     1 NCel=       1 NClECP=     1 NCelD=      1
         NCelK=      1 NCelE2=     1 NClLst=     1 CellRange=     0.0.
 One-electron integrals computed using PRISM.
 One-electron integral symmetry used in STVInt
 NBasis=   210 RedAO= T EigKep=  9.10D-06  NBF=   210
 NBsUse=   210 1.00D-06 EigRej= -1.00D+00 NBFU=   210
 Precomputing XC quadrature grid using
 IXCGrd= 4 IRadAn=           5 IRanWt=          -1 IRanGd=           0 AccXCQ= 0.00D+00.
 Generated NRdTot=       0 NPtTot=           0 NUsed=           0 NTot=          32
 NSgBfM=   208   208   208   208   208 MxSgAt=     7 MxSgA2=     7.
 Leave Link  302 at Sun Dec  3 16:24:19 2023, MaxMem=  1879048192 cpu:               2.0 elap:               0.1
 (Enter /home/sekinelabo/g16/l303.exe)
 DipDrv:  MaxL=1.
 Leave Link  303 at Sun Dec  3 16:24:19 2023, MaxMem=  1879048192 cpu:               0.5 elap:               0.0
 (Enter /home/sekinelabo/g16/l401.exe)
 ExpMin= 7.60D-03 ExpMax= 3.62D+04 ExpMxC= 1.21D+03 IAcc=3 IRadAn=         5 AccDes= 0.00D+00
 Harris functional with IExCor=  402 and IRadAn=       5 diagonalized for initial guess.
 HarFok:  IExCor=  402 AccDes= 0.00D+00 IRadAn=         5 IDoV= 1 UseB2=F ITyADJ=14
 ICtDFT=  3500011 ScaDFX=  1.000000  1.000000  1.000000  1.000000
 FoFCou: FMM=F IPFlag=           0 FMFlag=      100000 FMFlg1=           0
         NFxFlg=           0 DoJE=T BraDBF=F KetDBF=T FulRan=T
         wScrn=  0.000000 ICntrl=       500 IOpCl=  0 I1Cent=   200000004 NGrid=           0
         NMat0=    1 NMatS0=      1 NMatT0=    0 NMatD0=    1 NMtDS0=    0 NMtDT0=    0
 Petite list used in FoFCou.
 Harris En= -1135.88520625250    
 JPrj=0 DoOrth=F DoCkMO=F.
 Initial guess <Sx>= 0.0000 <Sy>= 0.0000 <Sz>= 0.5000 <S**2>= 0.7500 S= 0.5000
 Leave Link  401 at Sun Dec  3 16:24:19 2023, MaxMem=  1879048192 cpu:               4.3 elap:               0.3
 (Enter /home/sekinelabo/g16/l502.exe)
 Keep R1 and R2 ints in memory in canonical form, NReq=506573279.
 FoFCou: FMM=F IPFlag=           0 FMFlag=           0 FMFlg1=           0
         NFxFlg=           0 DoJE=F BraDBF=F KetDBF=F FulRan=T
         wScrn=  0.000000 ICntrl=       600 IOpCl=  0 I1Cent=           0 NGrid=           0
         NMat0=    1 NMatS0=  22155 NMatT0=    0 NMatD0=    1 NMtDS0=    0 NMtDT0=    0
 Symmetry not used in FoFCou.
 Two-electron integral symmetry not used.
 UHF open shell SCF:
 Using DIIS extrapolation, IDIIS=  1040.
 NGot=  1879048192 LenX=  1388082621 LenY=  1388035091
 Requested convergence on RMS density matrix=1.00D-08 within 128 cycles.
 Requested convergence on MAX density matrix=1.00D-06.
 Requested convergence on             energy=1.00D-06.
 No special actions if energy rises.

 Cycle   1  Pass 1  IDiag  1:
 E= -1136.08715283859    
 DIIS: error= 1.03D-02 at cycle   1 NSaved=   1.
 NSaved= 1 IEnMin= 1 EnMin= -1136.08715283859     IErMin= 1 ErrMin= 1.03D-02
 ErrMax= 1.03D-02  0.00D+00 EMaxC= 1.00D-01 BMatC= 1.86D-01 BMatP= 1.86D-01
 IDIUse=3 WtCom= 8.97D-01 WtEn= 1.03D-01
 Coeff-Com:  0.100D+01
 Coeff-En:   0.100D+01
 Coeff:      0.100D+01
 Gap=     0.036 Goal=   None    Shift=    0.000
 Gap=     0.031 Goal=   None    Shift=    0.000
 GapD=    0.031 DampG=0.250 DampE=0.500 DampFc=0.2500 IDamp=-1.
 Damping current iteration by 2.50D-01
 RMSDP=7.83D-03 MaxDP=5.65D-01              OVMax= 1.78D-01

 Cycle   2  Pass 1  IDiag  1:
 E= -1136.09645196517     Delta-E=       -0.009299126580 Rises=F Damp=T
 DIIS: error= 7.17D-03 at cycle   2 NSaved=   2.
 NSaved= 2 IEnMin= 2 EnMin= -1136.09645196517     IErMin= 2 ErrMin= 7.17D-03
 ErrMax= 7.17D-03  0.00D+00 EMaxC= 1.00D-01 BMatC= 7.16D-02 BMatP= 1.86D-01
 IDIUse=3 WtCom= 9.28D-01 WtEn= 7.17D-02
 Coeff-Com: -0.129D+01 0.229D+01
 Coeff-En:   0.000D+00 0.100D+01
 Coeff:     -0.119D+01 0.219D+01
 Gap=     0.044 Goal=   None    Shift=    0.000
 Gap=     0.037 Goal=   None    Shift=    0.000
 RMSDP=4.25D-03 MaxDP=3.32D-01 DE=-9.30D-03 OVMax= 1.57D-01

 Cycle   3  Pass 1  IDiag  1:
 E= -1136.11280272588     Delta-E=       -0.016350760706 Rises=F Damp=F
 DIIS: error= 1.77D-03 at cycle   3 NSaved=   3.
 NSaved= 3 IEnMin= 3 EnMin= -1136.11280272588     IErMin= 3 ErrMin= 1.77D-03
 ErrMax= 1.77D-03  0.00D+00 EMaxC= 1.00D-01 BMatC= 1.76D-03 BMatP= 7.16D-02
 IDIUse=3 WtCom= 9.82D-01 WtEn= 1.77D-02
 Coeff-Com: -0.152D+00 0.265D+00 0.886D+00
 Coeff-En:   0.000D+00 0.000D+00 0.100D+01
 Coeff:     -0.149D+00 0.261D+00 0.888D+00
 Gap=     0.041 Goal=   None    Shift=    0.000
 Gap=     0.036 Goal=   None    Shift=    0.000
 RMSDP=1.81D-03 MaxDP=7.88D-02 DE=-1.64D-02 OVMax= 1.58D-01

 Cycle   4  Pass 1  IDiag  1:
 E= -1136.10887059990     Delta-E=        0.003932125984 Rises=F Damp=F
 DIIS: error= 3.26D-03 at cycle   4 NSaved=   4.
 NSaved= 4 IEnMin= 3 EnMin= -1136.11280272588     IErMin= 3 ErrMin= 1.77D-03
 ErrMax= 3.26D-03  0.00D+00 EMaxC= 1.00D-01 BMatC= 4.31D-03 BMatP= 1.76D-03
 IDIUse=3 WtCom= 1.49D-01 WtEn= 8.51D-01
 Coeff-Com: -0.171D-02 0.399D-02 0.612D+00 0.385D+00
 Coeff-En:   0.000D+00 0.000D+00 0.682D+00 0.318D+00
 Coeff:     -0.254D-03 0.595D-03 0.671D+00 0.328D+00
 Gap=     0.041 Goal=   None    Shift=    0.000
 Gap=     0.036 Goal=   None    Shift=    0.000
 RMSDP=8.90D-04 MaxDP=4.10D-02 DE= 3.93D-03 OVMax= 9.95D-02

 Cycle   5  Pass 1  IDiag  1:
 E= -1136.11507111472     Delta-E=       -0.006200514824 Rises=F Damp=F
 DIIS: error= 7.31D-04 at cycle   5 NSaved=   5.
 NSaved= 5 IEnMin= 5 EnMin= -1136.11507111472     IErMin= 5 ErrMin= 7.31D-04
 ErrMax= 7.31D-04  0.00D+00 EMaxC= 1.00D-01 BMatC= 1.95D-04 BMatP= 1.76D-03
 IDIUse=3 WtCom= 9.93D-01 WtEn= 7.31D-03
 Coeff-Com:  0.287D-02-0.477D-02 0.375D+00 0.176D+00 0.451D+00
 Coeff-En:   0.000D+00 0.000D+00 0.000D+00 0.000D+00 0.100D+01
 Coeff:      0.285D-02-0.473D-02 0.372D+00 0.175D+00 0.455D+00
 Gap=     0.042 Goal=   None    Shift=    0.000
 Gap=     0.036 Goal=   None    Shift=    0.000
 RMSDP=2.39D-04 MaxDP=1.11D-02 DE=-6.20D-03 OVMax= 1.71D-02

 Cycle   6  Pass 1  IDiag  1:
 E= -1136.11530600892     Delta-E=       -0.000234894195 Rises=F Damp=F
 DIIS: error= 2.32D-04 at cycle   6 NSaved=   6.
 NSaved= 6 IEnMin= 6 EnMin= -1136.11530600892     IErMin= 6 ErrMin= 2.32D-04
 ErrMax= 2.32D-04  0.00D+00 EMaxC= 1.00D-01 BMatC= 1.11D-05 BMatP= 1.95D-04
 IDIUse=3 WtCom= 9.98D-01 WtEn= 2.32D-03
 Coeff-Com: -0.245D-02 0.266D-02-0.248D-01-0.459D-01 0.190D+00 0.881D+00
 Coeff-En:   0.000D+00 0.000D+00 0.000D+00 0.000D+00 0.000D+00 0.100D+01
 Coeff:     -0.244D-02 0.265D-02-0.248D-01-0.458D-01 0.189D+00 0.881D+00
 Gap=     0.042 Goal=   None    Shift=    0.000
 Gap=     0.036 Goal=   None    Shift=    0.000
 RMSDP=1.17D-04 MaxDP=8.12D-03 DE=-2.35D-04 OVMax= 7.57D-03

 Cycle   7  Pass 1  IDiag  1:
 E= -1136.11532955411     Delta-E=       -0.000023545198 Rises=F Damp=F
 DIIS: error= 7.11D-05 at cycle   7 NSaved=   7.
 NSaved= 7 IEnMin= 7 EnMin= -1136.11532955411     IErMin= 7 ErrMin= 7.11D-05
 ErrMax= 7.11D-05  0.00D+00 EMaxC= 1.00D-01 BMatC= 2.18D-06 BMatP= 1.11D-05
 IDIUse=1 WtCom= 1.00D+00 WtEn= 0.00D+00
 Coeff-Com: -0.140D-02 0.162D-02-0.529D-01-0.429D-01 0.517D-01 0.428D+00
 Coeff-Com:  0.616D+00
 Coeff:     -0.140D-02 0.162D-02-0.529D-01-0.429D-01 0.517D-01 0.428D+00
 Coeff:      0.616D+00
 Gap=     0.042 Goal=   None    Shift=    0.000
 Gap=     0.036 Goal=   None    Shift=    0.000
 RMSDP=4.69D-05 MaxDP=2.59D-03 DE=-2.35D-05 OVMax= 3.39D-03

 Cycle   8  Pass 1  IDiag  1:
 E= -1136.11533411999     Delta-E=       -0.000004565875 Rises=F Damp=F
 DIIS: error= 5.96D-05 at cycle   8 NSaved=   8.
 NSaved= 8 IEnMin= 8 EnMin= -1136.11533411999     IErMin= 8 ErrMin= 5.96D-05
 ErrMax= 5.96D-05  0.00D+00 EMaxC= 1.00D-01 BMatC= 6.73D-07 BMatP= 2.18D-06
 IDIUse=1 WtCom= 1.00D+00 WtEn= 0.00D+00
 Coeff-Com:  0.425D-03-0.510D-03-0.254D-01-0.104D-01-0.376D-01-0.541D-01
 Coeff-Com:  0.346D+00 0.781D+00
 Coeff:      0.425D-03-0.510D-03-0.254D-01-0.104D-01-0.376D-01-0.541D-01
 Coeff:      0.346D+00 0.781D+00
 Gap=     0.042 Goal=   None    Shift=    0.000
 Gap=     0.036 Goal=   None    Shift=    0.000
 RMSDP=3.79D-05 MaxDP=1.92D-03 DE=-4.57D-06 OVMax= 3.30D-03

 Cycle   9  Pass 1  IDiag  1:
 E= -1136.11533654540     Delta-E=       -0.000002425409 Rises=F Damp=F
 DIIS: error= 3.80D-05 at cycle   9 NSaved=   9.
 NSaved= 9 IEnMin= 9 EnMin= -1136.11533654540     IErMin= 9 ErrMin= 3.80D-05
 ErrMax= 3.80D-05  0.00D+00 EMaxC= 1.00D-01 BMatC= 2.26D-07 BMatP= 6.73D-07
 IDIUse=1 WtCom= 1.00D+00 WtEn= 0.00D+00
 Coeff-Com:  0.783D-03-0.955D-03-0.393D-02 0.357D-02-0.371D-01-0.119D+00
 Coeff-Com:  0.639D-01 0.446D+00 0.647D+00
 Coeff:      0.783D-03-0.955D-03-0.393D-02 0.357D-02-0.371D-01-0.119D+00
 Coeff:      0.639D-01 0.446D+00 0.647D+00
 Gap=     0.042 Goal=   None    Shift=    0.000
 Gap=     0.036 Goal=   None    Shift=    0.000
 RMSDP=1.88D-05 MaxDP=9.95D-04 DE=-2.43D-06 OVMax= 1.83D-03

 Cycle  10  Pass 1  IDiag  1:
 E= -1136.11533748691     Delta-E=       -0.000000941514 Rises=F Damp=F
 DIIS: error= 1.71D-05 at cycle  10 NSaved=  10.
 NSaved=10 IEnMin=10 EnMin= -1136.11533748691     IErMin=10 ErrMin= 1.71D-05
 ErrMax= 1.71D-05  0.00D+00 EMaxC= 1.00D-01 BMatC= 5.28D-08 BMatP= 2.26D-07
 IDIUse=1 WtCom= 1.00D+00 WtEn= 0.00D+00
 Coeff-Com:  0.242D-03-0.296D-03 0.413D-02 0.374D-02-0.735D-02-0.275D-01
 Coeff-Com: -0.543D-01-0.365D-01 0.204D+00 0.914D+00
 Coeff:      0.242D-03-0.296D-03 0.413D-02 0.374D-02-0.735D-02-0.275D-01
 Coeff:     -0.543D-01-0.365D-01 0.204D+00 0.914D+00
 Gap=     0.042 Goal=   None    Shift=    0.000
 Gap=     0.036 Goal=   None    Shift=    0.000
 RMSDP=1.57D-05 MaxDP=9.22D-04 DE=-9.42D-07 OVMax= 1.75D-03

 Cycle  11  Pass 1  IDiag  1:
 E= -1136.11533804055     Delta-E=       -0.000000553642 Rises=F Damp=F
 DIIS: error= 1.42D-05 at cycle  11 NSaved=  11.
 NSaved=11 IEnMin=11 EnMin= -1136.11533804055     IErMin=11 ErrMin= 1.42D-05
 ErrMax= 1.42D-05  0.00D+00 EMaxC= 1.00D-01 BMatC= 2.55D-08 BMatP= 5.28D-08
 IDIUse=1 WtCom= 1.00D+00 WtEn= 0.00D+00
 Coeff-Com: -0.459D-03 0.583D-03 0.155D-02-0.228D-02 0.186D-01 0.551D-01
 Coeff-Com: -0.391D-01-0.178D+00-0.231D+00-0.138D+00 0.151D+01
 Coeff:     -0.459D-03 0.583D-03 0.155D-02-0.228D-02 0.186D-01 0.551D-01
 Coeff:     -0.391D-01-0.178D+00-0.231D+00-0.138D+00 0.151D+01
 Gap=     0.042 Goal=   None    Shift=    0.000
 Gap=     0.036 Goal=   None    Shift=    0.000
 RMSDP=2.13D-05 MaxDP=1.04D-03 DE=-5.54D-07 OVMax= 2.38D-03

 Cycle  12  Pass 1  IDiag  1:
 E= -1136.11533860933     Delta-E=       -0.000000568775 Rises=F Damp=F
 DIIS: error= 1.06D-05 at cycle  12 NSaved=  12.
 NSaved=12 IEnMin=12 EnMin= -1136.11533860933     IErMin=12 ErrMin= 1.06D-05
 ErrMax= 1.06D-05  0.00D+00 EMaxC= 1.00D-01 BMatC= 1.24D-08 BMatP= 2.55D-08
 IDIUse=1 WtCom= 1.00D+00 WtEn= 0.00D+00
 Coeff-Com:  0.314D-04-0.530D-04-0.247D-02-0.160D-02-0.833D-04-0.249D-03
 Coeff-Com:  0.464D-01 0.589D-01-0.742D-01-0.369D+00-0.434D+00 0.178D+01
 Coeff:      0.314D-04-0.530D-04-0.247D-02-0.160D-02-0.833D-04-0.249D-03
 Coeff:      0.464D-01 0.589D-01-0.742D-01-0.369D+00-0.434D+00 0.178D+01
 Gap=     0.042 Goal=   None    Shift=    0.000
 Gap=     0.036 Goal=   None    Shift=    0.000
 RMSDP=2.38D-05 MaxDP=1.10D-03 DE=-5.69D-07 OVMax= 2.74D-03

 Cycle  13  Pass 1  IDiag  1:
 E= -1136.11533903054     Delta-E=       -0.000000421209 Rises=F Damp=F
 DIIS: error= 6.07D-06 at cycle  13 NSaved=  13.
 NSaved=13 IEnMin=13 EnMin= -1136.11533903054     IErMin=13 ErrMin= 6.07D-06
 ErrMax= 6.07D-06  0.00D+00 EMaxC= 1.00D-01 BMatC= 5.34D-09 BMatP= 1.24D-08
 IDIUse=1 WtCom= 1.00D+00 WtEn= 0.00D+00
 Coeff-Com:  0.221D-03-0.282D-03-0.148D-02 0.689D-03-0.907D-02-0.237D-01
 Coeff-Com:  0.263D-01 0.880D-01 0.928D-01 0.538D-02-0.572D+00-0.106D+00
 Coeff-Com:  0.150D+01
 Coeff:      0.221D-03-0.282D-03-0.148D-02 0.689D-03-0.907D-02-0.237D-01
 Coeff:      0.263D-01 0.880D-01 0.928D-01 0.538D-02-0.572D+00-0.106D+00
 Coeff:      0.150D+01
 Gap=     0.042 Goal=   None    Shift=    0.000
 Gap=     0.036 Goal=   None    Shift=    0.000
 RMSDP=1.82D-05 MaxDP=7.48D-04 DE=-4.21D-07 OVMax= 2.14D-03

 Cycle  14  Pass 1  IDiag  1:
 E= -1136.11533921838     Delta-E=       -0.000000187844 Rises=F Damp=F
 DIIS: error= 3.77D-06 at cycle  14 NSaved=  14.
 NSaved=14 IEnMin=14 EnMin= -1136.11533921838     IErMin=14 ErrMin= 3.77D-06
 ErrMax= 3.77D-06  0.00D+00 EMaxC= 1.00D-01 BMatC= 1.95D-09 BMatP= 5.34D-09
 IDIUse=1 WtCom= 1.00D+00 WtEn= 0.00D+00
 Coeff-Com:  0.401D-04-0.444D-04 0.660D-03 0.693D-03-0.200D-02-0.506D-02
 Coeff-Com: -0.113D-01-0.118D-01 0.621D-01 0.157D+00 0.136D+00-0.954D+00
 Coeff-Com:  0.205D+00 0.142D+01
 Coeff:      0.401D-04-0.444D-04 0.660D-03 0.693D-03-0.200D-02-0.506D-02
 Coeff:     -0.113D-01-0.118D-01 0.621D-01 0.157D+00 0.136D+00-0.954D+00
 Coeff:      0.205D+00 0.142D+01
 Gap=     0.042 Goal=   None    Shift=    0.000
 Gap=     0.036 Goal=   None    Shift=    0.000
 RMSDP=1.49D-05 MaxDP=5.74D-04 DE=-1.88D-07 OVMax= 1.76D-03

 Cycle  15  Pass 1  IDiag  1:
 E= -1136.11533929006     Delta-E=       -0.000000071676 Rises=F Damp=F
 DIIS: error= 1.54D-06 at cycle  15 NSaved=  15.
 NSaved=15 IEnMin=15 EnMin= -1136.11533929006     IErMin=15 ErrMin= 1.54D-06
 ErrMax= 1.54D-06  0.00D+00 EMaxC= 1.00D-01 BMatC= 3.69D-10 BMatP= 1.95D-09
 IDIUse=1 WtCom= 1.00D+00 WtEn= 0.00D+00
 Coeff-Com: -0.719D-04 0.944D-04 0.586D-03-0.235D-03 0.262D-02 0.622D-02
 Coeff-Com: -0.461D-02-0.280D-01-0.260D-01 0.465D-02 0.181D+00-0.650D-01
 Coeff-Com: -0.388D+00 0.177D+00 0.114D+01
 Coeff:     -0.719D-04 0.944D-04 0.586D-03-0.235D-03 0.262D-02 0.622D-02
 Coeff:     -0.461D-02-0.280D-01-0.260D-01 0.465D-02 0.181D+00-0.650D-01
 Coeff:     -0.388D+00 0.177D+00 0.114D+01
 Gap=     0.042 Goal=   None    Shift=    0.000
 Gap=     0.036 Goal=   None    Shift=    0.000
 RMSDP=4.88D-06 MaxDP=1.85D-04 DE=-7.17D-08 OVMax= 5.82D-04

 Cycle  16  Pass 1  IDiag  1:
 E= -1136.11533929737     Delta-E=       -0.000000007312 Rises=F Damp=F
 DIIS: error= 2.95D-07 at cycle  16 NSaved=  16.
 NSaved=16 IEnMin=16 EnMin= -1136.11533929737     IErMin=16 ErrMin= 2.95D-07
 ErrMax= 2.95D-07  0.00D+00 EMaxC= 1.00D-01 BMatC= 3.80D-11 BMatP= 3.69D-10
 IDIUse=1 WtCom= 1.00D+00 WtEn= 0.00D+00
 Coeff-Com: -0.608D-05 0.664D-05-0.137D-04-0.799D-04 0.358D-03 0.572D-03
 Coeff-Com:  0.101D-02 0.551D-03-0.859D-02-0.138D-01-0.769D-02 0.986D-01
 Coeff-Com: -0.397D-01-0.166D+00 0.533D-01 0.108D+01
 Coeff:     -0.608D-05 0.664D-05-0.137D-04-0.799D-04 0.358D-03 0.572D-03
 Coeff:      0.101D-02 0.551D-03-0.859D-02-0.138D-01-0.769D-02 0.986D-01
 Coeff:     -0.397D-01-0.166D+00 0.533D-01 0.108D+01
 Gap=     0.042 Goal=   None    Shift=    0.000
 Gap=     0.036 Goal=   None    Shift=    0.000
 RMSDP=1.06D-06 MaxDP=3.33D-05 DE=-7.31D-09 OVMax= 1.30D-04

 Cycle  17  Pass 1  IDiag  1:
 E= -1136.11533929788     Delta-E=       -0.000000000515 Rises=F Damp=F
 DIIS: error= 1.37D-07 at cycle  17 NSaved=  17.
 NSaved=17 IEnMin=17 EnMin= -1136.11533929788     IErMin=17 ErrMin= 1.37D-07
 ErrMax= 1.37D-07  0.00D+00 EMaxC= 1.00D-01 BMatC= 9.65D-12 BMatP= 3.80D-11
 IDIUse=1 WtCom= 1.00D+00 WtEn= 0.00D+00
 Coeff-Com:  0.111D-04-0.147D-04-0.129D-03 0.295D-04-0.467D-03-0.108D-02
 Coeff-Com:  0.166D-02 0.457D-02 0.264D-02-0.501D-02-0.275D-01 0.155D-01
 Coeff-Com:  0.651D-01-0.176D-01-0.228D+00-0.537D-01 0.124D+01
 Coeff:      0.111D-04-0.147D-04-0.129D-03 0.295D-04-0.467D-03-0.108D-02
 Coeff:      0.166D-02 0.457D-02 0.264D-02-0.501D-02-0.275D-01 0.155D-01
 Coeff:      0.651D-01-0.176D-01-0.228D+00-0.537D-01 0.124D+01
 Gap=     0.042 Goal=   None    Shift=    0.000
 Gap=     0.036 Goal=   None    Shift=    0.000
 RMSDP=3.79D-07 MaxDP=2.09D-05 DE=-5.15D-10 OVMax= 4.22D-05

 Cycle  18  Pass 1  IDiag  1:
 E= -1136.11533929800     Delta-E=       -0.000000000120 Rises=F Damp=F
 DIIS: error= 8.58D-08 at cycle  18 NSaved=  18.
 NSaved=18 IEnMin=18 EnMin= -1136.11533929800     IErMin=18 ErrMin= 8.58D-08
 ErrMax= 8.58D-08  0.00D+00 EMaxC= 1.00D-01 BMatC= 2.68D-12 BMatP= 9.65D-12
 IDIUse=1 WtCom= 1.00D+00 WtEn= 0.00D+00
 Coeff-Com:  0.254D-05-0.311D-05-0.110D-04 0.803D-05-0.903D-04-0.200D-03
 Coeff-Com:  0.250D-03 0.944D-04 0.151D-02 0.291D-03 0.570D-02-0.250D-01
 Coeff-Com:  0.939D-02 0.402D-01-0.751D-02-0.286D+00 0.120D+00 0.114D+01
 Coeff:      0.254D-05-0.311D-05-0.110D-04 0.803D-05-0.903D-04-0.200D-03
 Coeff:      0.250D-03 0.944D-04 0.151D-02 0.291D-03 0.570D-02-0.250D-01
 Coeff:      0.939D-02 0.402D-01-0.751D-02-0.286D+00 0.120D+00 0.114D+01
 Gap=     0.042 Goal=   None    Shift=    0.000
 Gap=     0.036 Goal=   None    Shift=    0.000
 RMSDP=1.71D-07 MaxDP=9.65D-06 DE=-1.20D-10 OVMax= 2.06D-05

 Cycle  19  Pass 1  IDiag  1:
 E= -1136.11533929802     Delta-E=       -0.000000000016 Rises=F Damp=F
 DIIS: error= 5.04D-08 at cycle  19 NSaved=  19.
 NSaved=19 IEnMin=19 EnMin= -1136.11533929802     IErMin=19 ErrMin= 5.04D-08
 ErrMax= 5.04D-08  0.00D+00 EMaxC= 1.00D-01 BMatC= 6.92D-13 BMatP= 2.68D-12
 IDIUse=1 WtCom= 1.00D+00 WtEn= 0.00D+00
 Coeff-Com: -0.248D-05 0.334D-05 0.340D-04-0.456D-05 0.963D-04 0.141D-03
 Coeff-Com: -0.158D-03-0.875D-03-0.735D-03 0.606D-03 0.670D-02-0.336D-02
 Coeff-Com: -0.164D-01 0.824D-02 0.481D-01-0.913D-02-0.270D+00-0.847D-01
 Coeff-Com:  0.132D+01
 Coeff:     -0.248D-05 0.334D-05 0.340D-04-0.456D-05 0.963D-04 0.141D-03
 Coeff:     -0.158D-03-0.875D-03-0.735D-03 0.606D-03 0.670D-02-0.336D-02
 Coeff:     -0.164D-01 0.824D-02 0.481D-01-0.913D-02-0.270D+00-0.847D-01
 Coeff:      0.132D+01
 Gap=     0.042 Goal=   None    Shift=    0.000
 Gap=     0.036 Goal=   None    Shift=    0.000
 RMSDP=1.11D-07 MaxDP=6.15D-06 DE=-1.59D-11 OVMax= 1.37D-05

 Cycle  20  Pass 1  IDiag  1:
 E= -1136.11533929804     Delta-E=       -0.000000000015 Rises=F Damp=F
 DIIS: error= 2.49D-08 at cycle  20 NSaved=  20.
 NSaved=20 IEnMin=20 EnMin= -1136.11533929804     IErMin=20 ErrMin= 2.49D-08
 ErrMax= 2.49D-08  0.00D+00 EMaxC= 1.00D-01 BMatC= 1.29D-13 BMatP= 6.92D-13
 IDIUse=1 WtCom= 1.00D+00 WtEn= 0.00D+00
 Coeff-Com: -0.108D-05 0.136D-05 0.360D-06-0.337D-05 0.269D-04 0.813D-04
 Coeff-Com: -0.355D-05-0.223D-03-0.498D-03-0.106D-03-0.293D-03 0.462D-02
 Coeff-Com: -0.287D-02-0.483D-02 0.817D-03 0.382D-01 0.431D-01-0.238D+00
 Coeff-Com: -0.240D+00 0.140D+01
 Coeff:     -0.108D-05 0.136D-05 0.360D-06-0.337D-05 0.269D-04 0.813D-04
 Coeff:     -0.355D-05-0.223D-03-0.498D-03-0.106D-03-0.293D-03 0.462D-02
 Coeff:     -0.287D-02-0.483D-02 0.817D-03 0.382D-01 0.431D-01-0.238D+00
 Coeff:     -0.240D+00 0.140D+01
 Gap=     0.042 Goal=   None    Shift=    0.000
 Gap=     0.036 Goal=   None    Shift=    0.000
 RMSDP=6.73D-08 MaxDP=3.58D-06 DE=-1.50D-11 OVMax= 6.00D-06

 Cycle  21  Pass 1  IDiag  1:
 E= -1136.11533929803     Delta-E=        0.000000000007 Rises=F Damp=F
 DIIS: error= 1.05D-08 at cycle  21 NSaved=  20.
 NSaved=20 IEnMin=19 EnMin= -1136.11533929804     IErMin=20 ErrMin= 1.05D-08
 ErrMax= 1.05D-08  0.00D+00 EMaxC= 1.00D-01 BMatC= 2.98D-14 BMatP= 1.29D-13
 IDIUse=1 WtCom= 1.00D+00 WtEn= 0.00D+00
 Coeff-Com:  0.974D-08-0.476D-05-0.103D-05-0.484D-05 0.325D-05 0.153D-04
 Coeff-Com:  0.634D-04 0.139D-04-0.277D-03-0.544D-03 0.748D-03 0.198D-02
 Coeff-Com: -0.172D-02-0.688D-02 0.482D-02 0.553D-01-0.244D-01-0.271D+00
 Coeff-Com:  0.210D+00 0.103D+01
 Coeff:      0.974D-08-0.476D-05-0.103D-05-0.484D-05 0.325D-05 0.153D-04
 Coeff:      0.634D-04 0.139D-04-0.277D-03-0.544D-03 0.748D-03 0.198D-02
 Coeff:     -0.172D-02-0.688D-02 0.482D-02 0.553D-01-0.244D-01-0.271D+00
 Coeff:      0.210D+00 0.103D+01
 Gap=     0.042 Goal=   None    Shift=    0.000
 Gap=     0.036 Goal=   None    Shift=    0.000
 RMSDP=2.12D-08 MaxDP=9.00D-07 DE= 7.28D-12 OVMax= 2.02D-06

 Cycle  22  Pass 1  IDiag  1:
 E= -1136.11533929804     Delta-E=       -0.000000000014 Rises=F Damp=F
 DIIS: error= 3.23D-09 at cycle  22 NSaved=  20.
 NSaved=20 IEnMin=20 EnMin= -1136.11533929804     IErMin=20 ErrMin= 3.23D-09
 ErrMax= 3.23D-09  0.00D+00 EMaxC= 1.00D-01 BMatC= 6.38D-15 BMatP= 2.98D-14
 IDIUse=1 WtCom= 1.00D+00 WtEn= 0.00D+00
 Coeff-Com: -0.351D-06-0.567D-06-0.531D-07 0.516D-06 0.699D-05-0.101D-04
 Coeff-Com:  0.207D-04-0.127D-03 0.429D-03-0.731D-03-0.217D-03 0.151D-02
 Coeff-Com:  0.124D-02-0.127D-01-0.816D-04 0.496D-01 0.144D-01-0.251D+00
 Coeff-Com:  0.812D-01 0.112D+01
 Coeff:     -0.351D-06-0.567D-06-0.531D-07 0.516D-06 0.699D-05-0.101D-04
 Coeff:      0.207D-04-0.127D-03 0.429D-03-0.731D-03-0.217D-03 0.151D-02
 Coeff:      0.124D-02-0.127D-01-0.816D-04 0.496D-01 0.144D-01-0.251D+00
 Coeff:      0.812D-01 0.112D+01
 Gap=     0.042 Goal=   None    Shift=    0.000
 Gap=     0.036 Goal=   None    Shift=    0.000
 RMSDP=1.07D-08 MaxDP=5.11D-07 DE=-1.36D-11 OVMax= 7.99D-07

 Cycle  23  Pass 1  IDiag  1:
 E= -1136.11533929803     Delta-E=        0.000000000012 Rises=F Damp=F
 DIIS: error= 2.04D-09 at cycle  23 NSaved=  20.
 NSaved=20 IEnMin=19 EnMin= -1136.11533929804     IErMin=20 ErrMin= 2.04D-09
 ErrMax= 2.04D-09  0.00D+00 EMaxC= 1.00D-01 BMatC= 1.76D-15 BMatP= 6.38D-15
 IDIUse=1 WtCom= 1.00D+00 WtEn= 0.00D+00
 Large coefficients: NSaved= 20 BigCof=    0.00 CofMax=   10.00 Det=-3.05D-15
 Inversion failed.  Reducing to 19 matrices.
 Large coefficients: NSaved= 19 BigCof=    0.00 CofMax=   10.00 Det=-3.24D-15
 Inversion failed.  Reducing to 18 matrices.
 Large coefficients: NSaved= 18 BigCof=    0.00 CofMax=   10.00 Det=-3.36D-15
 Inversion failed.  Reducing to 17 matrices.
 Large coefficients: NSaved= 17 BigCof=    0.00 CofMax=   10.00 Det=-3.36D-15
 Inversion failed.  Reducing to 16 matrices.
 Large coefficients: NSaved= 16 BigCof=    0.00 CofMax=   10.00 Det=-3.36D-15
 Inversion failed.  Reducing to 15 matrices.
 Coeff-Com:  0.104D-06-0.111D-05 0.743D-04-0.102D-03-0.391D-04 0.832D-04
 Coeff-Com:  0.425D-03-0.143D-02-0.673D-02 0.973D-02 0.462D-01-0.720D-01
 Coeff-Com: -0.246D+00 0.203D+00 0.107D+01
 Coeff:      0.104D-06-0.111D-05 0.743D-04-0.102D-03-0.391D-04 0.832D-04
 Coeff:      0.425D-03-0.143D-02-0.673D-02 0.973D-02 0.462D-01-0.720D-01
 Coeff:     -0.246D+00 0.203D+00 0.107D+01
 Gap=     0.042 Goal=   None    Shift=    0.000
 Gap=     0.036 Goal=   None    Shift=    0.000
 RMSDP=5.74D-09 MaxDP=3.01D-07 DE= 1.23D-11 OVMax= 4.76D-07

 SCF Done:  E(UB3LYP) =  -1136.11533930     A.U. after   23 cycles
            NFock= 23  Conv=0.57D-08     -V/T= 2.0030
 <Sx>= 0.0000 <Sy>= 0.0000 <Sz>= 0.5000 <S**2>= 0.7841 S= 0.5169
 <L.S>= 0.000000000000E+00
 KE= 1.132771614233D+03 PE=-3.308695610036D+03 EE= 7.499433425508D+02
 Annihilation of the first spin contaminant:
 S**2 before annihilation     0.7841,   after     0.7506
 Leave Link  502 at Sun Dec  3 16:24:38 2023, MaxMem=  1879048192 cpu:             206.5 elap:              18.5
 (Enter /home/sekinelabo/g16/l601.exe)
 Copying SCF densities to generalized density rwf, IOpCl= 1 IROHF=0.

 **********************************************************************

            Population analysis using the SCF Density.

 **********************************************************************

 Orbital symmetries:
 Alpha Orbitals:
       Occupied  (A) (A) (A) (A) (A) (A) (A) (A) (A) (A) (A) (A)
                 (A) (A) (A) (A) (A) (A) (A) (A) (A) (A) (A) (A)
                 (A) (A) (A) (A) (A) (A) (A) (A) (A) (A) (A) (A)
                 (A) (A) (A)
       Virtual   (A) (A) (A) (A) (A) (A) (A) (A) (A) (A) (A) (A)
                 (A) (A) (A) (A) (A) (A) (A) (A) (A) (A) (A) (A)
                 (A) (A) (A) (A) (A) (A) (A) (A) (A) (A) (A) (A)
                 (A) (A) (A) (A) (A) (A) (A) (A) (A) (A) (A) (A)
                 (A) (A) (A) (A) (A) (A) (A) (A) (A) (A) (A) (A)
                 (A) (A) (A) (A) (A) (A) (A) (A) (A) (A) (A) (A)
                 (A) (A) (A) (A) (A) (A) (A) (A) (A) (A) (A) (A)
                 (A) (A) (A) (A) (A) (A) (A) (A) (A) (A) (A) (A)
                 (A) (A) (A) (A) (A) (A) (A) (A) (A) (A) (A) (A)
                 (A) (A) (A) (A) (A) (A) (A) (A) (A) (A) (A) (A)
                 (A) (A) (A) (A) (A) (A) (A) (A) (A) (A) (A) (A)
                 (A) (A) (A) (A) (A) (A) (A) (A) (A) (A) (A) (A)
                 (A) (A) (A) (A) (A) (A) (A) (A) (A) (A) (A) (A)
                 (A) (A) (A) (A) (A) (A) (A) (A) (A) (A) (A) (A)
                 (A) (A) (A)
 Beta  Orbitals:
       Occupied  (A) (A) (A) (A) (A) (A) (A) (A) (A) (A) (A) (A)
                 (A) (A) (A) (A) (A) (A) (A) (A) (A) (A) (A) (A)
                 (A) (A) (A) (A) (A) (A) (A) (A) (A) (A) (A) (A)
                 (A) (A)
       Virtual   (A) (A) (A) (A) (A) (A) (A) (A) (A) (A) (A) (A)
                 (A) (A) (A) (A) (A) (A) (A) (A) (A) (A) (A) (A)
                 (A) (A) (A) (A) (A) (A) (A) (A) (A) (A) (A) (A)
                 (A) (A) (A) (A) (A) (A) (A) (A) (A) (A) (A) (A)
                 (A) (A) (A) (A) (A) (A) (A) (A) (A) (A) (A) (A)
                 (A) (A) (A) (A) (A) (A) (A) (A) (A) (A) (A) (A)
                 (A) (A) (A) (A) (A) (A) (A) (A) (A) (A) (A) (A)
                 (A) (A) (A) (A) (A) (A) (A) (A) (A) (A) (A) (A)
                 (A) (A) (A) (A) (A) (A) (A) (A) (A) (A) (A) (A)
                 (A) (A) (A) (A) (A) (A) (A) (A) (A) (A) (A) (A)
                 (A) (A) (A) (A) (A) (A) (A) (A) (A) (A) (A) (A)
                 (A) (A) (A) (A) (A) (A) (A) (A) (A) (A) (A) (A)
                 (A) (A) (A) (A) (A) (A) (A) (A) (A) (A) (A) (A)
                 (A) (A) (A) (A) (A) (A) (A) (A) (A) (A) (A) (A)
                 (A) (A) (A) (A)
 The electronic state is 2-A.
 Alpha  occ. eigenvalues --  -38.44821 -38.44751 -38.44532 -38.44459 -38.44286
 Alpha  occ. eigenvalues --  -38.44253 -38.43247  -2.20548  -2.20544  -2.20327
 Alpha  occ. eigenvalues --   -2.20260  -2.20100  -2.20045  -2.19021  -1.14240
 Alpha  occ. eigenvalues --   -1.14217  -1.14210  -1.14194  -1.14188  -1.14148
 Alpha  occ. eigenvalues --   -1.13990  -1.13966  -1.13959  -1.13943  -1.13927
 Alpha  occ. eigenvalues --   -1.13885  -1.13770  -1.13761  -1.13732  -1.13710
 Alpha  occ. eigenvalues --   -1.13691  -1.13677  -1.12703  -1.12694  -1.12659
 Alpha  occ. eigenvalues --   -0.16617  -0.13975  -0.11426  -0.11080
 Alpha virt. eigenvalues --   -0.06858  -0.05574  -0.04628  -0.03665  -0.03177
 Alpha virt. eigenvalues --   -0.02611  -0.01896  -0.01222  -0.00877  -0.00606
 Alpha virt. eigenvalues --   -0.00341  -0.00160   0.00038   0.00318   0.00562
 Alpha virt. eigenvalues --    0.00722   0.00861   0.00992   0.01022   0.01082
 Alpha virt. eigenvalues --    0.01250   0.01475   0.01676   0.01879   0.01930
 Alpha virt. eigenvalues --    0.02073   0.02160   0.02229   0.02298   0.02393
 Alpha virt. eigenvalues --    0.02541   0.02590   0.02787   0.02793   0.02846
 Alpha virt. eigenvalues --    0.02914   0.03049   0.03128   0.03183   0.03635
 Alpha virt. eigenvalues --    0.03653   0.03741   0.03953   0.04045   0.04254
 Alpha virt. eigenvalues --    0.04573   0.04780   0.05211   0.05282   0.05492
 Alpha virt. eigenvalues --    0.05856   0.06162   0.06374   0.06681   0.06974
 Alpha virt. eigenvalues --    0.07265   0.07514   0.07990   0.08057   0.08332
 Alpha virt. eigenvalues --    0.08565   0.08788   0.09470   0.09859   0.10190
 Alpha virt. eigenvalues --    0.10339   0.11376   0.11502   0.12129   0.12496
 Alpha virt. eigenvalues --    0.12746   0.13034   0.13481   0.13804   0.14102
 Alpha virt. eigenvalues --    0.14291   0.14789   0.15377   0.15913   0.16363
 Alpha virt. eigenvalues --    0.27224   0.27675   0.28153   0.29320   0.29760
 Alpha virt. eigenvalues --    0.30129   0.30307   0.30614   0.31252   0.31946
 Alpha virt. eigenvalues --    0.32454   0.33023   0.33394   0.35355   0.35627
 Alpha virt. eigenvalues --    0.37506   0.38100   0.38490   0.40101   0.41144
 Alpha virt. eigenvalues --    0.41246   0.41637   0.42130   0.42614   0.43239
 Alpha virt. eigenvalues --    0.43610   0.43878   0.44000   0.44132   0.44318
 Alpha virt. eigenvalues --    0.44645   0.44865   0.45274   0.45414   0.45944
 Alpha virt. eigenvalues --    0.46160   0.46431   0.47402   0.48631   0.49326
 Alpha virt. eigenvalues --    0.49782   0.49935   0.50515   0.50858   0.51499
 Alpha virt. eigenvalues --    0.52300   0.53136   0.53909   0.54626   0.55521
 Alpha virt. eigenvalues --    0.56432   0.56706   0.57603   0.59744   0.62178
 Alpha virt. eigenvalues --    0.63913   2.02808   2.06015   2.09912   2.10990
 Alpha virt. eigenvalues --    2.12804   2.17090   2.18281   4.43127   4.43705
 Alpha virt. eigenvalues --    4.44302   4.44507   4.44659   4.44927   4.45152
 Alpha virt. eigenvalues --    4.45575   4.45865   4.46523   4.47114   4.47442
 Alpha virt. eigenvalues --    4.47977   4.48360   4.48683   4.50950   4.51167
 Alpha virt. eigenvalues --    4.52093   4.52467   4.53598   4.54656  96.22368
 Alpha virt. eigenvalues --   96.26038  96.30393  96.31821  96.33868  96.39158
 Alpha virt. eigenvalues --   96.40888
  Beta  occ. eigenvalues --  -38.44836 -38.44690 -38.44469 -38.44448 -38.44253
  Beta  occ. eigenvalues --  -38.44212 -38.43247  -2.20577  -2.20432  -2.20243
  Beta  occ. eigenvalues --   -2.20211  -2.20047  -2.19963  -2.19023  -1.14262
  Beta  occ. eigenvalues --   -1.14236  -1.14193  -1.14132  -1.14113  -1.14082
  Beta  occ. eigenvalues --   -1.13923  -1.13911  -1.13910  -1.13891  -1.13878
  Beta  occ. eigenvalues --   -1.13865  -1.13729  -1.13712  -1.13677  -1.13673
  Beta  occ. eigenvalues --   -1.13644  -1.13606  -1.12706  -1.12694  -1.12649
  Beta  occ. eigenvalues --   -0.15974  -0.13437  -0.11283
  Beta virt. eigenvalues --   -0.07654  -0.06752  -0.04934  -0.04291  -0.03536
  Beta virt. eigenvalues --   -0.02588  -0.02071  -0.01805  -0.01073  -0.00669
  Beta virt. eigenvalues --   -0.00486  -0.00259   0.00122   0.00221   0.00428
  Beta virt. eigenvalues --    0.00636   0.00781   0.00930   0.01039   0.01164
  Beta virt. eigenvalues --    0.01186   0.01337   0.01559   0.01748   0.01902
  Beta virt. eigenvalues --    0.02037   0.02100   0.02249   0.02257   0.02433
  Beta virt. eigenvalues --    0.02447   0.02571   0.02622   0.02808   0.02841
  Beta virt. eigenvalues --    0.02882   0.02999   0.03132   0.03213   0.03313
  Beta virt. eigenvalues --    0.03669   0.03770   0.03860   0.04032   0.04105
  Beta virt. eigenvalues --    0.04322   0.04642   0.04869   0.05249   0.05355
  Beta virt. eigenvalues --    0.05568   0.05915   0.06287   0.06472   0.06803
  Beta virt. eigenvalues --    0.06999   0.07392   0.07671   0.08080   0.08163
  Beta virt. eigenvalues --    0.08386   0.08691   0.09026   0.09610   0.10064
  Beta virt. eigenvalues --    0.10304   0.10518   0.11559   0.11733   0.12407
  Beta virt. eigenvalues --    0.12615   0.12798   0.13332   0.13743   0.13942
  Beta virt. eigenvalues --    0.14227   0.14352   0.14914   0.15472   0.16122
  Beta virt. eigenvalues --    0.16501   0.27668   0.27932   0.28479   0.29617
  Beta virt. eigenvalues --    0.30083   0.30397   0.30553   0.30940   0.31477
  Beta virt. eigenvalues --    0.32238   0.32688   0.33301   0.33650   0.35444
  Beta virt. eigenvalues --    0.35873   0.37691   0.38364   0.39021   0.40092
  Beta virt. eigenvalues --    0.41095   0.41479   0.41764   0.42415   0.42861
  Beta virt. eigenvalues --    0.43450   0.43773   0.43989   0.44141   0.44273
  Beta virt. eigenvalues --    0.44510   0.44831   0.45011   0.45417   0.45665
  Beta virt. eigenvalues --    0.46069   0.46247   0.46507   0.47569   0.48746
  Beta virt. eigenvalues --    0.49407   0.49782   0.50021   0.50691   0.50991
  Beta virt. eigenvalues --    0.51634   0.52531   0.53288   0.54071   0.54666
  Beta virt. eigenvalues --    0.55610   0.56546   0.56888   0.57699   0.60010
  Beta virt. eigenvalues --    0.62284   0.64145   2.02933   2.06107   2.09917
  Beta virt. eigenvalues --    2.11286   2.12876   2.17185   2.18404   4.43191
  Beta virt. eigenvalues --    4.43760   4.44315   4.44545   4.44701   4.44933
  Beta virt. eigenvalues --    4.45230   4.45641   4.45944   4.46556   4.47135
  Beta virt. eigenvalues --    4.47461   4.48025   4.48400   4.48722   4.50973
  Beta virt. eigenvalues --    4.51226   4.52131   4.52487   4.53666   4.54711
  Beta virt. eigenvalues --   96.22410  96.26067  96.30401  96.31912  96.33893
  Beta virt. eigenvalues --   96.39192  96.40925
          Condensed to atoms (all electrons):
               1          2          3          4          5          6
     1  Na  10.566452  -0.012477   0.085418  -0.011158   0.112705  -0.081774
     2  Na  -0.012477  11.018562  -0.014955   0.237441   0.058546   0.106589
     3  Na   0.085418  -0.014955  10.874331  -0.024092   0.026537   0.144494
     4  Na  -0.011158   0.237441  -0.024092  10.752454  -0.064682   0.038534
     5  Na   0.112705   0.058546   0.026537  -0.064682  11.601366  -0.463549
     6  Na  -0.081774   0.106589   0.144494   0.038534  -0.463549  11.460537
     7  Na   0.036910  -0.121080   0.037841   0.020041   0.103502  -0.197857
               7
     1  Na   0.036910
     2  Na  -0.121080
     3  Na   0.037841
     4  Na   0.020041
     5  Na   0.103502
     6  Na  -0.197857
     7  Na  10.692429
          Atomic-Atomic Spin Densities.
               1          2          3          4          5          6
     1  Na  -0.002865  -0.017268   0.058426   0.001510   0.017875  -0.033421
     2  Na  -0.017268  -0.172487  -0.024692   0.016988   0.033035   0.119332
     3  Na   0.058426  -0.024692   0.269397   0.007171   0.029100  -0.127441
     4  Na   0.001510   0.016988   0.007171   0.379293  -0.074324  -0.018475
     5  Na   0.017875   0.033035   0.029100  -0.074324   0.101044  -0.104351
     6  Na  -0.033421   0.119332  -0.127441  -0.018475  -0.104351   0.642057
     7  Na   0.015934  -0.060228   0.064055   0.020933   0.033333  -0.105762
               7
     1  Na   0.015934
     2  Na  -0.060228
     3  Na   0.064055
     4  Na   0.020933
     5  Na   0.033333
     6  Na  -0.105762
     7  Na   0.080098
 Mulliken charges and spin densities:
               1          2
     1  Na   0.303924   0.040191
     2  Na  -0.272628  -0.105319
     3  Na  -0.129574   0.276016
     4  Na   0.051462   0.333095
     5  Na  -0.374425   0.035713
     6  Na  -0.006974   0.371939
     7  Na   0.428215   0.048364
 Sum of Mulliken charges =  -0.00000   1.00000
 Mulliken charges and spin densities with hydrogens summed into heavy atoms:
               1          2
     1  Na   0.303924   0.040191
     2  Na  -0.272628  -0.105319
     3  Na  -0.129574   0.276016
     4  Na   0.051462   0.333095
     5  Na  -0.374425   0.035713
     6  Na  -0.006974   0.371939
     7  Na   0.428215   0.048364
 Electronic spatial extent (au):  <R**2>=           3291.8687
 Charge=             -0.0000 electrons
 Dipole moment (field-independent basis, Debye):
    X=             -0.3705    Y=              0.4039    Z=             -0.5368  Tot=              0.7672
 Quadrupole moment (field-independent basis, Debye-Ang):
   XX=            -61.5844   YY=            -70.4430   ZZ=            -67.2534
   XY=              3.3477   XZ=             -1.7719   YZ=              1.9044
 Traceless Quadrupole moment (field-independent basis, Debye-Ang):
   XX=              4.8426   YY=             -4.0161   ZZ=             -0.8265
   XY=              3.3477   XZ=             -1.7719   YZ=              1.9044
 Octapole moment (field-independent basis, Debye-Ang**2):
  XXX=              2.7887  YYY=             21.2086  ZZZ=             -0.5823  XYY=              7.7778
  XXY=             -5.3216  XXZ=             -7.2918  XZZ=            -13.1208  YZZ=             -7.0297
  YYZ=            -10.3503  XYZ=              0.5354
 Hexadecapole moment (field-independent basis, Debye-Ang**3):
 XXXX=          -3019.4585 YYYY=          -1641.4756 ZZZZ=           -915.7771 XXXY=            156.4121
 XXXZ=            -24.1425 YYYX=            -23.0469 YYYZ=            -17.4201 ZZZX=             -2.5409
 ZZZY=             26.7364 XXYY=           -755.4546 XXZZ=           -602.3798 YYZZ=           -460.9114
 XXYZ=             32.6879 YYXZ=            -18.0225 ZZXY=             16.5192
 N-N= 2.898653139548D+02 E-N=-3.308695610237D+03  KE= 1.132771614233D+03
                          Isotropic Fermi Contact Couplings
        Atom                 a.u.       MegaHertz       Gauss      10(-4) cm-1
     1  Na(23)            -0.03115     -36.84818     -13.14835     -12.29123
     2  Na(23)            -0.09520    -112.62659     -40.18797     -37.56819
     3  Na(23)             0.26672     315.53711     112.59149     105.25185
     4  Na(23)             0.27004     319.46995     113.99482     106.56370
     5  Na(23)            -0.02493     -29.49793     -10.52559      -9.83945
     6  Na(23)             0.30345     358.99580     128.09863     119.74811
     7  Na(23)             0.00804       9.51330       3.39458       3.17330
 --------------------------------------------------------
       Center         ----  Spin Dipole Couplings  ----
                      3XX-RR        3YY-RR        3ZZ-RR
 --------------------------------------------------------
     1   Atom       -0.003057     -0.002646      0.005703
     2   Atom        0.003745     -0.009140      0.005395
     3   Atom        0.000767      0.001666     -0.002433
     4   Atom        0.001819     -0.000212     -0.001607
     5   Atom       -0.004853     -0.004386      0.009239
     6   Atom        0.001063      0.004706     -0.005770
     7   Atom        0.017042     -0.020126      0.003083
 --------------------------------------------------------
                        XY            XZ            YZ
 --------------------------------------------------------
     1   Atom       -0.009540     -0.013335      0.015152
     2   Atom        0.002908      0.017177      0.004159
     3   Atom        0.003018      0.000818     -0.002380
     4   Atom       -0.002266     -0.002287     -0.002229
     5   Atom       -0.004594     -0.011467      0.009383
     6   Atom        0.006701     -0.003248     -0.001102
     7   Atom        0.006375      0.024943      0.001987
 --------------------------------------------------------


 ---------------------------------------------------------------------------------
              Anisotropic Spin Dipole Couplings in Principal Axis System
 ---------------------------------------------------------------------------------

       Atom             a.u.   MegaHertz   Gauss  10(-4) cm-1        Axes

              Baa    -0.0143    -2.016    -0.719    -0.673 -0.1783  0.7231 -0.6673
     1 Na(23) Bbb    -0.0121    -1.708    -0.609    -0.570  0.8553  0.4492  0.2583
              Bcc     0.0264     3.724     1.329     1.242 -0.4866  0.5247  0.6985
 
              Baa    -0.0128    -1.811    -0.646    -0.604 -0.6753 -0.2502  0.6938
     2 Na(23) Bbb    -0.0097    -1.375    -0.491    -0.459 -0.2880  0.9555  0.0643
              Bcc     0.0226     3.186     1.137     1.063  0.6790  0.1564  0.7173
 
              Baa    -0.0044    -0.626    -0.224    -0.209 -0.4102  0.5004  0.7625
     3 Na(23) Bbb    -0.0001    -0.013    -0.005    -0.004  0.6983 -0.3655  0.6155
              Bcc     0.0045     0.639     0.228     0.213  0.5867  0.7849 -0.1995
 
              Baa    -0.0048    -0.676    -0.241    -0.226  0.4359  0.5593  0.7052
     4 Na(23) Bbb     0.0013     0.190     0.068     0.063  0.1720  0.7173 -0.6752
              Bcc     0.0034     0.487     0.174     0.162  0.8834 -0.4156 -0.2165
 
              Baa    -0.0114    -1.606    -0.573    -0.536  0.8193 -0.1883  0.5415
     5 Na(23) Bbb    -0.0087    -1.232    -0.440    -0.411  0.3642  0.9004 -0.2379
              Bcc     0.0201     2.838     1.013     0.947 -0.4428  0.3921  0.8063
 
              Baa    -0.0074    -1.038    -0.370    -0.346  0.4810 -0.1891  0.8561
     6 Na(23) Bbb    -0.0030    -0.422    -0.151    -0.141  0.6236 -0.6125 -0.4857
              Bcc     0.0103     1.460     0.521     0.487  0.6162  0.7675 -0.1767
 
              Baa    -0.0217    -3.063    -1.093    -1.022 -0.2979  0.9276  0.2256
     7 Na(23) Bbb    -0.0150    -2.114    -0.754    -0.705 -0.5288 -0.3571  0.7700
              Bcc     0.0367     5.177     1.847     1.727  0.7947  0.1101  0.5969
 

 ---------------------------------------------------------------------------------

 No NMR shielding tensors so no spin-rotation constants.
 Leave Link  601 at Sun Dec  3 16:24:38 2023, MaxMem=  1879048192 cpu:               2.7 elap:               0.2
 (Enter /home/sekinelabo/g16/l701.exe)
 ... and contract with generalized density number  0.
 Compute integral first derivatives.
 Leave Link  701 at Sun Dec  3 16:24:38 2023, MaxMem=  1879048192 cpu:               1.6 elap:               0.1
 (Enter /home/sekinelabo/g16/l702.exe)
 L702 exits ... SP integral derivatives will be done elsewhere.
 Leave Link  702 at Sun Dec  3 16:24:38 2023, MaxMem=  1879048192 cpu:               0.4 elap:               0.0
 (Enter /home/sekinelabo/g16/l703.exe)
 Integral derivatives from FoFJK, PRISM(SPDF).
 Compute integral first derivatives, UseDBF=F ICtDFT=           0.
 Calling FoFJK, ICntrl=      2127 FMM=F ISym2X=0 I1Cent= 0 IOpClX= 1 NMat=1 NMatS=1 NMatT=0.
 FoFJK:  IHMeth= 1 ICntrl=    2127 DoSepK=F KAlg= 0 I1Cent=           0 FoldK=F
 IRaf=         0 NMat=       1 IRICut=       1 DoRegI=T DoRafI=F ISym2E= 0 IDoP0=0 IntGTp=1.
 FoFCou: FMM=F IPFlag=           0 FMFlag=      100000 FMFlg1=         800
         NFxFlg=           0 DoJE=F BraDBF=F KetDBF=F FulRan=T
         wScrn=  0.000000 ICntrl=      2127 IOpCl=  1 I1Cent=           0 NGrid=           0
         NMat0=    1 NMatS0=      1 NMatT0=    0 NMatD0=    1 NMtDS0=    0 NMtDT0=    0
 Symmetry not used in FoFCou.
 Leave Link  703 at Sun Dec  3 16:24:40 2023, MaxMem=  1879048192 cpu:              30.6 elap:               2.0
 (Enter /home/sekinelabo/g16/l716.exe)
 Dipole        =-1.45778753D-01 1.58912059D-01-2.11186270D-01
 ***** Axes restored to original set *****
 -------------------------------------------------------------------
 Center     Atomic                   Forces (Hartrees/Bohr)
 Number     Number              X              Y              Z
 -------------------------------------------------------------------
      1       11          -0.001642015   -0.000576476   -0.000017767
      2       11           0.000421439    0.003164186   -0.003013899
      3       11          -0.001293993   -0.001937370   -0.002214863
      4       11           0.002438965   -0.002255444    0.001129820
      5       11          -0.000197043   -0.001964555    0.000465713
      6       11          -0.003118727    0.002203186    0.001110932
      7       11           0.003391375    0.001366473    0.002540064
 -------------------------------------------------------------------
 Cartesian Forces:  Max     0.003391375 RMS     0.002008293
 Z-matrix is all fixed cartesians, so copy forces.
 Force constants in Cartesian coordinates: 
                1             2             3             4             5 
      1  0.215042D-01
      2 -0.722871D-02  0.311593D-01
      3  0.129860D-01 -0.281426D-02  0.264583D-01
      4 -0.181480D-02 -0.675584D-03  0.147508D-02  0.171366D-01
      5 -0.108633D-02 -0.183954D-03  0.804927D-03 -0.575173D-02  0.185289D-01
      6 -0.315794D-02 -0.106424D-02  0.252737D-02 -0.110751D-03 -0.106833D-01
      7 -0.606670D-02  0.656369D-02 -0.631751D-02  0.000000D+00 -0.487899D-04
      8 -0.308356D-03 -0.200318D-01 -0.275831D-02  0.000000D+00 -0.658256D-05
      9 -0.728272D-02  0.627562D-02 -0.905812D-02  0.144545D-05  0.369589D-04
     10 -0.132785D-04  0.000000D+00  0.904304D-05 -0.965060D-02  0.316470D-02
     11 -0.435620D-04 -0.337893D-04  0.416289D-04  0.816407D-02 -0.997305D-02
     12 -0.119748D-04  0.411882D-04 -0.642717D-05 -0.172859D-02  0.663022D-02
     13 -0.851166D-03  0.201794D-02 -0.115960D-02  0.167700D-02 -0.313079D-02
     14  0.241027D-02  0.423860D-02  0.367299D-02  0.378040D-03 -0.733269D-03
     15 -0.174766D-02  0.370598D-02 -0.592437D-03 -0.101478D-02  0.212718D-02
     16 -0.137499D-01 -0.103321D-03 -0.652533D-02 -0.968372D-02  0.751480D-02
     17  0.875707D-02 -0.174682D-01  0.174232D-03 -0.159702D-02 -0.738134D-02
     18  0.266931D-02 -0.848546D-02 -0.208496D-01  0.230611D-02 -0.191573D-03
     19  0.991650D-03 -0.574013D-03 -0.467636D-03  0.233524D-02 -0.661874D-03
     20 -0.250038D-02  0.231979D-02  0.878801D-03 -0.517064D-03 -0.250739D-03
     21 -0.345498D-02  0.234117D-02  0.152091D-02 -0.928512D-03  0.127559D-02
                6             7             8             9            10 
      6  0.187971D-01
      7 -0.242243D-04  0.111275D-01
      8 -0.435180D-05  0.239100D-03  0.381759D-01
      9  0.207456D-04  0.113546D-01  0.151647D-02  0.170045D-01
     10  0.488385D-02 -0.270178D-04  0.163081D-04  0.187685D-04  0.261719D-01
     11  0.179742D-02  0.244414D-04 -0.147530D-04 -0.169788D-04 -0.947991D-02
     12 -0.617713D-02 -0.268980D-04  0.162358D-04  0.186853D-04 -0.621049D-02
     13  0.799152D-03 -0.626988D-02  0.349137D-02 -0.558810D-02 -0.168841D-02
     14  0.200912D-03 -0.479222D-02 -0.158119D-01 -0.256531D-02  0.786648D-03
     15 -0.415145D-03 -0.437885D-02  0.839437D-02 -0.111743D-01  0.241182D-02
     16 -0.124350D-02  0.150605D-02 -0.179466D-02  0.966062D-03 -0.319903D-02
     17  0.503349D-02 -0.240365D-02 -0.422844D-02 -0.453783D-02  0.317744D-02
     18 -0.943999D-02  0.948050D-03 -0.307017D-02  0.114423D-02  0.240143D-02
     19 -0.114659D-02 -0.270279D-03 -0.164305D-02  0.529961D-03 -0.115935D-01
     20  0.472007D-02  0.417427D-03  0.191753D-02 -0.708936D-03  0.233481D-02
     21 -0.531298D-02 -0.155515D-02 -0.409425D-02  0.204421D-02 -0.351442D-02
               11            12            13            14            15 
     11  0.162110D-01
     12  0.203292D-03  0.184274D-01
     13 -0.269545D-02 -0.599548D-03  0.289944D-01
     14  0.126406D-02  0.258680D-03  0.299136D-02  0.452984D-01
     15  0.377674D-02  0.833072D-03  0.101073D-01 -0.900366D-02  0.316677D-01
     16 -0.598364D-03  0.350736D-03 -0.108981D-01 -0.251423D-02  0.739735D-03
     17  0.146177D-02 -0.157365D-02  0.697194D-02 -0.139230D-01 -0.322994D-02
     18 -0.136207D-02  0.413823D-02 -0.407557D-02  0.170072D-02 -0.787146D-02
     19  0.462878D-02  0.822676D-02 -0.109638D-01  0.740137D-03 -0.611756D-02
     20 -0.891529D-02 -0.557596D-02 -0.964637D-02 -0.203329D-01 -0.577067D-02
     21 -0.444002D-02 -0.172338D-01  0.516380D-03  0.573567D-02 -0.124474D-01
               16            17            18            19            20 
     16  0.510839D-01
     17 -0.107224D-01  0.493192D-01
     18  0.802378D-03  0.114546D-01  0.470861D-01
     19 -0.150591D-01 -0.418337D-02 -0.505170D-02  0.345599D-01
     20  0.821818D-02 -0.778001D-02 -0.459997D-04  0.169339D-02  0.330416D-01
     21  0.490992D-02 -0.732086D-02 -0.142075D-01  0.402676D-02  0.650270D-02
               21 
     21  0.456366D-01
 Leave Link  716 at Sun Dec  3 16:24:40 2023, MaxMem=  1879048192 cpu:               0.4 elap:               0.0
 (Enter /home/sekinelabo/g16/l103.exe)

 GradGradGradGradGradGradGradGradGradGradGradGradGradGradGradGradGradGrad
 Berny optimization.
 Search for a local minimum.
 Step number   1 out of a maximum of    2
 All quantities printed in internal units (Hartrees-Bohrs-Radians)
 Second derivative matrix not updated -- first step.
 ITU=  0
     Eigenvalues ---    0.00279   0.00552   0.01236   0.02010   0.02307
     Eigenvalues ---    0.03099   0.03483   0.04087   0.04470   0.04736
     Eigenvalues ---    0.05828   0.06260   0.07112   0.08023   0.09176
 Quadratic step=5.366D-01 exceeds max=3.000D-01 adjusted using Lamda=-7.846D-03.
 Angle between NR and scaled steps=  18.85 degrees.
 Angle between quadratic step and forces=  26.88 degrees.
 Linear search not attempted -- first point.
 B after Tr=     0.000000   -0.000000    0.000000
         Rot=    1.000000    0.000000    0.000000   -0.000000 Ang=   0.00 deg.
 Variable       Old X    -DE/DX   Delta X   Delta X   Delta X     New X
                                 (Linear)    (Quad)   (Total)
    X1       29.04698  -0.00164   0.00000  -0.14138  -0.14138  28.90560
    Y1       21.79459  -0.00058   0.00000  -0.02177  -0.02177  21.77282
    Z1       26.21371  -0.00002   0.00000   0.02231   0.02231  26.23603
    X2       19.43224   0.00042   0.00000   0.05457   0.05457  19.48681
    Y2       17.83017   0.00316   0.00000   0.07109   0.07109  17.90126
    Z2       25.36863  -0.00301   0.00000  -0.10126  -0.10126  25.26737
    X3       27.16122  -0.00129   0.00000  -0.03576  -0.03576  27.12547
    Y3       27.66351  -0.00194   0.00000  -0.05309  -0.05309  27.61042
    Z3       24.57570  -0.00221   0.00000  -0.09012  -0.09012  24.48557
    X4       14.99195   0.00244   0.00000   0.11652   0.11652  15.10847
    Y4       22.61511  -0.00226   0.00000  -0.03077  -0.03077  22.58434
    Z4       23.25988   0.00113   0.00000   0.05749   0.05749  23.31737
    X5       22.74078  -0.00020   0.00000  -0.01149  -0.01149  22.72928
    Y5       26.62189  -0.00196   0.00000  -0.03963  -0.03963  26.58226
    Z5       19.11741   0.00047   0.00000   0.02182   0.02182  19.13923
    X6       25.56610  -0.00312   0.00000  -0.06270  -0.06270  25.50340
    Y6       19.98499   0.00220   0.00000   0.05126   0.05126  20.03625
    Z6       21.10238   0.00111   0.00000   0.02099   0.02099  21.12337
    X7       18.86729   0.00339   0.00000   0.08025   0.08025  18.94754
    Y7       21.29627   0.00137   0.00000   0.02290   0.02290  21.31917
    Z7       18.16890   0.00254   0.00000   0.06877   0.06877  18.23768
         Item               Value     Threshold  Converged?
 Maximum Force            0.003391     0.000450     NO 
 RMS     Force            0.002008     0.000300     NO 
 Maximum Displacement     0.141380     0.001800     NO 
 RMS     Displacement     0.065526     0.001200     NO 
 Predicted change in Energy=-1.586202D-03
 GradGradGradGradGradGradGradGradGradGradGradGradGradGradGradGradGradGrad

 Leave Link  103 at Sun Dec  3 16:24:40 2023, MaxMem=  1879048192 cpu:               0.2 elap:               0.0
 (Enter /home/sekinelabo/g16/l9999.exe)
 1\1\GINC-SEKINELABO-XA7R-R37\Force\UB3LYP\6-311+G(d)\Na7(2)\SEKINELABO
 \03-Dec-2023\0\\#P B3LYP/6-311+g(d) force\\DPGEN\\0,2\Na,15.371,11.533
 2,13.8717\Na,10.2831,9.43532,13.4245\Na,14.3731,14.6389,13.0049\Na,7.9
 334,11.9674,12.3086\Na,12.0339,14.0877,10.1165\Na,13.529,10.5756,11.16
 69\Na,9.98414,11.2695,9.61457\\Version=ES64L-G16RevB.01\State=2-A\HF=-
 1136.1153393\S2=0.784128\S2-1=0.\S2A=0.750608\RMSD=5.742e-09\RMSF=2.00
 8e-03\Dipole=-0.1946259,-0.0557507,0.2238677\Quadrupole=2.705857,-1.33
 75702,-1.3682868,-0.4894231,3.2338364,2.2077466\PG=C01 [X(Na7)]\\@


 WHERE THERE IS MUCH DESIRE TO LEARN, THERE OF NECESSITY WILL BE
 MUCH ARGUING, MUCH WRITING, MANY OPINIONS; FOR OPINION IN GOOD MEN
 IS BUT KNOWLEDGE IN THE MAKING. -- JOHN MILTON.
 Job cpu time:       0 days  0 hours  4 minutes 13.6 seconds.
 Elapsed time:       0 days  0 hours  0 minutes 21.7 seconds.
 File lengths (MBytes):  RWF=     32 Int=      0 D2E=      0 Chk=      4 Scr=      1
 Normal termination of Gaussian 16 at Sun Dec  3 16:24:40 2023.
