ITEM: TIMESTEP
7710
ITEM: NUMBER OF ATOMS
7
ITEM: BOX BOUNDS xy xz yz ff ff ff
0.0000000000000000e+00 2.4052422829699999e+01 0.0000000000000000e+00
0.0000000000000000e+00 2.4052422829699999e+01 0.0000000000000000e+00
0.0000000000000000e+00 2.4052422829699999e+01 0.0000000000000000e+00
ITEM: ATOMS id type x y z fx fy fz
5 1 11.9894 9.73182 11.033 -0.0690487 0.0147251 -0.158373
2 1 11.374 15.9964 10.3765 0.0274529 -0.0679065 0.107041
4 1 12.291 13.1422 9.03166 -0.0268936 -0.0576032 0.127369
7 1 13.3751 14.2414 13.5245 -0.0751749 -0.0342329 -0.116076
3 1 11.7764 7.46547 13.8914 -0.00451916 -0.00286829 -0.0260642
1 1 10.3685 13.0201 12.4267 0.0940114 0.00812986 -0.0898475
6 1 13.009 10.5861 13.8997 0.0541721 0.139756 0.155951
