1.425079999999999991e+01 1.767610000000000170e+01 1.322029999999999994e+01 1.681490000000000151e+01 1.434789999999999921e+01 1.358840000000000003e+01 1.864059999999999917e+01 1.388449999999999918e+01 1.636309999999999931e+01 1.816969999999999885e+01 1.737389999999999901e+01 1.516419999999999924e+01 1.518560000000000088e+01 1.673209999999999908e+01 1.648629999999999995e+01 1.286420000000000030e+01 1.470889999999999986e+01 1.540440000000000076e+01 1.149980000000000047e+01 1.270209999999999972e+01 1.719879999999999853e+01
1.274610000000000021e+01 1.244909999999999961e+01 1.423700000000000010e+01 1.033120000000000083e+01 1.299949999999999939e+01 1.298540000000000028e+01 1.106339999999999968e+01 1.573949999999999960e+01 1.140820000000000078e+01 1.411209999999999987e+01 1.464189999999999969e+01 1.162819999999999965e+01 1.605600000000000094e+01 1.173949999999999960e+01 1.278759999999999941e+01 1.318759999999999977e+01 9.896539999999999893e+00 1.234299999999999997e+01 9.949419999999999931e+00 9.979870000000000019e+00 1.205649999999999977e+01
1.204589999999999961e+01 1.190310000000000024e+01 1.226249999999999929e+01 8.518829999999999458e+00 1.319979999999999976e+01 1.275740000000000052e+01 1.103589999999999982e+01 1.544500000000000028e+01 1.128640000000000043e+01 1.446579999999999977e+01 1.471320000000000050e+01 1.246289999999999942e+01 1.571119999999999983e+01 1.116489999999999938e+01 1.243270000000000053e+01 1.309070000000000000e+01 8.387980000000000658e+00 1.151350000000000051e+01 9.339259999999999451e+00 9.393509999999999138e+00 1.149220000000000041e+01
1.396209999999999951e+01 1.398189999999999955e+01 1.139179999999999993e+01 1.456010000000000026e+01 1.424959999999999916e+01 1.434800000000000075e+01 1.144699999999999918e+01 9.895070000000000476e+00 1.297560000000000002e+01 1.364939999999999998e+01 1.159900000000000020e+01 1.322049999999999947e+01 1.592149999999999999e+01 1.278240000000000087e+01 1.265530000000000044e+01 1.196080000000000076e+01 1.385219999999999985e+01 1.336200000000000010e+01 9.276960000000000761e+00 1.441769999999999996e+01 1.282460000000000022e+01
1.383140000000000036e+01 1.448279999999999923e+01 1.170480000000000054e+01 1.149050000000000082e+01 1.540959999999999930e+01 1.254550000000000054e+01 1.651940000000000097e+01 1.130519999999999925e+01 1.281569999999999965e+01 1.473300000000000054e+01 1.326149999999999984e+01 1.388339999999999996e+01 1.238369999999999926e+01 1.417709999999999937e+01 1.472339999999999982e+01 1.204039999999999999e+01 1.228999999999999915e+01 1.250040000000000084e+01 1.014179999999999993e+01 1.021400000000000041e+01 1.296710000000000029e+01
1.146739999999999959e+01 1.388809999999999967e+01 1.253700000000000081e+01 1.453550000000000075e+01 1.385089999999999932e+01 1.219020000000000081e+01 1.278989999999999938e+01 1.228030000000000044e+01 1.040339999999999954e+01 1.320209999999999972e+01 1.254369999999999941e+01 1.413579999999999970e+01 1.436059999999999981e+01 1.077810000000000024e+01 1.243159999999999954e+01 1.131489999999999974e+01 1.084849999999999959e+01 1.261340000000000039e+01 9.001569999999999183e+00 1.248249999999999993e+01 1.236059999999999981e+01
1.356220000000000070e+01 1.531709999999999994e+01 1.601810000000000045e+01 1.674279999999999902e+01 1.393800000000000061e+01 1.146599999999999930e+01 1.658170000000000144e+01 1.586069999999999958e+01 1.459950000000000081e+01 1.455889999999999951e+01 1.279720000000000013e+01 1.403100000000000058e+01 1.248990000000000045e+01 1.103730000000000011e+01 1.653640000000000043e+01 1.389620000000000033e+01 1.562250000000000050e+01 1.246819999999999951e+01 1.081290000000000084e+01 1.407169999999999987e+01 1.352539999999999942e+01
1.355410000000000004e+01 1.530749999999999922e+01 1.610719999999999885e+01 1.676379999999999981e+01 1.389649999999999963e+01 1.144609999999999950e+01 1.660200000000000031e+01 1.587330000000000041e+01 1.459029999999999916e+01 1.450949999999999918e+01 1.283539999999999992e+01 1.399349999999999916e+01 1.246759999999999913e+01 1.106259999999999977e+01 1.653020000000000067e+01 1.390489999999999959e+01 1.568219999999999992e+01 1.242970000000000041e+01 1.084259999999999913e+01 1.398719999999999963e+01 1.354749999999999943e+01
1.738619999999999877e+01 1.346930000000000049e+01 1.473000000000000043e+01 2.051970000000000027e+01 1.544190000000000040e+01 1.449810000000000088e+01 1.832469999999999999e+01 1.396540000000000070e+01 1.766730000000000089e+01 1.764910000000000068e+01 1.717170000000000130e+01 1.501750000000000007e+01 1.370320000000000071e+01 1.628280000000000172e+01 1.422809999999999953e+01 1.113010000000000055e+01 1.484890000000000043e+01 1.525639999999999930e+01 7.912810000000000343e+00 1.544580000000000020e+01 1.522840000000000060e+01
1.711210000000000164e+01 1.350000000000000000e+01 1.414600000000000080e+01 2.038299999999999912e+01 1.528200000000000003e+01 1.517639999999999922e+01 1.863429999999999964e+01 1.454429999999999978e+01 1.759669999999999845e+01 1.752560000000000073e+01 1.687280000000000157e+01 1.530439999999999934e+01 1.448690000000000033e+01 1.566210000000000058e+01 1.442929999999999957e+01 1.080790000000000006e+01 1.532879999999999932e+01 1.434629999999999939e+01 7.675959999999999894e+00 1.543570000000000064e+01 1.562659999999999982e+01
1.690690000000000026e+01 1.368079999999999963e+01 1.416060000000000052e+01 2.107649999999999935e+01 1.524160000000000004e+01 1.514669999999999916e+01 1.839770000000000039e+01 1.460219999999999985e+01 1.765619999999999834e+01 1.787610000000000099e+01 1.707679999999999865e+01 1.553539999999999921e+01 1.394929999999999914e+01 1.500709999999999944e+01 1.437429999999999986e+01 1.053609999999999935e+01 1.559750000000000014e+01 1.412330000000000041e+01 7.883140000000000036e+00 1.541999999999999993e+01 1.562940000000000040e+01
1.499579999999999913e+01 1.391479999999999961e+01 1.221969999999999956e+01 1.416610000000000014e+01 1.540569999999999951e+01 1.436139999999999972e+01 1.758930000000000149e+01 1.386270000000000024e+01 1.376060000000000016e+01 1.530620000000000047e+01 1.288530000000000086e+01 1.510050000000000026e+01 1.330189999999999984e+01 1.203999999999999915e+01 1.330940000000000012e+01 1.168689999999999962e+01 1.428240000000000087e+01 1.316430000000000078e+01 9.019510000000000360e+00 1.367479999999999940e+01 1.414980000000000082e+01
1.111660000000000004e+01 1.131489999999999974e+01 1.332010000000000005e+01 1.391810000000000080e+01 1.276570000000000071e+01 1.499489999999999945e+01 1.396460000000000079e+01 9.679280000000000328e+00 1.290109999999999957e+01 1.518340000000000067e+01 1.218329999999999913e+01 1.157390000000000008e+01 1.363530000000000086e+01 1.528299999999999947e+01 1.224939999999999962e+01 1.152299999999999969e+01 1.379950000000000010e+01 1.087470000000000070e+01 8.437319999999999709e+00 1.275270000000000081e+01 1.186420000000000030e+01
1.300109999999999921e+01 1.645550000000000068e+01 1.335590000000000011e+01 9.495789999999999509e+00 1.541089999999999982e+01 1.328529999999999944e+01 9.592890000000000583e+00 1.142350000000000065e+01 1.289489999999999981e+01 1.255889999999999951e+01 1.294619999999999926e+01 1.359549999999999947e+01 1.383419999999999916e+01 9.638289999999999580e+00 1.256719999999999970e+01 1.713090000000000046e+01 1.152420000000000044e+01 1.376319999999999943e+01 1.659550000000000125e+01 1.481060000000000088e+01 1.274709999999999965e+01
1.307300000000000040e+01 1.694460000000000122e+01 1.345129999999999981e+01 1.023019999999999996e+01 1.470020000000000060e+01 1.333370000000000033e+01 1.038449999999999918e+01 1.114830000000000076e+01 1.265990000000000038e+01 1.312899999999999956e+01 1.325600000000000023e+01 1.357729999999999926e+01 1.326140000000000008e+01 9.568590000000000373e+00 1.273070000000000057e+01 1.619150000000000134e+01 1.103389999999999915e+01 1.367559999999999931e+01 1.593960000000000043e+01 1.555749999999999922e+01 1.278059999999999974e+01
1.309539999999999971e+01 1.670080000000000098e+01 1.357530000000000037e+01 1.008580000000000076e+01 1.486899999999999977e+01 1.343350000000000044e+01 1.025150000000000006e+01 1.102379999999999960e+01 1.265269999999999939e+01 1.340670000000000073e+01 1.316360000000000063e+01 1.309210000000000029e+01 1.332220000000000049e+01 9.270479999999999166e+00 1.294529999999999959e+01 1.579920000000000080e+01 1.155719999999999992e+01 1.352260000000000062e+01 1.624830000000000041e+01 1.562439999999999962e+01 1.298770000000000024e+01
1.310180000000000078e+01 1.658920000000000172e+01 1.358479999999999954e+01 1.011350000000000016e+01 1.482959999999999923e+01 1.343340000000000067e+01 1.036749999999999972e+01 1.108649999999999913e+01 1.269389999999999930e+01 1.333789999999999942e+01 1.317559999999999931e+01 1.294800000000000040e+01 1.326099999999999923e+01 9.336970000000000880e+00 1.299399999999999977e+01 1.581670000000000087e+01 1.166619999999999990e+01 1.349060000000000059e+01 1.621089999999999876e+01 1.552510000000000012e+01 1.306460000000000043e+01
1.355669999999999931e+01 1.547799999999999976e+01 1.195240000000000080e+01 1.328880000000000017e+01 1.181329999999999991e+01 1.265090000000000003e+01 7.759660000000000224e+00 1.317360000000000042e+01 1.449249999999999972e+01 1.097560000000000002e+01 1.404599999999999937e+01 1.493820000000000014e+01 1.421460000000000079e+01 1.511430000000000007e+01 1.559999999999999964e+01 1.664600000000000080e+01 1.297240000000000038e+01 1.395519999999999960e+01 1.980730000000000146e+01 1.365099999999999980e+01 1.265939999999999976e+01
1.212689999999999912e+01 1.353860000000000063e+01 1.585909999999999975e+01 1.451909999999999989e+01 1.202590000000000003e+01 1.135590000000000011e+01 9.463380000000000791e+00 1.435490000000000066e+01 1.370320000000000071e+01 1.126420000000000066e+01 1.105349999999999966e+01 1.284070000000000000e+01 1.229349999999999987e+01 1.457029999999999959e+01 1.234909999999999997e+01 1.739049999999999940e+01 1.353780000000000072e+01 1.295209999999999972e+01 1.756980000000000075e+01 1.554649999999999999e+01 1.556729999999999947e+01
1.442249999999999943e+01 1.657849999999999824e+01 1.107569999999999943e+01 1.259040000000000070e+01 1.216980000000000040e+01 1.578580000000000005e+01 1.478379999999999939e+01 1.010519999999999996e+01 1.468769999999999953e+01 1.462470000000000070e+01 1.334859999999999935e+01 1.315740000000000087e+01 1.191639999999999944e+01 1.112550000000000061e+01 1.268950000000000067e+01 1.162689999999999912e+01 1.511880000000000024e+01 1.451009999999999955e+01 1.268660000000000032e+01 1.420480000000000054e+01 1.074499999999999922e+01
1.484149999999999991e+01 1.296909999999999918e+01 1.231189999999999962e+01 1.359670000000000023e+01 1.338180000000000014e+01 1.536539999999999928e+01 1.616140000000000043e+01 1.140930000000000000e+01 1.560839999999999961e+01 1.709199999999999875e+01 1.477919999999999945e+01 1.385999999999999943e+01 1.441740000000000066e+01 1.639410000000000167e+01 1.370829999999999949e+01 1.136960000000000015e+01 1.430829999999999913e+01 1.324709999999999965e+01 8.827949999999999520e+00 1.306489999999999974e+01 1.220539999999999914e+01
1.485899999999999999e+01 1.235960000000000036e+01 1.247400000000000020e+01 1.345780000000000065e+01 1.353529999999999944e+01 1.569120000000000026e+01 1.664189999999999969e+01 1.124719999999999942e+01 1.558290000000000042e+01 1.728679999999999950e+01 1.479519999999999946e+01 1.392919999999999980e+01 1.407789999999999964e+01 1.638909999999999911e+01 1.397749999999999915e+01 1.128420000000000023e+01 1.488770000000000060e+01 1.279529999999999923e+01 8.698990000000000222e+00 1.309249999999999936e+01 1.185650000000000048e+01
1.217859999999999943e+01 1.129749999999999943e+01 1.432779999999999987e+01 1.147819999999999929e+01 1.468750000000000000e+01 1.453850000000000087e+01 1.354930000000000057e+01 1.005230000000000068e+01 1.108469999999999978e+01 1.372819999999999929e+01 1.320739999999999981e+01 1.208290000000000042e+01 1.410389999999999944e+01 1.242220000000000013e+01 8.561799999999999855e+00 9.165190000000000836e+00 1.124949999999999939e+01 1.374319999999999986e+01 1.114920000000000044e+01 1.243619999999999948e+01 1.101370000000000005e+01
1.031150000000000055e+01 1.477130000000000010e+01 1.353159999999999918e+01 1.514419999999999966e+01 1.213330000000000020e+01 1.184089999999999954e+01 1.720550000000000068e+01 1.230770000000000053e+01 1.405129999999999946e+01 1.602189999999999870e+01 1.479390000000000072e+01 1.281600000000000072e+01 1.305899999999999928e+01 1.414160000000000039e+01 1.316820000000000057e+01 1.139799999999999969e+01 1.199779999999999980e+01 1.453400000000000070e+01 9.224019999999999442e+00 1.221860000000000035e+01 1.242210000000000036e+01
9.438629999999999853e+00 1.540789999999999971e+01 1.347170000000000023e+01 1.484759999999999991e+01 1.176099999999999923e+01 1.147589999999999932e+01 1.741120000000000090e+01 1.231240000000000023e+01 1.407210000000000072e+01 1.634550000000000125e+01 1.547199999999999953e+01 1.247220000000000084e+01 1.309900000000000020e+01 1.456039999999999957e+01 1.338739999999999952e+01 1.205059999999999931e+01 1.103180000000000049e+01 1.487139999999999951e+01 9.171580000000000510e+00 1.181859999999999999e+01 1.261350000000000016e+01
1.130899999999999928e+01 1.127340000000000053e+01 1.373300000000000054e+01 1.874650000000000105e+01 1.212139999999999951e+01 1.573390000000000022e+01 1.844819999999999993e+01 1.488320000000000043e+01 1.176430000000000042e+01 1.658859999999999957e+01 1.453550000000000075e+01 1.488189999999999991e+01 1.304160000000000075e+01 1.416060000000000052e+01 1.398550000000000004e+01 1.109590000000000032e+01 1.688560000000000016e+01 1.417950000000000088e+01 8.684900000000000730e+00 1.405499999999999972e+01 1.363659999999999961e+01
9.986280000000000712e+00 1.213189999999999991e+01 1.387170000000000059e+01 1.747710000000000008e+01 1.110730000000000040e+01 1.681559999999999988e+01 1.538610000000000078e+01 1.488119999999999976e+01 1.136619999999999919e+01 1.576270000000000060e+01 1.279550000000000054e+01 1.447400000000000020e+01 1.438630000000000031e+01 1.630659999999999954e+01 1.534849999999999959e+01 1.243529999999999980e+01 1.691479999999999961e+01 1.252169999999999916e+01 1.248080000000000034e+01 1.377740000000000009e+01 1.351689999999999969e+01
1.202430000000000021e+01 1.438560000000000016e+01 1.600799999999999912e+01 1.247530000000000072e+01 1.213160000000000061e+01 1.344619999999999926e+01 9.387119999999999465e+00 1.294280000000000008e+01 1.456869999999999976e+01 1.246599999999999930e+01 1.576640000000000086e+01 1.254030000000000022e+01 1.539850000000000030e+01 1.394989999999999952e+01 1.369089999999999918e+01 1.853490000000000038e+01 1.665840000000000032e+01 1.519159999999999933e+01 1.888029999999999831e+01 1.333169999999999966e+01 1.372070000000000078e+01
1.175660000000000061e+01 1.611489999999999867e+01 1.576720000000000077e+01 1.271879999999999988e+01 1.100050000000000061e+01 1.203420000000000023e+01 1.088010000000000055e+01 1.251960000000000051e+01 1.441179999999999950e+01 1.301529999999999987e+01 1.446850000000000058e+01 1.276640000000000086e+01 1.445870000000000033e+01 1.486369999999999969e+01 1.636609999999999943e+01 1.804860000000000042e+01 1.661339999999999861e+01 1.494529999999999959e+01 1.828829999999999956e+01 1.358569999999999922e+01 1.287540000000000084e+01
1.298029999999999973e+01 1.620439999999999969e+01 1.108029999999999937e+01 1.119190000000000040e+01 1.403930000000000078e+01 1.327730000000000032e+01 1.381300000000000061e+01 1.597630000000000017e+01 1.522029999999999994e+01 1.267120000000000068e+01 9.652509999999999479e+00 1.329069999999999929e+01 1.432060000000000066e+01 1.257290000000000063e+01 1.452299999999999969e+01 1.583670000000000044e+01 1.433450000000000024e+01 1.676000000000000156e+01 1.644320000000000093e+01 1.447710000000000008e+01 1.310529999999999973e+01
1.308680000000000021e+01 1.286890000000000001e+01 1.122480000000000011e+01 1.324140000000000050e+01 1.162679999999999936e+01 1.474349999999999916e+01 1.715739999999999910e+01 1.163230000000000075e+01 1.287689999999999912e+01 1.650179999999999936e+01 1.472579999999999956e+01 1.340109999999999957e+01 1.336849999999999916e+01 1.584759999999999991e+01 1.462119999999999997e+01 1.003919999999999924e+01 1.523620000000000019e+01 1.338219999999999921e+01 1.035699999999999932e+01 1.181460000000000043e+01 1.350249999999999950e+01
1.510989999999999966e+01 1.138760000000000083e+01 1.380809999999999960e+01 1.653229999999999933e+01 1.365429999999999922e+01 1.650730000000000075e+01 1.390719999999999956e+01 1.231600000000000072e+01 1.074849999999999994e+01 1.328289999999999971e+01 1.465729999999999933e+01 1.481709999999999994e+01 1.155189999999999984e+01 1.563359999999999950e+01 1.220110000000000028e+01 1.043839999999999968e+01 1.240010000000000012e+01 1.066329999999999956e+01 1.137609999999999921e+01 1.214990000000000059e+01 1.345340000000000025e+01
1.009680000000000000e+01 1.098709999999999987e+01 1.312950000000000017e+01 1.601269999999999882e+01 1.237420000000000009e+01 1.201629999999999932e+01 1.398550000000000004e+01 1.188889999999999958e+01 1.448709999999999987e+01 1.489600000000000080e+01 1.536989999999999945e+01 1.328110000000000035e+01 1.289129999999999932e+01 1.103700000000000081e+01 1.154739999999999966e+01 1.120850000000000080e+01 1.430719999999999992e+01 1.437909999999999933e+01 1.085769999999999946e+01 1.398409999999999975e+01 1.110800000000000054e+01
9.995860000000000412e+00 1.096419999999999995e+01 1.315150000000000041e+01 1.601289999999999836e+01 1.241080000000000005e+01 1.199019999999999975e+01 1.401409999999999911e+01 1.191310000000000002e+01 1.452309999999999945e+01 1.488579999999999970e+01 1.535650000000000048e+01 1.333750000000000036e+01 1.287669999999999959e+01 1.103599999999999959e+01 1.155480000000000018e+01 1.127009999999999934e+01 1.430729999999999968e+01 1.424269999999999925e+01 1.089289999999999914e+01 1.396069999999999922e+01 1.114879999999999960e+01
1.189429999999999943e+01 1.124569999999999936e+01 1.154860000000000042e+01 1.180489999999999995e+01 1.266580000000000084e+01 1.460120000000000040e+01 1.455509999999999948e+01 1.059389999999999965e+01 1.144580000000000020e+01 1.661510000000000176e+01 1.297240000000000038e+01 1.044270000000000032e+01 1.413920000000000066e+01 1.398359999999999914e+01 1.238410000000000011e+01 9.917120000000000601e+00 1.428979999999999961e+01 1.228090000000000082e+01 8.446519999999999584e+00 1.162100000000000044e+01 1.466869999999999941e+01
1.748479999999999990e+01 1.243820000000000014e+01 1.532600000000000051e+01 1.795720000000000027e+01 1.438410000000000011e+01 1.206559999999999988e+01 1.963810000000000144e+01 1.531499999999999950e+01 1.488069999999999915e+01 1.601259999999999906e+01 1.588669999999999938e+01 1.598969999999999914e+01 1.241859999999999964e+01 1.647479999999999833e+01 1.536219999999999963e+01 9.076840000000000686e+00 1.564860000000000007e+01 1.504889999999999972e+01 1.045969999999999978e+01 1.290049999999999919e+01 1.437470000000000070e+01
1.703219999999999956e+01 1.302730000000000032e+01 1.714709999999999823e+01 1.770499999999999829e+01 1.619399999999999906e+01 1.155310000000000059e+01 1.920400000000000063e+01 1.490269999999999939e+01 1.445589999999999975e+01 1.592120000000000068e+01 1.414930000000000021e+01 1.414589999999999925e+01 1.241799999999999926e+01 1.605069999999999908e+01 1.605570000000000164e+01 9.254400000000000404e+00 1.502020000000000088e+01 1.599990000000000023e+01 1.151299999999999990e+01 1.370340000000000025e+01 1.369020000000000081e+01
1.531390000000000029e+01 1.496030000000000015e+01 1.675219999999999843e+01 1.914329999999999998e+01 1.735770000000000124e+01 1.143130000000000024e+01 1.885450000000000159e+01 1.542779999999999951e+01 1.316460000000000008e+01 1.555039999999999978e+01 1.356329999999999991e+01 1.337330000000000041e+01 1.267590000000000039e+01 1.291559999999999953e+01 1.757019999999999982e+01 9.441990000000000549e+00 1.429950000000000010e+01 1.656210000000000093e+01 1.206770000000000032e+01 1.452360000000000007e+01 1.419400000000000084e+01
1.023520000000000074e+01 9.837899999999999423e+00 1.193650000000000055e+01 1.179110000000000014e+01 1.178810000000000002e+01 1.333460000000000001e+01 1.178999999999999915e+01 1.141150000000000020e+01 1.011769999999999925e+01 1.334430000000000049e+01 9.834289999999999310e+00 1.193609999999999971e+01 1.443040000000000056e+01 1.270270000000000010e+01 1.169120000000000026e+01 1.179739999999999966e+01 1.426140000000000008e+01 1.183970000000000056e+01 9.158599999999999852e+00 1.271110000000000007e+01 1.169130000000000003e+01
1.073450000000000060e+01 1.351270000000000060e+01 1.229889999999999972e+01 1.276040000000000063e+01 1.189499999999999957e+01 1.344529999999999959e+01 1.403780000000000072e+01 1.051089999999999947e+01 1.127779999999999916e+01 1.160110000000000063e+01 1.167370000000000019e+01 1.033009999999999984e+01 9.041349999999999554e+00 1.147259999999999991e+01 1.147269999999999968e+01 1.120199999999999996e+01 1.006409999999999982e+01 1.249729999999999919e+01 1.330940000000000012e+01 1.355760000000000076e+01 1.136449999999999960e+01
1.691639999999999944e+01 1.168169999999999931e+01 1.485619999999999941e+01 1.795080000000000098e+01 1.350880000000000081e+01 1.181559999999999988e+01 1.348629999999999995e+01 1.360880000000000045e+01 1.541660000000000075e+01 1.617210000000000036e+01 1.514819999999999922e+01 1.468859999999999921e+01 1.427909999999999968e+01 1.312010000000000076e+01 1.219149999999999956e+01 1.131259999999999977e+01 1.768420000000000059e+01 1.509539999999999971e+01 9.750289999999999679e+00 1.511560000000000059e+01 1.580349999999999966e+01
1.215789999999999971e+01 1.417789999999999928e+01 1.170379999999999932e+01 9.997830000000000439e+00 9.909610000000000696e+00 1.189359999999999928e+01 9.350020000000000664e+00 1.290339999999999954e+01 1.166980000000000040e+01 1.146610000000000085e+01 1.192379999999999995e+01 1.332510000000000083e+01 1.199070000000000036e+01 1.177009999999999934e+01 1.013330000000000020e+01 1.305320000000000036e+01 9.600540000000000518e+00 1.172049999999999947e+01 1.452769999999999939e+01 1.225799999999999912e+01 1.209740000000000038e+01
1.223460000000000036e+01 1.476239999999999952e+01 1.187880000000000003e+01 9.945999999999999730e+00 9.776970000000000383e+00 1.153410000000000046e+01 9.785679999999999268e+00 1.305460000000000065e+01 1.123010000000000019e+01 1.152169999999999916e+01 1.181760000000000055e+01 1.364980000000000082e+01 1.180819999999999936e+01 1.136120000000000019e+01 9.916669999999999874e+00 1.302669999999999995e+01 9.394130000000000535e+00 1.225789999999999935e+01 1.422059999999999924e+01 1.237659999999999982e+01 1.207610000000000028e+01
1.218699999999999939e+01 1.474070000000000036e+01 1.187059999999999960e+01 9.829560000000000741e+00 9.759900000000000020e+00 1.156429999999999936e+01 9.802450000000000330e+00 1.305610000000000070e+01 1.121950000000000003e+01 1.148990000000000045e+01 1.185120000000000040e+01 1.363310000000000066e+01 1.194589999999999996e+01 1.143689999999999962e+01 9.949040000000000106e+00 1.306809999999999938e+01 9.329689999999999372e+00 1.228190000000000026e+01 1.422049999999999947e+01 1.236890000000000001e+01 1.202500000000000036e+01
1.241169999999999973e+01 9.889160000000000394e+00 1.260180000000000078e+01 1.486389999999999922e+01 1.196180000000000021e+01 1.211899999999999977e+01 1.286780000000000079e+01 1.466339999999999932e+01 1.452860000000000085e+01 1.542890000000000050e+01 1.501340000000000074e+01 1.093890000000000029e+01 1.232399999999999984e+01 1.337959999999999994e+01 9.839069999999999538e+00 1.051490000000000080e+01 1.316520000000000046e+01 1.341520000000000046e+01 9.799749999999999517e+00 1.013850000000000051e+01 1.476839999999999975e+01
1.147180000000000000e+01 1.172039999999999971e+01 1.000050000000000061e+01 1.012870000000000026e+01 1.319950000000000045e+01 1.162059999999999960e+01 9.098150000000000404e+00 1.085459999999999958e+01 1.161190000000000033e+01 1.150980000000000025e+01 1.159989999999999988e+01 1.311739999999999995e+01 1.386979999999999968e+01 1.060389999999999944e+01 1.168490000000000073e+01 1.154279999999999973e+01 9.678309999999999746e+00 1.135859999999999914e+01 1.325189999999999912e+01 1.321649999999999991e+01 1.147920000000000051e+01
1.152319999999999922e+01 1.170609999999999928e+01 9.763299999999999201e+00 9.993930000000000646e+00 1.341849999999999987e+01 1.167280000000000051e+01 9.007469999999999644e+00 1.082530000000000037e+01 1.160459999999999958e+01 1.156140000000000079e+01 1.165520000000000067e+01 1.332639999999999958e+01 1.398140000000000072e+01 1.047119999999999962e+01 1.162570000000000014e+01 1.155059999999999931e+01 9.558740000000000236e+00 1.130569999999999986e+01 1.325500000000000078e+01 1.323789999999999978e+01 1.157450000000000045e+01
1.162010000000000076e+01 1.171749999999999936e+01 9.643739999999999313e+00 1.001590000000000025e+01 1.393609999999999971e+01 1.178810000000000002e+01 9.173289999999999722e+00 1.092680000000000007e+01 1.153589999999999982e+01 1.153359999999999985e+01 1.157189999999999941e+01 1.356530000000000058e+01 1.401229999999999976e+01 1.039840000000000053e+01 1.141460000000000008e+01 1.135200000000000031e+01 8.781639999999999446e+00 1.119759999999999955e+01 1.316569999999999929e+01 1.354069999999999929e+01 1.172770000000000046e+01
1.248450000000000060e+01 1.153030000000000044e+01 1.355380000000000074e+01 1.262689999999999912e+01 1.169420000000000037e+01 1.040879999999999939e+01 1.501149999999999984e+01 1.090659999999999918e+01 1.219350000000000023e+01 1.413369999999999926e+01 1.369880000000000031e+01 1.225869999999999926e+01 1.138030000000000008e+01 1.426849999999999952e+01 1.299089999999999989e+01 9.828670000000000684e+00 1.259900000000000020e+01 1.087119999999999997e+01 9.644859999999999545e+00 1.041300000000000026e+01 1.283350000000000080e+01
1.466849999999999987e+01 1.182339999999999947e+01 1.641760000000000019e+01 1.588569999999999993e+01 1.414020000000000010e+01 1.392890000000000050e+01 1.415440000000000076e+01 1.113369999999999926e+01 1.298140000000000072e+01 1.392699999999999960e+01 1.431080000000000041e+01 1.082249999999999979e+01 1.170770000000000088e+01 1.605870000000000175e+01 1.320110000000000028e+01 1.232230000000000025e+01 1.303829999999999956e+01 1.474900000000000055e+01 1.081279999999999930e+01 1.297339999999999982e+01 1.137790000000000035e+01
1.204170000000000051e+01 1.164049999999999940e+01 1.312850000000000072e+01 9.507880000000000109e+00 1.314930000000000021e+01 1.178389999999999915e+01 1.118159999999999954e+01 1.162800000000000011e+01 1.000699999999999967e+01 9.545260000000000744e+00 1.007169999999999987e+01 1.178930000000000078e+01 1.249130000000000074e+01 9.180180000000000007e+00 1.170960000000000001e+01 1.425120000000000076e+01 1.166869999999999941e+01 1.131729999999999947e+01 1.242839999999999989e+01 1.410899999999999999e+01 1.171170000000000044e+01
1.335989999999999966e+01 1.191639999999999944e+01 1.091469999999999985e+01 1.356719999999999970e+01 1.095490000000000030e+01 1.397209999999999930e+01 1.690050000000000097e+01 1.152779999999999916e+01 1.238930000000000042e+01 1.527609999999999957e+01 1.413930000000000042e+01 1.309350000000000058e+01 1.145650000000000013e+01 1.339589999999999925e+01 1.395529999999999937e+01 7.991410000000000124e+00 1.377749999999999986e+01 1.347669999999999924e+01 1.006290000000000084e+01 1.290259999999999962e+01 1.081300000000000061e+01
1.340470000000000006e+01 1.186020000000000074e+01 1.091060000000000052e+01 1.361619999999999919e+01 1.091600000000000037e+01 1.400370000000000026e+01 1.682260000000000133e+01 1.152009999999999934e+01 1.235820000000000007e+01 1.521790000000000020e+01 1.418679999999999986e+01 1.316210000000000058e+01 1.140130000000000088e+01 1.338979999999999926e+01 1.387959999999999994e+01 8.097929999999999851e+00 1.378400000000000070e+01 1.348380000000000045e+01 1.005390000000000050e+01 1.295759999999999934e+01 1.081639999999999979e+01
1.225130000000000052e+01 1.392149999999999999e+01 9.794399999999999551e+00 1.106179999999999986e+01 1.178780000000000072e+01 1.483939999999999948e+01 1.141629999999999967e+01 1.435710000000000086e+01 1.296589999999999954e+01 9.558299999999999130e+00 1.243130000000000024e+01 1.085360000000000014e+01 1.296710000000000029e+01 1.113390000000000057e+01 1.151319999999999943e+01 1.423859999999999992e+01 1.295049999999999990e+01 1.420299999999999940e+01 1.550549999999999962e+01 1.041670000000000051e+01 1.282939999999999969e+01
1.200440000000000040e+01 1.135839999999999961e+01 1.355269999999999975e+01 1.299910000000000032e+01 1.012839999999999918e+01 1.145429999999999993e+01 1.015900000000000070e+01 1.019200000000000017e+01 1.173359999999999914e+01 9.178589999999999804e+00 1.287420000000000009e+01 1.172770000000000046e+01 1.183029999999999937e+01 1.371299999999999919e+01 1.238560000000000016e+01 1.435340000000000060e+01 1.244490000000000052e+01 1.233699999999999974e+01 1.268640000000000079e+01 1.250029999999999930e+01 1.002020000000000088e+01
1.168929999999999936e+01 1.206160000000000032e+01 1.295539999999999914e+01 1.159389999999999965e+01 9.543029999999999902e+00 1.251360000000000028e+01 1.412129999999999974e+01 1.161720000000000041e+01 1.214109999999999978e+01 1.189020000000000010e+01 1.382349999999999923e+01 1.102660000000000018e+01 9.275019999999999598e+00 1.246400000000000041e+01 1.215949999999999953e+01 1.001880000000000059e+01 1.050869999999999926e+01 1.053410000000000046e+01 1.254390000000000072e+01 1.111430000000000007e+01 9.801920000000000854e+00
1.237669999999999959e+01 1.146770000000000067e+01 1.092140000000000022e+01 1.238279999999999959e+01 1.147729999999999961e+01 1.389910000000000068e+01 9.808080000000000354e+00 1.096059999999999945e+01 1.232760000000000034e+01 9.354409999999999670e+00 1.395190000000000019e+01 1.246180000000000021e+01 1.234350000000000058e+01 1.399179999999999957e+01 1.233419999999999916e+01 1.550050000000000061e+01 1.393779999999999930e+01 1.231980000000000075e+01 1.505489999999999995e+01 1.103379999999999939e+01 1.255710000000000015e+01