-3.091529017078400284e+04
-3.091544164323766017e+04
-3.091547464656746888e+04
-3.091358675079435852e+04
-3.091396764815984716e+04
-3.091424633629322125e+04
-3.091546906279100949e+04
-3.091547780825843438e+04
-3.091487465427659845e+04
-3.091505677083287082e+04
-3.091495033648882236e+04
-3.091382902982082669e+04
-3.091561034403628582e+04
-3.091526558148693948e+04
-3.091561526902508194e+04
-3.091553491162458522e+04
-3.091559433530564274e+04
-3.091490518517985402e+04
-3.091509604584298359e+04
-3.091545328644560504e+04
-3.091525847686609995e+04
-3.091519802051293664e+04
-3.091536268368607489e+04
-3.091443929549845416e+04
-3.091490406924090712e+04
-3.091447023402827472e+04
-3.091505608102423139e+04
-3.091505864134356307e+04
-3.091498465222378945e+04
-3.091536866692568219e+04
-3.091517254194776979e+04
-3.091527862336014005e+04
-3.091563452870004039e+04
-3.091562822599875653e+04
-3.091495783404207396e+04
-3.091483693494143881e+04
-3.091512323301109791e+04
-3.091508963756152298e+04
-3.091511222328421718e+04
-3.091371165078511694e+04
-3.091495710532115481e+04
-3.091510001217464014e+04
-3.091560055582853602e+04
-3.091568731361918981e+04
-3.091514737821833842e+04
-3.091269683261182217e+04
-3.091441150913562160e+04
-3.091573451367343296e+04
-3.091501018412327903e+04
-3.091558517159921030e+04
-3.091510974215001988e+04
-3.091517091770012485e+04
-3.091516224134962249e+04
-3.091561530167874662e+04
-3.091400696670817342e+04
-3.091375297154724103e+04
-3.091480325268754677e+04
-3.091426191154648041e+04
-3.091557712900188926e+04
-3.091556198994715669e+04
-3.091557751540358004e+04
-3.091538617282679479e+04
-3.091546379303394497e+04
-3.091540281258948744e+04
-3.091537983801607697e+04
-3.091544713667231554e+04
-3.091557346825410059e+04
-3.091435415814585213e+04
-3.091445044890144709e+04
-3.091538032945371378e+04
-3.091557366662510685e+04
-3.091474985061414918e+04
-3.091507917668830487e+04
-3.091515155897572185e+04
-3.091442954484242000e+04
-3.091481907175482775e+04
-3.091488165576627944e+04
-3.091510730400981265e+04
-3.091436056533885858e+04
-3.091372449564787894e+04
-3.091523068016294201e+04
-3.091539316969053834e+04
-3.091538598534034827e+04
-3.091543959857409573e+04
-3.091543883366203227e+04
-3.091561551011796109e+04
-3.091555106729671388e+04
-3.091560284729937121e+04
-3.091537198317732327e+04
-3.091525277335954888e+04
-3.091518181694877057e+04
-3.091565411327894981e+04
-3.091561129915594574e+04
-3.091561364641012187e+04
-3.091558295550391267e+04
-3.091513969181806533e+04
-3.091412390219828740e+04
-3.091573656296293120e+04
-3.091515762058412292e+04
-3.091501866536814123e+04
-3.091509870602810406e+04
-3.091516115833645017e+04
-3.091502519365181797e+04
-3.091552925655429499e+04
-3.091518594083435528e+04
-3.091494759113206965e+04
-3.091521094755408922e+04
-3.091522831712615880e+04
-3.091531531954717502e+04
-3.091550228517247524e+04
-3.091492757443634400e+04
-3.091543183897519339e+04
-3.091542707235666967e+04
-3.091551258168892309e+04
-3.091555829736204032e+04
-3.091557072072043229e+04
-3.091473368922762893e+04
-3.091505529733631192e+04
-3.091514919811585423e+04
-3.091494757861482867e+04
-3.091445232104482056e+04
-3.091451124376426014e+04
-3.091505550414284153e+04
-3.091498203203941011e+04
-3.091557036914932178e+04
-3.091487006262728391e+04
-3.091508679016206588e+04
-3.091514319174656339e+04
-3.091520772354904693e+04
-3.091497935960916584e+04
-3.091500436061450819e+04
-3.091544664305777042e+04
-3.091526322552511556e+04
-3.091572550017385583e+04
-3.091498290198743052e+04
-3.091517719509481685e+04
-3.091524920404201475e+04
-3.091492857581536009e+04
-3.091530590005371414e+04
-3.091521320419435142e+04
-3.091504489578391804e+04
-3.091548236834253839e+04
-3.091550591571563200e+04
-3.091562108736368828e+04
-3.091556073550225119e+04
-3.091526116426261069e+04
-3.091438661860850334e+04
-3.091407714813866914e+04
-3.091448097082494496e+04
-3.091527312774857637e+04
-3.091506453832307670e+04
-3.091429783765128013e+04
-3.091539175197731674e+04
-3.091416732231886272e+04
-3.091513115996002307e+04
-3.091509388308200141e+04
-3.091509466078342666e+04
-3.091434681488116257e+04
-3.091491081902526275e+04
-3.091505195605018889e+04
-3.091521717651251674e+04
-3.091585384050017456e+04
-3.091505515093904614e+04
-3.091409520670303391e+04
-3.091502020036243994e+04
-3.091578119018060170e+04
-3.091443989360472551e+04
-3.091514359447508468e+04
-3.091557497168319242e+04
-3.091510634072674293e+04
-3.091479463729054623e+04
-3.091442509169906407e+04
-3.091441747359936926e+04
-3.091442091910509771e+04
-3.091443164664989672e+04
-3.091530165861493879e+04
-3.091445251887160339e+04
-3.091464528052217793e+04
-3.091424036148914092e+04
-3.091492845880640016e+04
-3.091527229181478833e+04
-3.091469310970366860e+04
-3.091527758715055097e+04
-3.091521448938812318e+04
-3.091497033304812066e+04
-3.091394747282173921e+04
-3.091490503334032110e+04
-3.091548748000144406e+04
-3.091500191131762767e+04
-3.091548989582832291e+04
-3.091527304611441286e+04
-3.091527968814168344e+04
-3.091525599301076727e+04
-3.091532522884558784e+04
-3.091516249387128119e+04
-3.091495224754448282e+04
-3.091492784083581137e+04
-3.091501708792408317e+04
-3.091509163487727710e+04
-3.091531314399684197e+04
-3.091511007712218634e+04
-3.091502139467018060e+04
-3.091514694528518521e+04
-3.091497848530732153e+04
-3.091507068455888657e+04
-3.091519498617126010e+04
-3.091534140737528651e+04
-3.091524730713628014e+04
-3.091435268192814692e+04
-3.091531687195675840e+04
-3.091534523193562200e+04
-3.091531714352639756e+04
-3.091425263899450511e+04
-3.091523550038790199e+04
-3.091518229967876687e+04
-3.091548432239218528e+04
-3.091509269857036270e+04
-3.091536268286973427e+04
-3.091500300902495292e+04
-3.091527339006633702e+04
-3.091549225287859372e+04
-3.091531867797646191e+04
-3.091434375033484321e+04
-3.091459256771319269e+04
-3.091434652426355387e+04
-3.091303815945154565e+04
-3.091533674143888129e+04
-3.091424508130408867e+04
-3.091424970152535752e+04
-3.091508194299783645e+04
-3.091507617500029301e+04
-3.091529148373339558e+04
-3.091508126298528805e+04
-3.091498361546997330e+04
-3.091516029519127551e+04
-3.091529556870669694e+04
-3.091465344284959065e+04
-3.091513044266788347e+04
-3.091474528563199783e+04
-3.091430441545968279e+04
-3.091394597429069472e+04
-3.091448034877266036e+04
-3.091383210987763596e+04
-3.091434972296200431e+04
-3.091506919881720023e+04
-3.091507157573178483e+04
-3.091403641187711401e+04
-3.091472114858816713e+04
-3.091369977764095165e+04
-3.091448484191675743e+04
-3.091410141498080702e+04
-3.091542105020477538e+04
-3.091552907314955519e+04
-3.091553472604293347e+04
-3.091413562948941762e+04
-3.091430559180790806e+04
-3.091433251992362420e+04
-3.091439502665474356e+04
-3.091493657786770927e+04
-3.091440463934904619e+04
-3.091349081242621105e+04
-3.091434074402088663e+04
-3.091443191604262029e+04
-3.091415453296732812e+04
-3.091378477975296482e+04
-3.091443042567499651e+04
-3.091404213415952836e+04
-3.091394622871715546e+04
-3.091438423815643910e+04
-3.091509409886829599e+04
-3.091309273433568524e+04
-3.091495217924390090e+04
-3.091554061839650603e+04
-3.091462431632598600e+04
-3.091517544050463039e+04
-3.091504364596494270e+04
-3.091535245628655321e+04
-3.091537007892451220e+04
-3.091515503278129472e+04
-3.091490412257522257e+04
-3.091433789662142954e+04
-3.091435011208483411e+04
-3.091417511674834168e+04
-3.091440012334738276e+04
-3.091404339404670827e+04
-3.091406405211480524e+04
-3.091405321354754778e+04
-3.091470987082913780e+04
-3.091422109827670647e+04
-3.091333374612788612e+04
-3.091392458396419897e+04
-3.091475448525745742e+04
-3.091504179314165231e+04
-3.091501081433898435e+04
-3.091364280352888454e+04
-3.091481378539881916e+04
-3.091412702171160345e+04
-3.091444453450664878e+04
-3.091411006221512798e+04
-3.091485242420671784e+04
-3.091448011638742173e+04
-3.091491162339384027e+04
-3.091369560096527493e+04
-3.091468807097127137e+04
-3.091443351280676143e+04
-3.091515997409691408e+04
-3.091443941713335153e+04
-3.091414989832402352e+04
-3.091481693484466450e+04
-3.091326024735730243e+04
-3.091463718159728887e+04
-3.091517667807848193e+04
-3.091354024735160783e+04
-3.091463658866117839e+04
-3.091442806971317623e+04
-3.091480420399760987e+04
-3.091401772418549444e+04
-3.091458520839378252e+04
-3.091448746400593518e+04
-3.091438273309466240e+04
-3.091438768420639099e+04
-3.091407609043208504e+04
-3.091587222097524136e+04
-3.091513023749402782e+04
-3.091549185885772386e+04
-3.091420322611033407e+04
-3.091520653087399114e+04
-3.091448812633107809e+04
-3.091400919559282192e+04
-3.091475565589129474e+04
-3.091378930391804170e+04
-3.091442289274694122e+04
-3.091485810322302859e+04
-3.091413406211356778e+04
-3.091572586834390677e+04
-3.091402058083682641e+04
-3.091493413210831568e+04
-3.091576764299195565e+04
-3.091291050430792893e+04
-3.091257719040511438e+04
-3.091441045333383227e+04
-3.091467242143092881e+04
-3.091413449531883452e+04
-3.091354177690362485e+04
-3.091299836007801423e+04
-3.091365898940565239e+04
-3.091446437732161576e+04
-3.091438393529370660e+04
-3.091364833124989309e+04
-3.091333312135446613e+04
-3.091459520885034726e+04
-3.091568066859867031e+04
-3.091565346537583900e+04
-3.091444405449779879e+04
-3.091557579618819364e+04
-3.091415621925693267e+04
-3.091480208722387397e+04
-3.091488309062267945e+04
-3.091310923994623590e+04
-3.091444689890400332e+04
-3.091391595877109648e+04
-3.091441793319968565e+04
-3.091444691767985933e+04
-3.091489412783304942e+04
-3.091376437447865101e+04
-3.091445457305915261e+04
-3.091494655084076658e+04
-3.091361151587698259e+04
-3.091434514546261198e+04
-3.091303723970668216e+04
-3.091430197187719750e+04
-3.091314697533611252e+04
-3.091413363598325668e+04
-3.091298268060514602e+04
-3.091313157668475105e+04
-3.091378135247886894e+04
-3.091489707754732081e+04
-3.091337200642540847e+04
-3.091479029353695660e+04
-3.091507100755804277e+04
-3.091529728247980165e+04
-3.091540256578221306e+04
-3.091399923758602381e+04
-3.091564388778422654e+04
-3.091577858305768677e+04
-3.091518227464429219e+04
-3.091510777258988674e+04
-3.091529342608213847e+04
-3.091527951725417734e+04
-3.091513190609623416e+04
-3.091512504175193681e+04
-3.091523839186979967e+04
-3.091524462300513915e+04
-3.091533915155136492e+04
-3.091451673257298171e+04
-3.091555568670164575e+04
-3.091416177391720703e+04
-3.091404214830944693e+04
-3.091308967359895541e+04
-3.091456169068110830e+04
-3.091453372907694211e+04
-3.091507700848504828e+04
-3.091524472940166015e+04
-3.091353173045982840e+04
-3.091438004787506725e+04
-3.091311107725903275e+04
-3.091417902158226570e+04
-3.091483422142200288e+04
-3.091408920060586024e+04
-3.091506811770882632e+04
-3.091367346994484615e+04
-3.091337161240453133e+04
-3.091293240267101282e+04
-3.091250985011546072e+04
-3.091420194799152159e+04
-3.091532383997643410e+04
-3.091236508744542880e+04
-3.091321665362807835e+04
-3.091448424544316731e+04
-3.091301792234358800e+04
-3.091329545154402513e+04
-3.091455728270864711e+04
-3.091499290244398799e+04
-3.091320964533554798e+04
-3.091420774918695679e+04
-3.091538333168596000e+04
-3.091400145776302816e+04
-3.091473249247086642e+04
-3.091396394877188141e+04
-3.091421821196496603e+04
-3.091278776952717453e+04
-3.091425402242137716e+04
-3.091313543879679855e+04
-3.091262795759997971e+04
-3.091583748945029220e+04
-3.091320087428942134e+04
-3.091307496040241676e+04
-3.091441280847930830e+04
-3.091322284775592561e+04
-3.091564544998990823e+04
-3.091319904622848844e+04
-3.091559803061189450e+04
-3.091562473477789899e+04
-3.091583179873308472e+04
-3.091536229129788262e+04
-3.091526051690372697e+04
-3.091236470621390981e+04
-3.091419410349309328e+04
-3.091334463748523922e+04
-3.091434112443606500e+04
-3.091351022557338729e+04
-3.091315397029506130e+04
-3.091515000574979422e+04
-3.091502661299772444e+04
-3.091286426808098622e+04
-3.091434090783343345e+04
-3.091318287776701618e+04
-3.091295224303695068e+04
-3.091326586678067542e+04
-3.091330511267459951e+04
-3.091432801671131529e+04
-3.091348356657828117e+04
-3.091450740450977537e+04
-3.091589921548673738e+04
-3.091518002535110281e+04
-3.091517144342410393e+04
-3.091361509499061140e+04
-3.091489913554446321e+04
-3.091347069586470388e+04
-3.091308673232021829e+04
-3.091423892418371543e+04
-3.091569419211340573e+04
-3.091323035129568598e+04
-3.091420386149620390e+04
-3.091405029784751605e+04
-3.091499501812926610e+04
-3.091418248232636688e+04
-3.091577813461404003e+04
-3.091401705369693809e+04
-3.091322404505692612e+04
-3.091468948895661015e+04
-3.091563105244544568e+04
-3.091515922714436601e+04
-3.091495214631812632e+04
-3.091415603476373508e+04
-3.091562050259100215e+04
-3.091433427723494970e+04
-3.091355500082099752e+04
-3.091482099179023498e+04
-3.091330145328737854e+04
-3.091465287440373868e+04
-3.091418585027964582e+04
-3.091520384755919076e+04
-3.091199866789799853e+04
-3.091385924289509057e+04
-3.091315897936704278e+04
-3.091439607837482254e+04
-3.091584735439414362e+04
-3.091339710566385475e+04
-3.091455662528155881e+04
-3.091245265123734498e+04
-3.091426869207970230e+04
-3.091507807000122921e+04
-3.091510856389699984e+04
-3.091433051471657382e+04
-3.091249604060905403e+04
-3.091384665980585851e+04
-3.091319867914689166e+04
-3.091445564518776519e+04
-3.091277224760823447e+04
-3.091407537994278755e+04
-3.091396250058190708e+04
-3.091264093933601544e+04
-3.091431103735052238e+04
-3.091146840941032497e+04
-3.091422965816247961e+04
-3.091166098928883366e+04
-3.091413813076003862e+04
-3.091407568198917943e+04
-3.091549387304453558e+04
-3.091494580225553364e+04
-3.091521877463722922e+04
-3.091528597778149560e+04
-3.091542508510912739e+04
-3.091520511914727103e+04
-3.091516928501694929e+04
-3.091513470342674191e+04
-3.091494332982898050e+04
-3.091391869297119047e+04
-3.091558733136693991e+04
