1.052576296896532843e-01 -1.438164155647088105e-01 1.333878145922400005e-01 -9.275409687244723367e-02 6.414944055325644268e-02 4.616287552518472115e-02 -3.946283724335682835e-02 1.221989897742011971e-01 -8.368648375987433607e-02 -5.872878331023954207e-02 -1.187614759854762753e-01 7.115914252542676621e-02 8.649114616416811452e-02 8.296611201659849499e-02 -5.002477563679175177e-02 7.934836388136905228e-03 6.067058342228056483e-02 -2.288263490752213414e-01 -8.737894815914687766e-03 -6.740723421615160693e-02 1.118277758290359553e-01
4.680952859252650589e-01 1.994276331900611543e-02 3.324594528091625589e-01 -4.025526672978725351e-01 1.475460066966992612e-01 -1.441692223696638964e-01 4.094569540317163914e-02 1.064476391751904144e-01 -5.570938235216463252e-02 -1.246080107913321092e-02 -1.162191689694467150e-01 2.090425313667845786e-02 -8.576496372726744033e-02 6.610018810503834330e-02 1.176259224693965676e-02 2.483567588351348263e-02 -5.723816041823581030e-02 -1.240295639542909195e-01 -3.309832795181196635e-02 -1.665792164861841229e-01 -4.121812951666121300e-02
-9.647808299908276070e-03 -5.769401704641343061e-03 -4.953750012538608860e-02 8.134287161257330867e-02 -7.491609019731461372e-02 -5.754252763562817119e-02 1.494267688146458939e-01 -1.361993675535756176e-01 1.239229145863450232e-01 -1.667520460549720418e-01 -6.569025138311707090e-02 -9.082628356275977699e-02 -1.263562582413922386e-01 8.067813854630685733e-03 -3.979759490262770733e-03 -1.956542818786483617e-01 1.988781369770091234e-01 3.930260608110059534e-02 2.676408054697692052e-01 7.562921142907630401e-02 3.866060156865866460e-02
-3.908163517274133025e-01 6.811252386703664508e-01 -1.387535633516056910e+00 1.837999012412634414e-01 9.714727950080617180e-01 1.302713596240102856e+00 -3.361016264264432007e-01 -1.872370036534485305e-01 -5.120933438317639558e-02 -2.068760682419394648e-01 -1.161384774611628812e+00 3.065849483184923119e-01 1.800078888615634920e+00 -5.272626994710776227e-01 -3.835758675164092080e-01 -7.587860845633648266e-01 1.462348468201878915e-01 3.474028084619178447e-01 -2.912986588977374280e-01 7.705159723753896017e-02 -1.343805690269379571e-01
8.316946058243361861e-01 3.423567095583984754e-01 -1.122677841760173933e+00 -9.870469451625490942e-01 8.425140659316925351e-01 -4.347548628797745507e-01 9.643180313835407469e-02 -1.805524948359985005e-01 -2.217699558657825476e-01 8.780463546033615563e-01 -2.709558833158329794e-01 6.948410467283268055e-01 -4.750883271475730973e-01 9.673545044680176286e-02 1.370431574010013920e+00 -1.434567696247793789e-01 -6.311516279907135596e-01 -3.849972248835223376e-01 -2.005807216311502605e-01 -1.989462712164152547e-01 9.892726465091268573e-02
-3.302327230212351861e-01 1.240433553527880761e+00 -1.052160292370649258e-01 7.897351757829362828e-01 9.932622276142776263e-01 -3.338598299727453256e-01 -1.759519167250940541e-01 -9.508300230845002921e-02 -8.772541976538887898e-01 -5.168097758606925857e-02 5.123643381273641773e-03 1.529178335444406400e+00 6.850567642613363262e-01 -1.085852493779745132e+00 -2.124640014704568536e-01 -2.148849524072423134e-01 -1.108781696511573989e+00 8.640845947966618867e-02 -7.020413703046318732e-01 5.089776807633733524e-02 -8.679268516784928444e-02
-1.818864861104693420e-01 4.725610867973140811e-02 -2.522396391502721574e-02 3.233280763329190316e-02 -7.506002056418085988e-02 3.902868072765421081e-02 -2.927663989697142088e-02 -1.557317313520531661e-02 -5.055375444492071768e-02 -4.176181503608841078e-02 -2.774019480063952825e-01 6.130091512540537108e-02 1.028392498562416685e-01 1.638333809270832719e-01 -2.014813791429981293e-01 -1.309105564915679920e-01 1.376311121783189428e-01 3.676086470781327747e-02 2.486633886234961566e-01 1.931453992064783784e-02 1.401686369420732103e-01
-5.775490077430539548e-02 1.034495269530507078e-01 -2.543222328830633747e-02 -3.322678027636782883e-02 -7.068420831021542117e-02 1.608996491334239260e-04 -1.186290641617247371e-01 -2.546060826955326862e-03 2.550308289728871539e-02 -4.025699965346121040e-02 -1.911112450612498792e-01 -1.073898457175591218e-03 4.860532088617525170e-02 1.676731695496754826e-01 -2.154572800182538161e-01 -3.470501045010977031e-02 4.226914515380984089e-02 7.813691139369428884e-02 2.359674344297936766e-01 -4.905037888018284886e-02 1.381625078236193016e-01
-9.513061914293310939e-02 1.498434932494740190e-01 -9.653310461128243244e-03 -5.459547752649245717e-02 -3.974077351806637459e-02 1.093909868954678344e-01 1.261998837341967439e-01 -5.457244044026306889e-02 4.025833662721559742e-04 -2.616237550881618801e-01 -7.277348691177853990e-02 -1.350355833224513857e-01 4.261677889877679704e-01 1.107918782797253782e-01 -2.814715418485392098e-02 -2.300588331884939330e-01 -7.439359056968766759e-02 6.321453594446935220e-02 8.904106364618416536e-02 -1.915508008940375317e-02 -1.720068157083103251e-04
-1.760619599494933976e-02 -5.409904888707600668e-02 4.048793615849739097e-02 1.677645465635809185e-01 -7.469790636501257020e-02 -6.056028308754383797e-03 5.899962333963735053e-03 -4.474192953461140349e-02 -3.034709307562609773e-02 -1.727518700439747978e-01 1.688206529854097138e-01 1.547192308434443102e-02 -9.676913190099875606e-03 6.558730440402946345e-03 -2.114758235997643218e-02 -1.718683875026640606e-01 4.271888255595778644e-03 8.575123403525125587e-02 1.982388064120759463e-01 -6.112386894708437581e-03 -8.416038953373615461e-02
2.341591260049212184e-02 1.232742252051311632e-01 -3.376722620554401671e-02 -9.394199805321784558e-02 -2.653044438339823355e-02 -3.539519743977701666e-02 7.184691267792262317e-04 1.650006104367283954e-01 -1.819801256953437404e-02 -6.386106559884919577e-03 -2.466221896550233883e-01 8.394025166287001627e-02 1.068236373325772981e-01 -2.025489526858741465e-02 1.295573847859284901e-02 1.099182687753700802e-02 4.807963309036477131e-03 -3.467220317105987326e-02 -4.162174132428290291e-02 3.247303561129983728e-04 2.513664924445241713e-02
2.417635241874552809e-01 1.450544018392013745e-01 -1.134361192601132551e+00 2.598418776059721949e-02 9.624405602779124713e-01 4.108506463265272912e-01 7.012351237086705824e-01 3.171006068511985632e-01 1.302875781440923086e-01 2.601956100081418422e-01 -5.865945607886796642e-01 8.611045317202062899e-01 -5.126871144449131057e-01 -1.274159487813241176e+00 -1.619716449741028796e-01 -4.326260921303896612e-01 4.541271497821983139e-01 -3.002884704222186230e-01 -2.838651876674946894e-01 -1.796861872652248324e-02 1.943785518066281637e-01
-4.346892483216747982e-02 3.446908600452838756e-02 4.161017135910072273e-02 -5.355587758832357909e-02 -2.485799306079820858e-02 -8.864089711708339481e-02 -7.614939706366682416e-03 -1.986676664548285010e-01 1.167878970357348889e-01 -7.069670387261217659e-02 2.215590225449946271e-01 -1.023985627379695451e-01 2.974487895899735057e-01 1.751781174537102859e-01 1.922672645601851693e-01 -1.796528143434327207e-01 -1.857566137528725847e-01 -1.639122623785919663e-01 5.754047075292912511e-02 -2.192400415680147499e-02 4.286389278624102780e-03
6.458935634051640728e-02 -5.429645820411762441e-02 -1.266180994089816970e-02 1.416665103455910790e-01 -2.893287823368543288e-01 -9.952021251098220472e-03 6.092707669485247779e-02 1.390022816075751899e-01 1.085869514484079888e-02 8.775139819387790807e-02 4.228590874780712230e-03 -8.195762242925277996e-02 -1.160467507771986012e-01 1.984881005952011945e-01 7.982160116835368413e-02 -1.118750841311141886e-01 1.464603325860715788e-01 -8.279533933050961525e-02 -1.270125066665251101e-01 -1.445540137005892345e-01 9.668649663856430931e-02
1.090708331033602221e-02 -1.169746619848089086e-01 -9.261937105565925393e-03 -1.065510489528853078e-01 2.784021586408773341e-02 6.536516107253173384e-03 -7.052073755770818519e-02 2.351685411894815017e-02 -4.643309848977280815e-03 1.593047937106456813e-01 -7.666485186804951335e-02 -3.272644355982317482e-02 2.399014282800025419e-02 7.732917355777615964e-02 2.161716868017023868e-02 -3.819106667053233373e-02 1.019186405822130048e-01 -2.762804841368040991e-03 2.106083333214386899e-02 -3.696537027016662952e-02 2.124086199037848732e-02
2.194570426927648643e-02 -9.970980567376741543e-02 -2.954593726434494305e-02 7.755198537615108634e-02 -9.275764499510309735e-02 -1.813378640725644628e-02 8.185997192311525450e-02 4.592504846310670706e-03 2.325722410026018205e-02 -3.804330021743236312e-01 1.906808423564730626e-01 -3.780648102787689119e-02 -1.357442822564101370e-01 1.862865695802836119e-01 -1.438707172679638130e-02 3.805490103585502659e-01 -1.509451596230868553e-01 5.643715887315707558e-02 -4.572943891842676939e-02 -3.814730649110998489e-02 2.017889345285740418e-02
2.481397577103847119e-02 -2.211154043688763962e-02 -1.884865598931232886e-02 3.846257518680733234e-02 -7.719743022090182205e-02 -2.028801108004216550e-02 1.341766291073268579e-02 -1.459065169193515463e-02 1.463050379422930862e-02 -3.057684173090357560e-01 1.261575633726637058e-01 -2.404398173264796906e-02 -8.073948507280610809e-02 1.445460947021978693e-01 -2.077950320098088943e-02 3.290080036401515362e-01 -1.335993649778376147e-01 5.976555503469722919e-02 -1.919431512688818744e-02 -2.320472216936685095e-02 9.564093174056816776e-03
2.536470611370992417e-02 -2.406858719193538942e-01 2.461066320065057600e-01 -3.020239137774771709e-02 2.111508875553814168e-01 -2.683902821032366215e-02 1.664469589286350082e-01 9.582450852145865325e-03 3.139420063564652558e-02 -1.866449299685261354e-01 -4.381962333235601970e-02 -7.553644601934901559e-02 1.525507622579676259e-02 6.057365282508768434e-02 -1.365582421624928766e-01 1.904622985696986515e-01 6.927179838284318325e-02 -1.469367580412397623e-01 -1.806817184915665009e-01 -6.607334578581569584e-02 1.083696417912530380e-01
-8.926690936654017861e-02 -1.025675356516967396e-01 -9.298637035123780148e-02 -1.051415186612917191e-01 -4.044355891426532068e-02 8.681639074095588715e-03 -2.413355897419172669e-02 6.880421752328093332e-02 1.311737860549793133e-01 2.385595694292078350e-01 1.053279750779608920e-01 8.052094128603171086e-02 1.526879563339944568e-01 -2.693652445025877806e-02 -1.376502411874201415e-01 -1.151814202257069875e-01 7.396380492972054466e-02 7.678775060931793128e-02 -5.752411853547165221e-02 -7.814832709267403865e-02 -6.652745406369912906e-02
2.147874561673071836e-01 1.200337607789755401e-01 1.189865503748201575e-01 -1.112373990723402734e-01 2.621688290034109303e-01 1.353080174359409804e-01 1.554347174903099038e-01 -1.146971786162824247e-01 -1.429200775065289919e-01 1.323537168152910844e-02 1.090404940835492005e-02 7.911259370199009988e-02 2.904277233408909115e-02 7.829241172574269436e-02 -9.809263307370444385e-02 -1.712668521573260105e-02 -7.468361103025414338e-02 -2.298736109014442100e-02 -2.841362333851624178e-01 -2.820182612699475011e-01 -6.940708984237338453e-02
4.997859862019801008e-02 3.054578794435462361e-02 1.553552703960589809e-01 1.599946207458406017e-02 -6.688566018573922911e-02 1.905659654577309403e-01 1.692655052911473668e-02 -6.250876806835678479e-02 -1.172527525257208852e-01 1.603893365357888789e-01 -9.290388935500577816e-02 -6.890659885962630883e-03 -1.652103096278968453e-01 1.210110885934305852e-01 -1.253718341816254522e-01 6.285350160871808201e-02 1.811964019649370539e-01 -1.152857041785489839e-02 -1.409371397405068949e-01 -1.104550123156879532e-01 -8.487741884262606229e-02
1.008022160752344853e-01 7.088028065350264473e-02 3.085862437626034627e-01 6.790088606392431780e-02 -2.910751271704178564e-02 -9.112273178176079347e-02 -1.772498611302640026e-01 8.781783550505732616e-02 -2.047543937378662748e-01 -1.619755530512310693e-01 -7.395748001542094829e-02 -4.680133191497078821e-02 1.345646600285032024e-01 5.388312762574291870e-02 8.434453195736888245e-03 -5.439673123569645913e-02 -1.148602379922498556e-01 2.953488151983752960e-02 9.035438324952953237e-02 5.343986940409699120e-03 -3.877069621512547939e-03
1.954175861020548133e-01 -9.067047469830651074e-02 -2.293660750954528912e-02 1.349521767290048080e-01 -2.276624619999622137e-02 -1.981345738813014568e-01 -5.518688272453768640e-02 -1.747299741356541092e-01 8.084824274551853651e-02 4.322752907860661353e-01 4.037674107978657667e-01 2.354383527775297524e-01 -1.530814379943233050e-01 3.959679172913265627e-02 1.393272176519580741e-01 -1.799579014697697266e-01 -6.237568775772805996e-02 -1.721867929444774736e-01 -3.744188314284949692e-01 -9.282176831324608079e-02 -6.235589026174966770e-02
-3.871331947223539682e-01 6.137995084311647087e-01 8.166168843092654062e-02 -2.118459596414589141e-01 -4.723881029623237526e-01 -1.880321430828349738e-01 3.715190381993700441e-01 -2.890400988500422264e-01 2.512714130417604275e-01 1.654351269069033459e-01 6.365811298293364562e-01 -1.829602303014424974e-02 2.668858780971492539e-01 2.987923967910623979e-01 -1.195711678599584993e-01 1.441059732266680160e-01 -4.906534270181846513e-01 2.158786324391548106e-01 -3.489668620662777498e-01 -2.970914576430804810e-01 -2.229123999389040767e-01
7.817938602142973648e-02 -1.556800007521719764e-01 -4.706240175154809136e-02 -5.375498383359191695e-02 8.217961149454808267e-02 3.630720380191689300e-01 -6.770429949996233099e-02 4.538938478620582057e-02 -1.297265633879255975e-01 -9.435841395564112388e-02 -1.542963357605189878e-01 3.957169776020420804e-02 -8.405255745823830837e-02 -2.634450218740383778e-02 -8.741381232089583120e-02 3.926985022411817738e-02 1.935382638019975121e-02 -2.964199882859746560e-01 1.824210185018857455e-01 1.893980160391411649e-01 1.579790813890384893e-01
-3.054460523680266326e-02 4.836965355093124537e-03 1.461271175888250069e-02 2.561384603063272120e-02 3.574332483659174026e-02 -7.775098877728446600e-02 -1.381981433163803896e-01 -5.547227519903129983e-02 2.472637313688580141e-01 5.824063362368677582e-03 -7.959159026053206840e-03 -1.457777046403233578e-01 -5.553171910903392794e-02 -3.404891629117932222e-02 -4.771757031326395726e-02 -1.158795776358330643e-01 -1.225274739412399692e-02 -3.132740336999477460e-02 3.087160330609137193e-01 6.915280771870295495e-02 4.069722397312602880e-02
-1.025204330378884504e-01 -6.745068586316908810e-02 1.282769753057679679e-02 -1.010498133301329926e-01 1.230445742517819047e-01 -9.835699392260023599e-02 -4.807186835817583992e-02 3.706708311963480273e-02 1.136478084852930587e-01 9.510259411615851199e-02 -6.811634452665012163e-02 4.141769856053683502e-02 -7.444578396817613797e-03 2.841532026674296191e-02 -1.411843256188655971e-01 1.424305394241543732e-01 2.652463368977340738e-02 9.357361036181743863e-02 2.155355958270202543e-02 -7.948458093811384961e-02 -2.192549539675829259e-02
-9.576259635221716360e-02 3.552498673808726637e-02 -2.100894332385350727e-01 6.976514169821104727e-02 -4.342593598375727067e-04 -3.255273981588814938e-03 -7.545314227003736829e-02 -4.228092080726192359e-02 1.248973627650213913e-01 1.665764396945403902e-01 -5.284712723229737646e-02 1.737512065033097186e-01 -6.369651498292495419e-03 1.053016984014804869e-01 -8.333048878673574023e-02 -5.374891602962970916e-03 -2.764580445357998628e-01 -1.224281265068757063e-01 -5.338129966924145403e-02 2.311937696397639297e-01 1.204548046674716877e-01
-1.267776620843607260e-01 6.668161742199316122e-02 -8.306736206745937712e-02 -7.398267682848434779e-02 6.254003268538238514e-02 8.089822499510551657e-02 8.562818102778041451e-02 -1.106108726022087124e-01 8.654848176940420574e-04 1.279340929598358212e-01 5.014952557248932019e-02 -4.728814462776916028e-02 2.565489112489232615e-01 -2.211652837743284181e-02 -4.088136639675875317e-02 -9.940872946869352966e-02 -2.640576643859512962e-01 -4.784802809845139365e-02 -1.699421682770683451e-01 2.174138382636605360e-01 1.373211913776391235e-01
4.537668353553916956e-02 -1.066961106052360247e-01 2.701923170358769832e-01 1.683449988612536752e-01 -5.054804659543084971e-02 -5.442311075631182243e-02 -2.407119943296318620e-01 1.550361964673683812e-01 -2.830444914705725346e-01 3.006915680091655496e-02 2.771828385768786429e-01 6.993719993598683515e-02 -2.836854161195974666e-01 -3.750895808766562256e-01 -1.034653135277659175e-01 2.498781835455568534e-01 -4.213426507081943773e-02 1.744179450302077716e-01 3.072843912803053038e-02 1.422489681038954512e-01 -7.361454624742133634e-02
-2.361111076863225619e-02 -3.516369529199859373e-02 2.265027915342360809e-01 1.990126571055271798e-01 3.581654986067803192e-02 5.935494982589876144e-03 -2.155149755779622589e-01 -3.226703880898967869e-02 -7.780996988867981690e-02 -1.929727753259603551e-01 5.870137534827465919e-02 5.017600793723962782e-02 -5.336649011380827090e-02 -2.943568835167569703e-02 -2.261475678921096369e-02 2.472321067973601016e-01 4.456478051215546216e-02 -6.029283691459946803e-02 3.922058788347585617e-02 -4.221633469051165599e-02 -1.218967822836428266e-01
3.518189870388521712e-02 1.159327480536035820e-01 1.573191305750473376e-02 -1.321894747317717000e-01 -5.994599506947164563e-02 -7.816092549920573840e-02 -1.616416695671073211e-02 -1.304104254632932614e-01 1.520234289559979357e-01 1.768250120087745958e-01 4.893488491663102596e-02 6.455922300897529165e-02 -8.233146085980568019e-02 -7.371327661697586742e-02 1.213948514830064107e-01 -1.803363678863955100e-01 -9.565738680216059539e-03 -3.358352601169158902e-01 1.990146111440912746e-01 1.087678028597222346e-01 6.028671768856978808e-02
8.231516006441567945e-02 1.109430077360382960e-01 5.816951690436701627e-02 4.274284523940175690e-02 -1.710704198595664263e-02 -9.252403454255815618e-02 -1.343309467318233030e-01 6.363588836537037441e-02 1.111776980520002567e-01 -2.643501016836891648e-01 -9.953702752704696177e-02 4.666943431189400637e-02 6.042745988725248957e-02 -8.306381394480351343e-02 -1.645450109188881238e-01 1.478239429714088005e-01 3.867654240957632550e-02 1.902847895927703772e-02 6.537158883096629014e-02 -1.354755505317788329e-02 2.202391723390798028e-02
1.404649823169392686e-01 1.156368140552773288e-01 3.088244822012212870e-02 1.364093752771489317e-02 -4.214033287478164552e-02 -8.845798882307009947e-02 -1.191052839286229903e-01 4.481525740283264642e-02 8.250593593475284704e-02 -2.674112573605548770e-01 -8.378763096660027387e-02 3.925457787007771010e-02 4.695667798081676336e-02 -8.407559454446769664e-02 -1.120197344069250867e-01 1.417531051072212223e-01 5.686930992822811920e-02 1.377266543796899778e-01 4.370083835648570780e-02 -7.317823000488470585e-03 -8.989184175257997067e-02
-5.847243916166330324e-01 -1.379395931611094306e-01 2.768543544098399020e-02 -1.206217206984998430e-01 2.370747572308289086e-02 -1.128507664394099858e-01 4.319756029768141437e-01 -3.059533824857481044e-01 3.956084770396670752e-02 9.025231044558901239e-02 1.395138797568971356e-01 -1.135286121328829209e-02 -4.612826847377315270e-02 2.027896079616633429e-01 -7.516379029634807918e-02 1.691850297555469451e-01 5.784242113315011397e-02 2.194652188014936112e-01 6.006138618888852421e-02 2.003969391619898899e-02 -8.734403257533046583e-02
-1.819112201249254920e-02 9.289679310969403692e-02 4.998204389871892944e-02 1.629939156755322305e-01 7.732696240887468320e-02 1.289174885782530811e-01 -1.526940241379566854e-01 -1.054490740468676246e-01 -2.067543007861555315e-01 -2.186200457004527364e-01 -1.790655229107855975e-02 -2.312681773714021782e-02 2.697019562004227544e-01 -5.164241103546200751e-02 5.536053504640523620e-02 -2.635612357465348665e-02 -4.075594797418399806e-02 -1.770621191619079285e-02 -1.683455645039959314e-02 4.553022982902348026e-02 1.332726291610930244e-02
-1.660835077557123313e-02 6.709638781825720544e-02 -4.099490632174648819e-02 7.053364449664473179e-02 -6.269707567945509430e-02 1.038749417172823569e-01 -1.763923981550962472e-01 1.521923504476576511e-02 -8.705298367341444965e-02 -8.232472456896627877e-02 3.831782206686147607e-02 8.682770359580066488e-03 2.247386032432582836e-02 -2.045728224176073529e-01 -8.599168362277055666e-02 -4.748036031599566636e-02 6.818201050681739483e-02 6.423253861429817357e-02 2.297983289946588792e-01 7.845444266036061265e-02 3.724937434883837661e-02
-4.294822497690219988e-03 -1.259047724889501008e-01 -1.475682210298490393e-01 9.504890947771323095e-02 5.470547447103106808e-01 -5.096622627476856682e-01 -1.203635819197686890e-01 -5.557256365723036717e-01 5.231536134811120009e-01 -8.199665177846732211e-02 1.238404335901129999e-01 1.281078995479058014e-01 -8.961951048322536195e-02 1.430548033233169647e-01 -8.936425134027287109e-02 1.463417532984711833e-01 -5.329470490761131773e-02 -3.979420104617427401e-02 5.488385248089969887e-02 -7.902486765487548581e-02 1.351274745570315849e-01
-6.466449426551281743e-01 -8.692374459122620411e-01 8.951620354966541293e-02 1.959335037050447762e-03 2.291810070746055916e-01 9.737655507306287594e-01 2.337184388866491054e-03 3.572300797773184655e-01 -8.825443456896505667e-01 6.428099362848113119e-01 -8.692039187242674991e-01 8.888931712506152605e-02 4.917738624464262909e-01 2.010087589208232328e-01 -5.858032780143539175e-02 1.002473205450974411e-03 7.474284925198687590e-01 -1.524477638568125515e-01 -4.932378487074773332e-01 2.035929749218459983e-01 -5.859863405745695947e-02
-7.971657673774004138e-01 1.254668930155621753e+00 5.600367598653839263e-01 5.928654304953501208e-01 1.801275428703741355e-01 1.502659306759987823e+00 8.802519499215560872e-01 -7.146843083467662172e-01 -2.822085229196099054e-01 -8.974328339964086909e-02 -1.725635110108090231e-01 -1.564631125599756922e+00 -1.350012282391704677e+00 -2.000260832113506249e-01 -1.774382715854972703e-01 -3.541753518588873217e-01 -1.561577066168202910e+00 4.743122138831528667e-01 1.117979253188659650e+00 1.214054444289065282e+00 -5.127303604036607121e-01
5.046664546261582160e-03 3.244206924226559763e-01 -1.003522729848166373e-01 -2.240582892905465182e-02 -8.505698470225338259e-02 3.887456879142765775e-02 -1.743510449204210555e-01 -2.360843682112348518e-02 1.309108650239728389e-01 1.029744898937044045e-01 -2.663645097550068064e-01 -4.844370132809715929e-02 1.068257970594112954e-01 4.711644634446571223e-02 -2.951976343199948574e-02 -3.421747782836671858e-02 -3.732023395782075453e-02 2.023859447319741739e-02 1.612745160053263502e-02 4.081297504701524720e-02 -1.170829054368465773e-02
1.686462807545974774e-01 1.057583983515647308e+00 -5.052938038493693523e-02 -5.081484999253176316e-01 -6.726545843391261714e-01 -1.254383743369398008e-01 -7.399633452960606705e-01 3.913270757015881451e-01 -2.426545657726850158e-01 3.075304458731795143e-01 -1.209350867777005678e-01 1.026232051819466307e+00 -8.264271863423987285e-02 -4.737185975362061957e-02 -8.482739545538509063e-01 3.409593148747293023e-01 -7.230039874878959605e-01 1.284509361600403854e-01 5.136185223531117838e-01 1.150544591411079426e-01 1.122133384909734521e-01
6.488693584500190847e-02 2.640220288931902637e-01 1.336552093431168931e-02 -4.859248593813315642e-01 -3.044091263773665568e-01 1.118295756013976405e-01 -6.007978500463155846e-01 2.104312871431177068e-01 -3.017138387105949143e-02 -8.282984353778623243e-02 8.858294444703758430e-02 3.179656288702852884e-01 4.009943215430024632e-01 8.680806036602471687e-02 -4.637304265716721274e-01 2.881558449777193442e-01 -3.309958265025838564e-01 6.275615963498538952e-02 4.155153991776421862e-01 -1.443941939148728204e-02 -1.201502317618094277e-02
1.304967116925185300e-01 3.192862504072123131e-01 2.740986458137835771e-02 -2.685905196339894441e-01 -1.804935137246031496e-01 3.502202749610131699e-02 -6.538196580418299542e-01 1.377850698483430447e-01 -7.549222304131937566e-02 -4.861426832591612957e-02 1.150234516344197065e-02 2.889940246775834498e-01 2.322977500064131728e-01 -4.852057731897426590e-02 -3.625491784370696302e-01 1.625792995454706236e-01 -2.273390686176035569e-01 4.159438478438549219e-02 4.456506847573333263e-01 -1.222050575781633876e-02 4.502115136100785092e-02
-1.037856215860759601e-01 -9.355422424237887224e-02 -3.743665351858715962e-02 6.574912965037746360e-02 5.385983342917614186e-02 -2.935269313476890352e-02 1.999803175712966952e-01 1.598530043720107763e-01 -1.035820416209371972e-02 -1.558735534141528767e-01 -9.702963609483382379e-02 1.584964902319853097e-01 -6.316172548117116904e-03 -4.841706469714442129e-02 1.228990498008239035e-01 -1.406574036934356842e-01 -8.428179703504777923e-03 -1.442221870991645116e-01 1.409033554421749435e-01 3.371631835874245448e-02 -6.002580211819491529e-02
1.696955480414518991e-01 3.137830093238284657e-01 -2.137396801204095365e+00 -7.751934778992385366e-01 2.204448451823648458e+00 8.323366103367782487e-02 -1.696803476783059095e+00 -9.140961549621122728e-01 3.893828073303082921e-02 2.254575865907122723e-01 6.013908493284525481e-02 2.008293781806387734e+00 1.701596476270459846e+00 -6.316897599268533892e-01 1.180561709079709781e-01 -3.335294946112773995e-01 -2.503772244260010993e+00 -1.266093576575107182e-01 7.087768383909509584e-01 1.471187613068654532e+00 1.548426438053874914e-02
-2.895540624144680997e-02 3.189464019632612946e-01 -1.057579818328181709e+00 -2.713864402868122472e-01 1.136703467774679233e+00 -1.334186678327258131e-02 -9.241636187546947712e-01 -5.095556648018072510e-01 1.031578095642574945e-02 1.060359026809074706e-02 -7.242340547639972148e-02 9.900524107403378959e-01 1.166217626201323743e+00 -3.138452300254747640e-01 6.793204783681497383e-02 -4.050189724981720918e-01 -1.567629649198436503e+00 1.102196020907813406e-02 4.527032727337788609e-01 1.007804028342110358e+00 -8.400514631202513419e-03
-2.275889284434710544e-02 2.810853621217920123e-02 -2.837727307901722895e-01 -1.782869413871265296e-01 2.822645729731591002e-01 -2.575782781956643518e-03 -5.280953770097218669e-01 -1.178117103991885295e-01 -4.154234565209944524e-03 4.656355627496024802e-02 -1.372069829657742157e-01 2.238838656376667957e-01 3.470816262284607268e-01 -1.939702091687986463e-02 5.071573395747114299e-02 -4.229413627860333785e-02 -3.446333701738453215e-01 1.971779177379718879e-03 3.777902164384453476e-01 3.086760266924171159e-01 1.393131794275370358e-02
-2.450145301374435369e-01 -3.579882467401894197e-01 5.553201735702529840e-01 -2.464952799924918433e-02 -2.439140464713827061e-01 -4.412965726158428192e-01 6.215663489248565154e-01 -6.620635924775671866e-01 -7.737113396483684402e-02 4.381479994242674647e-01 7.722194312046778419e-01 -7.668459794196041956e-02 -3.883414590418451939e-01 5.922108275763764418e-01 2.035624302137650221e-01 -3.186974677346083862e-01 2.722752193010730681e-01 -3.098057180928045495e-01 -8.301141485804514053e-02 -3.727395923929880950e-01 1.462754188314267234e-01
4.729107568561530944e-02 -6.051246056479086394e-02 4.398324835106569297e-02 -6.429177683603091997e-02 -1.705207179582444998e-02 -2.205223022426044399e-01 9.502319844397506821e-02 9.997288097097629944e-02 -1.639712434899872895e-01 2.029633631276658301e-01 -6.168550076806080668e-02 1.620837450812012692e-01 -4.189664369701133484e-03 -1.396678374269212652e-01 -3.028420388710255373e-02 -3.357610066514800651e-01 1.558708280445766092e-01 -4.065685765015711675e-03 5.896481059995586915e-02 2.307411011797698419e-02 2.127764419524430517e-01
-2.588418726597601083e-01 -6.020341393925814077e-03 1.027392750726541903e+00 -6.301755857279454087e-01 4.961451495584538463e-01 2.371148150213929773e-01 3.120535823504645978e-01 2.843434643170920321e-03 -8.927106426959227070e-01 -6.152211229086153033e-01 -5.118752628435968566e-01 2.384218097104387202e-01 2.213301943447250064e-01 -7.962233037246942979e-01 -1.338140006874838084e-01 7.666787034341037144e-01 8.775278658969976747e-03 -3.412856393149340528e-01 2.041761011670275017e-01 8.063550965236897516e-01 -1.351190927600329494e-01
-7.494349815927950353e-02 -5.195989088006085221e-02 -1.208033434408262302e-01 -5.354014243567581724e-03 -4.752530320296997728e-03 4.996286346755025864e-02 1.561328749004359806e-01 8.802491217078449448e-02 -4.630500611968928204e-02 9.700485065831024323e-02 -7.339893351849309522e-02 8.425973696810042102e-02 -1.937855011024237073e-01 7.452857349681303242e-03 -4.919189240987770217e-02 2.742153739069548568e-02 5.962902944554757806e-02 -3.671592182083897177e-02 -6.476198022103443926e-03 -2.499539282509494892e-02 1.187935633555815135e-01
-1.512040183107626612e-01 -8.532257968076860377e-02 -1.606334370900989739e-01 -2.041528069704607457e-02 6.275816509561696344e-02 1.331265904894602704e-03 1.178323306482465388e-01 1.029478018406841944e-01 -2.986156591451462686e-02 8.957909273818896734e-02 -7.807998716499800484e-02 1.419767396786757729e-01 -6.555619405320629867e-02 7.110643490626353605e-03 1.135610080353930025e-02 -4.915980503977247090e-02 8.251328929040196991e-02 1.650843769846473130e-02 7.892392613641946442e-02 -9.192738429363034314e-02 1.932251034110666829e-02
1.262629271889227078e-01 9.060583715948876404e-02 -1.629871793846928429e-01 -6.259289457074805607e-02 -4.739078307445190874e-02 1.364839372749895689e-02 -1.634707525072402279e-04 1.460510129289600278e-01 1.046032838810170146e-01 2.044495122997991299e-02 -1.523908910501837466e-01 8.557187386389383810e-02 -3.295789428553411726e-01 2.659950422001894008e-02 -1.335742195868416804e-01 -8.601538919587714549e-02 1.692175799242594536e-01 8.367758774220095119e-02 3.316427161114360311e-01 -2.326922601080915476e-01 9.060311178991252087e-03
-3.946369599188368493e-01 -3.728895905638165420e-01 1.535293499130758521e+00 6.080106177629498454e-01 -1.492358283936927821e+00 -5.722250754089600600e-01 -6.133434975367847430e-01 -7.304588502982088949e-01 -2.688403280377894555e-01 -5.373066633788236013e-01 3.703348908295251984e-01 -1.171124731256454610e-01 -2.844341728441202588e-01 1.473881975138211731e+00 2.095164885627138762e-01 1.486058617872470622e+00 4.340868902232571380e-01 3.568280106317210931e-01 -2.643479933789226743e-01 3.174029686079593571e-01 -1.143460173174866146e+00