 Set GAUSS_MDEF to "14GB".
 Entering Gaussian System, Link 0=g16
 Initial command:
 /home/sekinelabo/g16/l1.exe "/home/sekinelabo/g16temp/Gau-278536.inp" -scrdir="/home/sekinelabo/g16temp/"
 Entering Link 1 = /home/sekinelabo/g16/l1.exe PID=    278538.
  
 Copyright (c) 1988-2017, Gaussian, Inc.  All Rights Reserved.
  
 This is part of the Gaussian(R) 16 program.  It is based on
 the Gaussian(R) 09 system (copyright 2009, Gaussian, Inc.),
 the Gaussian(R) 03 system (copyright 2003, Gaussian, Inc.),
 the Gaussian(R) 98 system (copyright 1998, Gaussian, Inc.),
 the Gaussian(R) 94 system (copyright 1995, Gaussian, Inc.),
 the Gaussian 92(TM) system (copyright 1992, Gaussian, Inc.),
 the Gaussian 90(TM) system (copyright 1990, Gaussian, Inc.),
 the Gaussian 88(TM) system (copyright 1988, Gaussian, Inc.),
 the Gaussian 86(TM) system (copyright 1986, Carnegie Mellon
 University), and the Gaussian 82(TM) system (copyright 1983,
 Carnegie Mellon University). Gaussian is a federally registered
 trademark of Gaussian, Inc.
  
 This software contains proprietary and confidential information,
 including trade secrets, belonging to Gaussian, Inc.
  
 This software is provided under written license and may be
 used, copied, transmitted, or stored only in accord with that
 written license.
  
 The following legend is applicable only to US Government
 contracts under FAR:
  
                    RESTRICTED RIGHTS LEGEND
  
 Use, reproduction and disclosure by the US Government is
 subject to restrictions as set forth in subparagraphs (a)
 and (c) of the Commercial Computer Software - Restricted
 Rights clause in FAR 52.227-19.
  
 Gaussian, Inc.
 340 Quinnipiac St., Bldg. 40, Wallingford CT 06492
  
  
 ---------------------------------------------------------------
 Warning -- This program may not be used in any manner that
 competes with the business of Gaussian, Inc. or will provide
 assistance to any competitor of Gaussian, Inc.  The licensee
 of this program is prohibited from giving any competitor of
 Gaussian, Inc. access to this program.  By using this program,
 the user acknowledges that Gaussian, Inc. is engaged in the
 business of creating and licensing software in the field of
 computational chemistry and represents and warrants to the
 licensee that it is not a competitor of Gaussian, Inc. and that
 it will not use this program in any manner prohibited above.
 ---------------------------------------------------------------
  

 Cite this work as:
 Gaussian 16, Revision B.01,
 M. J. Frisch, G. W. Trucks, H. B. Schlegel, G. E. Scuseria, 
 M. A. Robb, J. R. Cheeseman, G. Scalmani, V. Barone, 
 G. A. Petersson, H. Nakatsuji, X. Li, M. Caricato, A. V. Marenich, 
 J. Bloino, B. G. Janesko, R. Gomperts, B. Mennucci, H. P. Hratchian, 
 J. V. Ortiz, A. F. Izmaylov, J. L. Sonnenberg, D. Williams-Young, 
 F. Ding, F. Lipparini, F. Egidi, J. Goings, B. Peng, A. Petrone, 
 T. Henderson, D. Ranasinghe, V. G. Zakrzewski, J. Gao, N. Rega, 
 G. Zheng, W. Liang, M. Hada, M. Ehara, K. Toyota, R. Fukuda, 
 J. Hasegawa, M. Ishida, T. Nakajima, Y. Honda, O. Kitao, H. Nakai, 
 T. Vreven, K. Throssell, J. A. Montgomery, Jr., J. E. Peralta, 
 F. Ogliaro, M. J. Bearpark, J. J. Heyd, E. N. Brothers, K. N. Kudin, 
 V. N. Staroverov, T. A. Keith, R. Kobayashi, J. Normand, 
 K. Raghavachari, A. P. Rendell, J. C. Burant, S. S. Iyengar, 
 J. Tomasi, M. Cossi, J. M. Millam, M. Klene, C. Adamo, R. Cammi, 
 J. W. Ochterski, R. L. Martin, K. Morokuma, O. Farkas, 
 J. B. Foresman, and D. J. Fox, Gaussian, Inc., Wallingford CT, 2016.
 
 ******************************************
 Gaussian 16:  ES64L-G16RevB.01 20-Dec-2017
                29-Nov-2023 
 ******************************************
 %nproc=15
 Will use up to   15 processors via shared memory.
 -------------------------
 #P B3LYP/6-311+g(d) force
 -------------------------
 1/10=7,30=1,38=1/1,3;
 2/12=2,17=6,18=5,40=1/2;
 3/5=4,6=6,7=11,11=2,25=1,30=1,71=1,74=-5/1,2,3;
 4//1;
 5/5=2,38=5/2;
 6/7=2,8=2,9=2,10=2,28=1/1;
 7/29=1/1,2,3,16;
 1/10=7,30=1/3;
 99//99;
 Leave Link    1 at Wed Nov 29 01:32:22 2023, MaxMem=           0 cpu:               0.3 elap:               0.0
 (Enter /home/sekinelabo/g16/l101.exe)
 -----
 DPGEN
 -----
 Symbolic Z-matrix:
 Charge =  0 Multiplicity = 2
 Na                    13.0237   16.3504   13.573 
 Na                    16.6469   16.869    14.8628 
 Na                    18.0787   14.6044   16.8536 
 Na                    16.7425   13.9818   13.7282 
 Na                    13.8638   13.1888   12.4852 
 Na                    15.5511   14.8529   18.9676 
 Na                    13.5188   17.5783   16.9552 
 
 ITRead=  0  0  0  0  0  0  0
 MicOpt= -1 -1 -1 -1 -1 -1 -1
 NAtoms=      7 NQM=        7 NQMF=       0 NMMI=      0 NMMIF=      0
                NMic=       0 NMicF=      0.
                    Isotopes and Nuclear Properties:
 (Nuclear quadrupole moments (NQMom) in fm**2, nuclear magnetic moments (NMagM)
  in nuclear magnetons)

  Atom         1           2           3           4           5           6           7
 IAtWgt=          23          23          23          23          23          23          23
 AtmWgt=  22.9897697  22.9897697  22.9897697  22.9897697  22.9897697  22.9897697  22.9897697
 NucSpn=           3           3           3           3           3           3           3
 AtZEff=  -0.0000000  -0.0000000  -0.0000000  -0.0000000  -0.0000000  -0.0000000  -0.0000000
 NQMom=   10.4000000  10.4000000  10.4000000  10.4000000  10.4000000  10.4000000  10.4000000
 NMagM=    2.2175200   2.2175200   2.2175200   2.2175200   2.2175200   2.2175200   2.2175200
 AtZNuc=  11.0000000  11.0000000  11.0000000  11.0000000  11.0000000  11.0000000  11.0000000
 Leave Link  101 at Wed Nov 29 01:32:22 2023, MaxMem=  1879048192 cpu:               2.4 elap:               0.2
 (Enter /home/sekinelabo/g16/l103.exe)

 GradGradGradGradGradGradGradGradGradGradGradGradGradGradGradGradGradGrad
 Berny optimization.
 Initialization pass.
 Trust Radius=3.00D-01 FncErr=1.00D-07 GrdErr=1.00D-07 EigMax=2.50D+02 EigMin=1.00D-04
 Number of steps in this run=      2 maximum allowed number of steps=      2.
 GradGradGradGradGradGradGradGradGradGradGradGradGradGradGradGradGradGrad

 Leave Link  103 at Wed Nov 29 01:32:22 2023, MaxMem=  1879048192 cpu:               0.2 elap:               0.0
 (Enter /home/sekinelabo/g16/l202.exe)
                          Input orientation:                          
 ---------------------------------------------------------------------
 Center     Atomic      Atomic             Coordinates (Angstroms)
 Number     Number       Type             X           Y           Z
 ---------------------------------------------------------------------
      1         11           0       13.023700   16.350400   13.573000
      2         11           0       16.646900   16.869000   14.862800
      3         11           0       18.078700   14.604400   16.853600
      4         11           0       16.742500   13.981800   13.728200
      5         11           0       13.863800   13.188800   12.485200
      6         11           0       15.551100   14.852900   18.967600
      7         11           0       13.518800   17.578300   16.955200
 ---------------------------------------------------------------------
                    Distance matrix (angstroms):
                    1          2          3          4          5
     1  Na   0.000000
     2  Na   3.880736   0.000000
     3  Na   6.274064   3.337926   0.000000
     4  Na   4.411783   3.103608   3.455602   0.000000
     5  Na   3.447433   5.190616   6.233155   3.234318   0.000000
     6  Na   6.142635   4.702640   3.304468   5.443304   6.902008
     7  Na   3.632098   3.829655   5.444914   5.808664   6.274363
                    6          7
     6  Na   0.000000
     7  Na   3.950671   0.000000
 Stoichiometry    Na7(2)
 Framework group  C1[X(Na7)]
 Deg. of freedom    15
 Full point group                 C1      NOp   1
 Largest Abelian subgroup         C1      NOp   1
 Largest concise Abelian subgroup C1      NOp   1
                         Standard orientation:                         
 ---------------------------------------------------------------------
 Center     Atomic      Atomic             Coordinates (Angstroms)
 Number     Number       Type             X           Y           Z
 ---------------------------------------------------------------------
      1         11           0        2.323996    2.022037    0.242788
      2         11           0       -0.350064   -0.154375    2.024007
      3         11           0       -2.291451   -2.227755    0.270766
      4         11           0        1.164101   -2.234302    0.288038
      5         11           0        3.555230   -0.784008   -1.336758
      6         11           0       -3.256526    0.284441   -1.646788
      7         11           0       -1.145286    3.093961    0.157946
 ---------------------------------------------------------------------
 Rotational constants (GHZ):           0.6627058           0.4829119           0.3602475
 Leave Link  202 at Wed Nov 29 01:32:22 2023, MaxMem=  1879048192 cpu:               0.0 elap:               0.0
 (Enter /home/sekinelabo/g16/l301.exe)
 Standard basis: 6-311+G(d) (5D, 7F)
 Ernie: Thresh=  0.10000D-02 Tol=  0.10000D-05 Strict=F.
 There are   217 symmetry adapted cartesian basis functions of A   symmetry.
 There are   210 symmetry adapted basis functions of A   symmetry.
   210 basis functions,   350 primitive gaussians,   217 cartesian basis functions
    39 alpha electrons       38 beta electrons
       nuclear repulsion energy       308.5418742954 Hartrees.
 IExCor=  402 DFT=T Ex+Corr=B3LYP ExCW=0 ScaHFX=  0.200000
 ScaDFX=  0.800000  0.720000  1.000000  0.810000 ScalE2=  1.000000  1.000000
 IRadAn=      5 IRanWt=     -1 IRanGd=            0 ICorTp=0 IEmpDi=  4
 NAtoms=    7 NActive=    7 NUniq=    7 SFac= 1.00D+00 NAtFMM=   60 NAOKFM=F Big=F
 Integral buffers will be    131072 words long.
 Raffenetti 2 integral format.
 Two-electron integral symmetry is turned on.
 Leave Link  301 at Wed Nov 29 01:32:22 2023, MaxMem=  1879048192 cpu:               0.5 elap:               0.0
 (Enter /home/sekinelabo/g16/l302.exe)
 NPDir=0 NMtPBC=     1 NCelOv=     1 NCel=       1 NClECP=     1 NCelD=      1
         NCelK=      1 NCelE2=     1 NClLst=     1 CellRange=     0.0.
 One-electron integrals computed using PRISM.
 One-electron integral symmetry used in STVInt
 NBasis=   210 RedAO= T EigKep=  4.21D-06  NBF=   210
 NBsUse=   210 1.00D-06 EigRej= -1.00D+00 NBFU=   210
 Precomputing XC quadrature grid using
 IXCGrd= 4 IRadAn=           5 IRanWt=          -1 IRanGd=           0 AccXCQ= 0.00D+00.
 Generated NRdTot=       0 NPtTot=           0 NUsed=           0 NTot=          32
 NSgBfM=   208   208   208   208   208 MxSgAt=     7 MxSgA2=     7.
 Leave Link  302 at Wed Nov 29 01:32:22 2023, MaxMem=  1879048192 cpu:               1.9 elap:               0.1
 (Enter /home/sekinelabo/g16/l303.exe)
 DipDrv:  MaxL=1.
 Leave Link  303 at Wed Nov 29 01:32:22 2023, MaxMem=  1879048192 cpu:               0.5 elap:               0.0
 (Enter /home/sekinelabo/g16/l401.exe)
 ExpMin= 7.60D-03 ExpMax= 3.62D+04 ExpMxC= 1.21D+03 IAcc=3 IRadAn=         5 AccDes= 0.00D+00
 Harris functional with IExCor=  402 and IRadAn=       5 diagonalized for initial guess.
 HarFok:  IExCor=  402 AccDes= 0.00D+00 IRadAn=         5 IDoV= 1 UseB2=F ITyADJ=14
 ICtDFT=  3500011 ScaDFX=  1.000000  1.000000  1.000000  1.000000
 FoFCou: FMM=F IPFlag=           0 FMFlag=      100000 FMFlg1=           0
         NFxFlg=           0 DoJE=T BraDBF=F KetDBF=T FulRan=T
         wScrn=  0.000000 ICntrl=       500 IOpCl=  0 I1Cent=   200000004 NGrid=           0
         NMat0=    1 NMatS0=      1 NMatT0=    0 NMatD0=    1 NMtDS0=    0 NMtDT0=    0
 Petite list used in FoFCou.
 Harris En= -1135.89309225557    
 JPrj=0 DoOrth=F DoCkMO=F.
 Initial guess <Sx>= 0.0000 <Sy>= 0.0000 <Sz>= 0.5000 <S**2>= 0.7500 S= 0.5000
 Leave Link  401 at Wed Nov 29 01:32:22 2023, MaxMem=  1879048192 cpu:               4.2 elap:               0.3
 (Enter /home/sekinelabo/g16/l502.exe)
 Keep R1 and R2 ints in memory in canonical form, NReq=506573293.
 FoFCou: FMM=F IPFlag=           0 FMFlag=           0 FMFlg1=           0
         NFxFlg=           0 DoJE=F BraDBF=F KetDBF=F FulRan=T
         wScrn=  0.000000 ICntrl=       600 IOpCl=  0 I1Cent=           0 NGrid=           0
         NMat0=    1 NMatS0=  22155 NMatT0=    0 NMatD0=    1 NMtDS0=    0 NMtDT0=    0
 Symmetry not used in FoFCou.
 Two-electron integral symmetry not used.
 UHF open shell SCF:
 Using DIIS extrapolation, IDIIS=  1040.
 NGot=  1879048192 LenX=  1388082607 LenY=  1388035077
 Requested convergence on RMS density matrix=1.00D-08 within 128 cycles.
 Requested convergence on MAX density matrix=1.00D-06.
 Requested convergence on             energy=1.00D-06.
 No special actions if energy rises.

 Cycle   1  Pass 1  IDiag  1:
 E= -1136.09525610174    
 DIIS: error= 1.11D-02 at cycle   1 NSaved=   1.
 NSaved= 1 IEnMin= 1 EnMin= -1136.09525610174     IErMin= 1 ErrMin= 1.11D-02
 ErrMax= 1.11D-02  0.00D+00 EMaxC= 1.00D-01 BMatC= 1.86D-01 BMatP= 1.86D-01
 IDIUse=3 WtCom= 8.89D-01 WtEn= 1.11D-01
 Coeff-Com:  0.100D+01
 Coeff-En:   0.100D+01
 Coeff:      0.100D+01
 Gap=     0.045 Goal=   None    Shift=    0.000
 Gap=     0.040 Goal=   None    Shift=    0.000
 GapD=    0.040 DampG=0.250 DampE=0.500 DampFc=0.2500 IDamp=-1.
 Damping current iteration by 2.50D-01
 RMSDP=1.22D-02 MaxDP=8.91D-01              OVMax= 1.90D-01

 Cycle   2  Pass 1  IDiag  1:
 E= -1136.10502350767     Delta-E=       -0.009767405935 Rises=F Damp=T
 DIIS: error= 8.01D-03 at cycle   2 NSaved=   2.
 NSaved= 2 IEnMin= 2 EnMin= -1136.10502350767     IErMin= 2 ErrMin= 8.01D-03
 ErrMax= 8.01D-03  0.00D+00 EMaxC= 1.00D-01 BMatC= 7.15D-02 BMatP= 1.86D-01
 IDIUse=3 WtCom= 9.20D-01 WtEn= 8.01D-02
 Coeff-Com: -0.129D+01 0.229D+01
 Coeff-En:   0.000D+00 0.100D+01
 Coeff:     -0.118D+01 0.218D+01
 Gap=     0.052 Goal=   None    Shift=    0.000
 Gap=     0.045 Goal=   None    Shift=    0.000
 RMSDP=6.15D-03 MaxDP=5.05D-01 DE=-9.77D-03 OVMax= 1.37D-01

 Cycle   3  Pass 1  IDiag  1:
 E= -1136.12206322947     Delta-E=       -0.017039721796 Rises=F Damp=F
 DIIS: error= 1.80D-03 at cycle   3 NSaved=   3.
 NSaved= 3 IEnMin= 3 EnMin= -1136.12206322947     IErMin= 3 ErrMin= 1.80D-03
 ErrMax= 1.80D-03  0.00D+00 EMaxC= 1.00D-01 BMatC= 1.92D-03 BMatP= 7.15D-02
 IDIUse=3 WtCom= 9.82D-01 WtEn= 1.80D-02
 Coeff-Com: -0.150D+00 0.269D+00 0.881D+00
 Coeff-En:   0.000D+00 0.000D+00 0.100D+01
 Coeff:     -0.147D+00 0.264D+00 0.883D+00
 Gap=     0.049 Goal=   None    Shift=    0.000
 Gap=     0.045 Goal=   None    Shift=    0.000
 RMSDP=2.62D-03 MaxDP=1.40D-01 DE=-1.70D-02 OVMax= 1.02D-01

 Cycle   4  Pass 1  IDiag  1:
 E= -1136.11979048927     Delta-E=        0.002272740200 Rises=F Damp=F
 DIIS: error= 2.67D-03 at cycle   4 NSaved=   4.
 NSaved= 4 IEnMin= 3 EnMin= -1136.12206322947     IErMin= 3 ErrMin= 1.80D-03
 ErrMax= 2.67D-03  0.00D+00 EMaxC= 1.00D-01 BMatC= 3.64D-03 BMatP= 1.92D-03
 IDIUse=3 WtCom= 1.62D-01 WtEn= 8.38D-01
 Coeff-Com:  0.862D-02-0.113D-01 0.582D+00 0.421D+00
 Coeff-En:   0.000D+00 0.000D+00 0.638D+00 0.362D+00
 Coeff:      0.140D-02-0.184D-02 0.629D+00 0.372D+00
 Gap=     0.050 Goal=   None    Shift=    0.000
 Gap=     0.044 Goal=   None    Shift=    0.000
 RMSDP=1.28D-03 MaxDP=6.09D-02 DE= 2.27D-03 OVMax= 6.03D-02

 Cycle   5  Pass 1  IDiag  1:
 E= -1136.12423890275     Delta-E=       -0.004448413482 Rises=F Damp=F
 DIIS: error= 4.66D-04 at cycle   5 NSaved=   5.
 NSaved= 5 IEnMin= 5 EnMin= -1136.12423890275     IErMin= 5 ErrMin= 4.66D-04
 ErrMax= 4.66D-04  0.00D+00 EMaxC= 1.00D-01 BMatC= 8.89D-05 BMatP= 1.92D-03
 IDIUse=3 WtCom= 9.95D-01 WtEn= 4.66D-03
 Coeff-Com:  0.181D-02-0.321D-02 0.311D+00 0.163D+00 0.527D+00
 Coeff-En:   0.000D+00 0.000D+00 0.000D+00 0.000D+00 0.100D+01
 Coeff:      0.180D-02-0.320D-02 0.310D+00 0.162D+00 0.529D+00
 Gap=     0.050 Goal=   None    Shift=    0.000
 Gap=     0.044 Goal=   None    Shift=    0.000
 RMSDP=4.18D-04 MaxDP=2.96D-02 DE=-4.45D-03 OVMax= 1.05D-02

 Cycle   6  Pass 1  IDiag  1:
 E= -1136.12432981839     Delta-E=       -0.000090915646 Rises=F Damp=F
 DIIS: error= 1.75D-04 at cycle   6 NSaved=   6.
 NSaved= 6 IEnMin= 6 EnMin= -1136.12432981839     IErMin= 6 ErrMin= 1.75D-04
 ErrMax= 1.75D-04  0.00D+00 EMaxC= 1.00D-01 BMatC= 7.02D-06 BMatP= 8.89D-05
 IDIUse=3 WtCom= 9.98D-01 WtEn= 1.75D-03
 Coeff-Com: -0.445D-02 0.554D-02-0.371D-01-0.589D-01 0.254D+00 0.841D+00
 Coeff-En:   0.000D+00 0.000D+00 0.000D+00 0.000D+00 0.000D+00 0.100D+01
 Coeff:     -0.444D-02 0.553D-02-0.370D-01-0.588D-01 0.254D+00 0.841D+00
 Gap=     0.050 Goal=   None    Shift=    0.000
 Gap=     0.044 Goal=   None    Shift=    0.000
 RMSDP=2.12D-04 MaxDP=1.93D-02 DE=-9.09D-05 OVMax= 5.70D-03

 Cycle   7  Pass 1  IDiag  1:
 E= -1136.12434357694     Delta-E=       -0.000013758540 Rises=F Damp=F
 DIIS: error= 6.17D-05 at cycle   7 NSaved=   7.
 NSaved= 7 IEnMin= 7 EnMin= -1136.12434357694     IErMin= 7 ErrMin= 6.17D-05
 ErrMax= 6.17D-05  0.00D+00 EMaxC= 1.00D-01 BMatC= 1.15D-06 BMatP= 7.02D-06
 IDIUse=1 WtCom= 1.00D+00 WtEn= 0.00D+00
 Coeff-Com: -0.176D-02 0.219D-02-0.526D-01-0.452D-01 0.578D-01 0.372D+00
 Coeff-Com:  0.668D+00
 Coeff:     -0.176D-02 0.219D-02-0.526D-01-0.452D-01 0.578D-01 0.372D+00
 Coeff:      0.668D+00
 Gap=     0.051 Goal=   None    Shift=    0.000
 Gap=     0.044 Goal=   None    Shift=    0.000
 RMSDP=8.61D-05 MaxDP=6.91D-03 DE=-1.38D-05 OVMax= 2.06D-03

 Cycle   8  Pass 1  IDiag  1:
 E= -1136.12434562473     Delta-E=       -0.000002047791 Rises=F Damp=F
 DIIS: error= 4.65D-05 at cycle   8 NSaved=   8.
 NSaved= 8 IEnMin= 8 EnMin= -1136.12434562473     IErMin= 8 ErrMin= 4.65D-05
 ErrMax= 4.65D-05  0.00D+00 EMaxC= 1.00D-01 BMatC= 4.74D-07 BMatP= 1.15D-06
 IDIUse=1 WtCom= 1.00D+00 WtEn= 0.00D+00
 Coeff-Com:  0.738D-03-0.961D-03-0.218D-01-0.821D-02-0.546D-01-0.463D-01
 Coeff-Com:  0.417D+00 0.715D+00
 Coeff:      0.738D-03-0.961D-03-0.218D-01-0.821D-02-0.546D-01-0.463D-01
 Coeff:      0.417D+00 0.715D+00
 Gap=     0.051 Goal=   None    Shift=    0.000
 Gap=     0.045 Goal=   None    Shift=    0.000
 RMSDP=6.31D-05 MaxDP=3.34D-03 DE=-2.05D-06 OVMax= 1.92D-03

 Cycle   9  Pass 1  IDiag  1:
 E= -1136.12434673752     Delta-E=       -0.000001112791 Rises=F Damp=F
 DIIS: error= 2.25D-05 at cycle   9 NSaved=   9.
 NSaved= 9 IEnMin= 9 EnMin= -1136.12434673752     IErMin= 9 ErrMin= 2.25D-05
 ErrMax= 2.25D-05  0.00D+00 EMaxC= 1.00D-01 BMatC= 1.10D-07 BMatP= 4.74D-07
 IDIUse=1 WtCom= 1.00D+00 WtEn= 0.00D+00
 Coeff-Com:  0.942D-03-0.121D-02-0.632D-03 0.613D-02-0.494D-01-0.106D+00
 Coeff-Com:  0.857D-01 0.405D+00 0.659D+00
 Coeff:      0.942D-03-0.121D-02-0.632D-03 0.613D-02-0.494D-01-0.106D+00
 Coeff:      0.857D-01 0.405D+00 0.659D+00
 Gap=     0.051 Goal=   None    Shift=    0.000
 Gap=     0.045 Goal=   None    Shift=    0.000
 RMSDP=2.36D-05 MaxDP=1.44D-03 DE=-1.11D-06 OVMax= 8.94D-04

 Cycle  10  Pass 1  IDiag  1:
 E= -1136.12434701696     Delta-E=       -0.000000279439 Rises=F Damp=F
 DIIS: error= 6.65D-06 at cycle  10 NSaved=  10.
 NSaved=10 IEnMin=10 EnMin= -1136.12434701696     IErMin=10 ErrMin= 6.65D-06
 ErrMax= 6.65D-06  0.00D+00 EMaxC= 1.00D-01 BMatC= 1.24D-08 BMatP= 1.10D-07
 IDIUse=1 WtCom= 1.00D+00 WtEn= 0.00D+00
 Coeff-Com:  0.162D-03-0.205D-03 0.376D-02 0.322D-02-0.568D-02-0.177D-01
 Coeff-Com: -0.496D-01-0.331D-01 0.136D+00 0.963D+00
 Coeff:      0.162D-03-0.205D-03 0.376D-02 0.322D-02-0.568D-02-0.177D-01
 Coeff:     -0.496D-01-0.331D-01 0.136D+00 0.963D+00
 Gap=     0.051 Goal=   None    Shift=    0.000
 Gap=     0.045 Goal=   None    Shift=    0.000
 RMSDP=1.39D-05 MaxDP=7.45D-04 DE=-2.79D-07 OVMax= 6.09D-04

 Cycle  11  Pass 1  IDiag  1:
 E= -1136.12434709777     Delta-E=       -0.000000080813 Rises=F Damp=F
 DIIS: error= 3.48D-06 at cycle  11 NSaved=  11.
 NSaved=11 IEnMin=11 EnMin= -1136.12434709777     IErMin=11 ErrMin= 3.48D-06
 ErrMax= 3.48D-06  0.00D+00 EMaxC= 1.00D-01 BMatC= 3.35D-09 BMatP= 1.24D-08
 IDIUse=1 WtCom= 1.00D+00 WtEn= 0.00D+00
 Coeff-Com: -0.332D-03 0.429D-03 0.985D-03-0.142D-02 0.158D-01 0.282D-01
 Coeff-Com: -0.331D-01-0.123D+00-0.162D+00-0.277D-01 0.130D+01
 Coeff:     -0.332D-03 0.429D-03 0.985D-03-0.142D-02 0.158D-01 0.282D-01
 Coeff:     -0.331D-01-0.123D+00-0.162D+00-0.277D-01 0.130D+01
 Gap=     0.051 Goal=   None    Shift=    0.000
 Gap=     0.045 Goal=   None    Shift=    0.000
 RMSDP=9.72D-06 MaxDP=6.69D-04 DE=-8.08D-08 OVMax= 5.34D-04

 Cycle  12  Pass 1  IDiag  1:
 E= -1136.12434713637     Delta-E=       -0.000000038599 Rises=F Damp=F
 DIIS: error= 1.82D-06 at cycle  12 NSaved=  12.
 NSaved=12 IEnMin=12 EnMin= -1136.12434713637     IErMin=12 ErrMin= 1.82D-06
 ErrMax= 1.82D-06  0.00D+00 EMaxC= 1.00D-01 BMatC= 7.23D-10 BMatP= 3.35D-09
 IDIUse=1 WtCom= 1.00D+00 WtEn= 0.00D+00
 Coeff-Com: -0.603D-04 0.757D-04-0.695D-03-0.741D-03 0.274D-02 0.663D-02
 Coeff-Com:  0.454D-02-0.122D-01-0.358D-01-0.108D+00-0.743D-01 0.122D+01
 Coeff:     -0.603D-04 0.757D-04-0.695D-03-0.741D-03 0.274D-02 0.663D-02
 Coeff:      0.454D-02-0.122D-01-0.358D-01-0.108D+00-0.743D-01 0.122D+01
 Gap=     0.051 Goal=   None    Shift=    0.000
 Gap=     0.045 Goal=   None    Shift=    0.000
 RMSDP=3.66D-06 MaxDP=1.44D-04 DE=-3.86D-08 OVMax= 2.84D-04

 Cycle  13  Pass 1  IDiag  1:
 E= -1136.12434714498     Delta-E=       -0.000000008610 Rises=F Damp=F
 DIIS: error= 8.61D-07 at cycle  13 NSaved=  13.
 NSaved=13 IEnMin=13 EnMin= -1136.12434714498     IErMin=13 ErrMin= 8.61D-07
 ErrMax= 8.61D-07  0.00D+00 EMaxC= 1.00D-01 BMatC= 2.17D-10 BMatP= 7.23D-10
 IDIUse=1 WtCom= 1.00D+00 WtEn= 0.00D+00
 Coeff-Com:  0.661D-04-0.858D-04-0.434D-03 0.137D-03-0.288D-02-0.480D-02
 Coeff-Com:  0.709D-02 0.245D-01 0.351D-01-0.793D-03-0.351D+00 0.212D+00
 Coeff-Com:  0.108D+01
 Coeff:      0.661D-04-0.858D-04-0.434D-03 0.137D-03-0.288D-02-0.480D-02
 Coeff:      0.709D-02 0.245D-01 0.351D-01-0.793D-03-0.351D+00 0.212D+00
 Coeff:      0.108D+01
 Gap=     0.051 Goal=   None    Shift=    0.000
 Gap=     0.045 Goal=   None    Shift=    0.000
 RMSDP=1.91D-06 MaxDP=8.37D-05 DE=-8.61D-09 OVMax= 1.48D-04

 Cycle  14  Pass 1  IDiag  1:
 E= -1136.12434714714     Delta-E=       -0.000000002159 Rises=F Damp=F
 DIIS: error= 3.81D-07 at cycle  14 NSaved=  14.
 NSaved=14 IEnMin=14 EnMin= -1136.12434714714     IErMin=14 ErrMin= 3.81D-07
 ErrMax= 3.81D-07  0.00D+00 EMaxC= 1.00D-01 BMatC= 5.20D-11 BMatP= 2.17D-10
 IDIUse=1 WtCom= 1.00D+00 WtEn= 0.00D+00
 Coeff-Com:  0.183D-04-0.229D-04 0.952D-04 0.114D-03-0.587D-03-0.140D-02
 Coeff-Com: -0.185D-02 0.280D-02 0.160D-01 0.292D-01-0.106D-01-0.280D+00
 Coeff-Com: -0.368D-02 0.125D+01
 Coeff:      0.183D-04-0.229D-04 0.952D-04 0.114D-03-0.587D-03-0.140D-02
 Coeff:     -0.185D-02 0.280D-02 0.160D-01 0.292D-01-0.106D-01-0.280D+00
 Coeff:     -0.368D-02 0.125D+01
 Gap=     0.051 Goal=   None    Shift=    0.000
 Gap=     0.045 Goal=   None    Shift=    0.000
 RMSDP=1.17D-06 MaxDP=4.37D-05 DE=-2.16D-09 OVMax= 7.80D-05

 Cycle  15  Pass 1  IDiag  1:
 E= -1136.12434714772     Delta-E=       -0.000000000587 Rises=F Damp=F
 DIIS: error= 1.91D-07 at cycle  15 NSaved=  15.
 NSaved=15 IEnMin=15 EnMin= -1136.12434714772     IErMin=15 ErrMin= 1.91D-07
 ErrMax= 1.91D-07  0.00D+00 EMaxC= 1.00D-01 BMatC= 1.25D-11 BMatP= 5.20D-11
 IDIUse=1 WtCom= 1.00D+00 WtEn= 0.00D+00
 Coeff-Com: -0.204D-04 0.270D-04 0.120D-03-0.278D-04 0.722D-03 0.114D-02
 Coeff-Com: -0.143D-02-0.676D-02-0.823D-02 0.224D-02 0.853D-01-0.618D-01
 Coeff-Com: -0.274D+00 0.663D-01 0.120D+01
 Coeff:     -0.204D-04 0.270D-04 0.120D-03-0.278D-04 0.722D-03 0.114D-02
 Coeff:     -0.143D-02-0.676D-02-0.823D-02 0.224D-02 0.853D-01-0.618D-01
 Coeff:     -0.274D+00 0.663D-01 0.120D+01
 Gap=     0.051 Goal=   None    Shift=    0.000
 Gap=     0.045 Goal=   None    Shift=    0.000
 RMSDP=5.66D-07 MaxDP=2.27D-05 DE=-5.87D-10 OVMax= 3.44D-05

 Cycle  16  Pass 1  IDiag  1:
 E= -1136.12434714785     Delta-E=       -0.000000000130 Rises=F Damp=F
 DIIS: error= 7.14D-08 at cycle  16 NSaved=  16.
 NSaved=16 IEnMin=16 EnMin= -1136.12434714785     IErMin=16 ErrMin= 7.14D-08
 ErrMax= 7.14D-08  0.00D+00 EMaxC= 1.00D-01 BMatC= 2.90D-12 BMatP= 1.25D-11
 IDIUse=1 WtCom= 1.00D+00 WtEn= 0.00D+00
 Coeff-Com: -0.752D-05 0.957D-05 0.916D-05-0.252D-04 0.275D-03 0.571D-03
 Coeff-Com: -0.156D-03-0.245D-02-0.447D-02-0.277D-03 0.755D-02 0.547D-01
 Coeff-Com: -0.328D-01-0.287D+00 0.252D+00 0.101D+01
 Coeff:     -0.752D-05 0.957D-05 0.916D-05-0.252D-04 0.275D-03 0.571D-03
 Coeff:     -0.156D-03-0.245D-02-0.447D-02-0.277D-03 0.755D-02 0.547D-01
 Coeff:     -0.328D-01-0.287D+00 0.252D+00 0.101D+01
 Gap=     0.051 Goal=   None    Shift=    0.000
 Gap=     0.045 Goal=   None    Shift=    0.000
 RMSDP=2.20D-07 MaxDP=1.29D-05 DE=-1.30D-10 OVMax= 1.18D-05

 Cycle  17  Pass 1  IDiag  1:
 E= -1136.12434714787     Delta-E=       -0.000000000020 Rises=F Damp=F
 DIIS: error= 3.47D-08 at cycle  17 NSaved=  17.
 NSaved=17 IEnMin=17 EnMin= -1136.12434714787     IErMin=17 ErrMin= 3.47D-08
 ErrMax= 3.47D-08  0.00D+00 EMaxC= 1.00D-01 BMatC= 5.48D-13 BMatP= 2.90D-12
 IDIUse=1 WtCom= 1.00D+00 WtEn= 0.00D+00
 Coeff-Com:  0.597D-05-0.792D-05-0.256D-04 0.115D-04-0.185D-03-0.363D-03
 Coeff-Com:  0.219D-03 0.192D-02 0.310D-02-0.438D-03-0.239D-01 0.142D-01
 Coeff-Com:  0.727D-01-0.122D-01-0.328D+00-0.115D-02 0.127D+01
 Coeff:      0.597D-05-0.792D-05-0.256D-04 0.115D-04-0.185D-03-0.363D-03
 Coeff:      0.219D-03 0.192D-02 0.310D-02-0.438D-03-0.239D-01 0.142D-01
 Coeff:      0.727D-01-0.122D-01-0.328D+00-0.115D-02 0.127D+01
 Gap=     0.051 Goal=   None    Shift=    0.000
 Gap=     0.045 Goal=   None    Shift=    0.000
 RMSDP=1.11D-07 MaxDP=4.59D-06 DE=-2.02D-11 OVMax= 6.30D-06

 Cycle  18  Pass 1  IDiag  1:
 E= -1136.12434714787     Delta-E=        0.000000000002 Rises=F Damp=F
 DIIS: error= 9.57D-09 at cycle  18 NSaved=  18.
 NSaved=18 IEnMin=17 EnMin= -1136.12434714787     IErMin=18 ErrMin= 9.57D-09
 ErrMax= 9.57D-09  0.00D+00 EMaxC= 1.00D-01 BMatC= 4.11D-14 BMatP= 5.48D-13
 IDIUse=1 WtCom= 1.00D+00 WtEn= 0.00D+00
 Coeff-Com:  0.111D-06-0.111D-06 0.203D-05 0.144D-05-0.820D-05-0.210D-04
 Coeff-Com: -0.661D-05 0.602D-04 0.124D-03-0.381D-03 0.296D-02-0.806D-02
 Coeff-Com: -0.718D-02 0.362D-01 0.159D-01-0.116D+00-0.177D+00 0.125D+01
 Coeff:      0.111D-06-0.111D-06 0.203D-05 0.144D-05-0.820D-05-0.210D-04
 Coeff:     -0.661D-05 0.602D-04 0.124D-03-0.381D-03 0.296D-02-0.806D-02
 Coeff:     -0.718D-02 0.362D-01 0.159D-01-0.116D+00-0.177D+00 0.125D+01
 Gap=     0.051 Goal=   None    Shift=    0.000
 Gap=     0.045 Goal=   None    Shift=    0.000
 RMSDP=3.41D-08 MaxDP=2.78D-06 DE= 1.59D-12 OVMax= 1.53D-06

 Cycle  19  Pass 1  IDiag  1:
 E= -1136.12434714787     Delta-E=        0.000000000000 Rises=F Damp=F
 DIIS: error= 3.34D-09 at cycle  19 NSaved=  19.
 NSaved=19 IEnMin=17 EnMin= -1136.12434714787     IErMin=19 ErrMin= 3.34D-09
 ErrMax= 3.34D-09  0.00D+00 EMaxC= 1.00D-01 BMatC= 7.12D-15 BMatP= 4.11D-14
 IDIUse=1 WtCom= 1.00D+00 WtEn= 0.00D+00
 Coeff-Com: -0.444D-06 0.593D-06 0.241D-05-0.278D-06 0.107D-04 0.194D-04
 Coeff-Com:  0.107D-04-0.142D-03-0.262D-03 0.226D-04 0.202D-02-0.181D-02
 Coeff-Com: -0.455D-02-0.367D-03 0.318D-01-0.149D-02-0.149D+00 0.131D+00
 Coeff-Com:  0.993D+00
 Coeff:     -0.444D-06 0.593D-06 0.241D-05-0.278D-06 0.107D-04 0.194D-04
 Coeff:      0.107D-04-0.142D-03-0.262D-03 0.226D-04 0.202D-02-0.181D-02
 Coeff:     -0.455D-02-0.367D-03 0.318D-01-0.149D-02-0.149D+00 0.131D+00
 Coeff:      0.993D+00
 Gap=     0.051 Goal=   None    Shift=    0.000
 Gap=     0.045 Goal=   None    Shift=    0.000
 RMSDP=1.11D-08 MaxDP=1.02D-06 DE= 0.00D+00 OVMax= 3.64D-07

 Cycle  20  Pass 1  IDiag  1:
 E= -1136.12434714789     Delta-E=       -0.000000000012 Rises=F Damp=F
 DIIS: error= 1.93D-09 at cycle  20 NSaved=  20.
 NSaved=20 IEnMin=20 EnMin= -1136.12434714789     IErMin=20 ErrMin= 1.93D-09
 ErrMax= 1.93D-09  0.00D+00 EMaxC= 1.00D-01 BMatC= 2.03D-15 BMatP= 7.12D-15
 IDIUse=1 WtCom= 1.00D+00 WtEn= 0.00D+00
 Large coefficients: NSaved= 20 BigCof=    0.00 CofMax=   10.00 Det=-5.22D-15
 Inversion failed.  Reducing to 19 matrices.
 Large coefficients: NSaved= 19 BigCof=    0.00 CofMax=   10.00 Det=-5.48D-15
 Inversion failed.  Reducing to 18 matrices.
 Large coefficients: NSaved= 18 BigCof=    0.00 CofMax=   10.00 Det=-5.49D-15
 Inversion failed.  Reducing to 17 matrices.
 Large coefficients: NSaved= 17 BigCof=    0.00 CofMax=   10.00 Det=-5.54D-15
 Inversion failed.  Reducing to 16 matrices.
 Large coefficients: NSaved= 16 BigCof=    0.00 CofMax=   10.00 Det=-5.55D-15
 Inversion failed.  Reducing to 15 matrices.
 Coeff-Com:  0.715D-06 0.913D-05-0.191D-04-0.267D-04 0.174D-03-0.434D-03
 Coeff-Com:  0.920D-03 0.139D-03-0.443D-02 0.250D-02 0.160D-01 0.936D-02
 Coeff-Com: -0.239D+00 0.287D+00 0.928D+00
 Coeff:      0.715D-06 0.913D-05-0.191D-04-0.267D-04 0.174D-03-0.434D-03
 Coeff:      0.920D-03 0.139D-03-0.443D-02 0.250D-02 0.160D-01 0.936D-02
 Coeff:     -0.239D+00 0.287D+00 0.928D+00
 Gap=     0.051 Goal=   None    Shift=    0.000
 Gap=     0.045 Goal=   None    Shift=    0.000
 RMSDP=5.55D-09 MaxDP=4.85D-07 DE=-1.21D-11 OVMax= 1.80D-07

 SCF Done:  E(UB3LYP) =  -1136.12434715     A.U. after   20 cycles
            NFock= 20  Conv=0.56D-08     -V/T= 2.0029
 <Sx>= 0.0000 <Sy>= 0.0000 <Sz>= 0.5000 <S**2>= 0.7723 S= 0.5111
 <L.S>= 0.000000000000E+00
 KE= 1.132873783724D+03 PE=-3.346275815832D+03 EE= 7.687358106648D+02
 Annihilation of the first spin contaminant:
 S**2 before annihilation     0.7723,   after     0.7503
 Leave Link  502 at Wed Nov 29 01:32:39 2023, MaxMem=  1879048192 cpu:             185.4 elap:              16.7
 (Enter /home/sekinelabo/g16/l601.exe)
 Copying SCF densities to generalized density rwf, IOpCl= 1 IROHF=0.

 **********************************************************************

            Population analysis using the SCF Density.

 **********************************************************************

 Orbital symmetries:
 Alpha Orbitals:
       Occupied  (A) (A) (A) (A) (A) (A) (A) (A) (A) (A) (A) (A)
                 (A) (A) (A) (A) (A) (A) (A) (A) (A) (A) (A) (A)
                 (A) (A) (A) (A) (A) (A) (A) (A) (A) (A) (A) (A)
                 (A) (A) (A)
       Virtual   (A) (A) (A) (A) (A) (A) (A) (A) (A) (A) (A) (A)
                 (A) (A) (A) (A) (A) (A) (A) (A) (A) (A) (A) (A)
                 (A) (A) (A) (A) (A) (A) (A) (A) (A) (A) (A) (A)
                 (A) (A) (A) (A) (A) (A) (A) (A) (A) (A) (A) (A)
                 (A) (A) (A) (A) (A) (A) (A) (A) (A) (A) (A) (A)
                 (A) (A) (A) (A) (A) (A) (A) (A) (A) (A) (A) (A)
                 (A) (A) (A) (A) (A) (A) (A) (A) (A) (A) (A) (A)
                 (A) (A) (A) (A) (A) (A) (A) (A) (A) (A) (A) (A)
                 (A) (A) (A) (A) (A) (A) (A) (A) (A) (A) (A) (A)
                 (A) (A) (A) (A) (A) (A) (A) (A) (A) (A) (A) (A)
                 (A) (A) (A) (A) (A) (A) (A) (A) (A) (A) (A) (A)
                 (A) (A) (A) (A) (A) (A) (A) (A) (A) (A) (A) (A)
                 (A) (A) (A) (A) (A) (A) (A) (A) (A) (A) (A) (A)
                 (A) (A) (A) (A) (A) (A) (A) (A) (A) (A) (A) (A)
                 (A) (A) (A)
 Beta  Orbitals:
       Occupied  (A) (A) (A) (A) (A) (A) (A) (A) (A) (A) (A) (A)
                 (A) (A) (A) (A) (A) (A) (A) (A) (A) (A) (A) (A)
                 (A) (A) (A) (A) (A) (A) (A) (A) (A) (A) (A) (A)
                 (A) (A)
       Virtual   (A) (A) (A) (A) (A) (A) (A) (A) (A) (A) (A) (A)
                 (A) (A) (A) (A) (A) (A) (A) (A) (A) (A) (A) (A)
                 (A) (A) (A) (A) (A) (A) (A) (A) (A) (A) (A) (A)
                 (A) (A) (A) (A) (A) (A) (A) (A) (A) (A) (A) (A)
                 (A) (A) (A) (A) (A) (A) (A) (A) (A) (A) (A) (A)
                 (A) (A) (A) (A) (A) (A) (A) (A) (A) (A) (A) (A)
                 (A) (A) (A) (A) (A) (A) (A) (A) (A) (A) (A) (A)
                 (A) (A) (A) (A) (A) (A) (A) (A) (A) (A) (A) (A)
                 (A) (A) (A) (A) (A) (A) (A) (A) (A) (A) (A) (A)
                 (A) (A) (A) (A) (A) (A) (A) (A) (A) (A) (A) (A)
                 (A) (A) (A) (A) (A) (A) (A) (A) (A) (A) (A) (A)
                 (A) (A) (A) (A) (A) (A) (A) (A) (A) (A) (A) (A)
                 (A) (A) (A) (A) (A) (A) (A) (A) (A) (A) (A) (A)
                 (A) (A) (A) (A) (A) (A) (A) (A) (A) (A) (A) (A)
                 (A) (A) (A) (A)
 The electronic state is 2-A.
 Alpha  occ. eigenvalues --  -38.44525 -38.44412 -38.44327 -38.43895 -38.43858
 Alpha  occ. eigenvalues --  -38.43778 -38.43762  -2.20328  -2.20302  -2.20110
 Alpha  occ. eigenvalues --   -2.19745  -2.19692  -2.19641  -2.19541  -1.14012
 Alpha  occ. eigenvalues --   -1.13979  -1.13977  -1.13950  -1.13941  -1.13894
 Alpha  occ. eigenvalues --   -1.13805  -1.13782  -1.13736  -1.13425  -1.13415
 Alpha  occ. eigenvalues --   -1.13397  -1.13380  -1.13344  -1.13337  -1.13320
 Alpha  occ. eigenvalues --   -1.13300  -1.13224  -1.13218  -1.13204  -1.13181
 Alpha  occ. eigenvalues --   -0.17387  -0.13681  -0.12400  -0.11166
 Alpha virt. eigenvalues --   -0.06101  -0.05288  -0.04763  -0.03840  -0.03320
 Alpha virt. eigenvalues --   -0.02319  -0.01432  -0.00888  -0.00869  -0.00606
 Alpha virt. eigenvalues --   -0.00326   0.00280   0.00342   0.00486   0.00627
 Alpha virt. eigenvalues --    0.00747   0.00967   0.01043   0.01086   0.01156
 Alpha virt. eigenvalues --    0.01349   0.01586   0.01687   0.01863   0.02081
 Alpha virt. eigenvalues --    0.02153   0.02242   0.02349   0.02492   0.02613
 Alpha virt. eigenvalues --    0.02731   0.02766   0.02846   0.02914   0.02977
 Alpha virt. eigenvalues --    0.03009   0.03166   0.03180   0.03386   0.03449
 Alpha virt. eigenvalues --    0.03706   0.03920   0.04155   0.04197   0.04445
 Alpha virt. eigenvalues --    0.04995   0.05199   0.05379   0.05779   0.05810
 Alpha virt. eigenvalues --    0.05856   0.06196   0.06614   0.06678   0.07265
 Alpha virt. eigenvalues --    0.07422   0.07581   0.07739   0.08104   0.08450
 Alpha virt. eigenvalues --    0.08544   0.08681   0.09593   0.10099   0.10534
 Alpha virt. eigenvalues --    0.10847   0.11640   0.12239   0.12533   0.12728
 Alpha virt. eigenvalues --    0.12952   0.13090   0.13208   0.13785   0.14332
 Alpha virt. eigenvalues --    0.14638   0.15269   0.15904   0.16140   0.17178
 Alpha virt. eigenvalues --    0.25728   0.26312   0.28443   0.28623   0.29435
 Alpha virt. eigenvalues --    0.29873   0.30205   0.30728   0.31896   0.32461
 Alpha virt. eigenvalues --    0.33611   0.34263   0.35135   0.35700   0.36410
 Alpha virt. eigenvalues --    0.37329   0.37743   0.39557   0.40040   0.41562
 Alpha virt. eigenvalues --    0.41942   0.42381   0.43104   0.43715   0.44111
 Alpha virt. eigenvalues --    0.44245   0.44384   0.44661   0.45068   0.45371
 Alpha virt. eigenvalues --    0.45507   0.46005   0.46269   0.46671   0.46830
 Alpha virt. eigenvalues --    0.47546   0.48561   0.49111   0.49537   0.49985
 Alpha virt. eigenvalues --    0.50542   0.51375   0.51519   0.52050   0.53041
 Alpha virt. eigenvalues --    0.53921   0.54526   0.55170   0.56149   0.57446
 Alpha virt. eigenvalues --    0.57777   0.60646   0.62787   0.63332   0.66615
 Alpha virt. eigenvalues --    0.71441   2.03411   2.08452   2.09645   2.12615
 Alpha virt. eigenvalues --    2.16301   2.21765   2.23143   4.42622   4.42827
 Alpha virt. eigenvalues --    4.43624   4.44175   4.44458   4.44774   4.45336
 Alpha virt. eigenvalues --    4.45690   4.45984   4.46478   4.46543   4.48007
 Alpha virt. eigenvalues --    4.48691   4.49341   4.50725   4.51074   4.52347
 Alpha virt. eigenvalues --    4.54933   4.55811   4.58307   4.64376  96.22931
 Alpha virt. eigenvalues --   96.28986  96.30323  96.34062  96.38033  96.45409
 Alpha virt. eigenvalues --   96.47316
  Beta  occ. eigenvalues --  -38.44443 -38.44336 -38.44325 -38.43891 -38.43810
  Beta  occ. eigenvalues --  -38.43782 -38.43752  -2.20175  -2.20164  -2.20110
  Beta  occ. eigenvalues --   -2.19744  -2.19629  -2.19601  -2.19551  -1.13920
  Beta  occ. eigenvalues --   -1.13876  -1.13873  -1.13864  -1.13838  -1.13803
  Beta  occ. eigenvalues --   -1.13793  -1.13779  -1.13722  -1.13428  -1.13419
  Beta  occ. eigenvalues --   -1.13351  -1.13335  -1.13319  -1.13297  -1.13271
  Beta  occ. eigenvalues --   -1.13260  -1.13230  -1.13213  -1.13186  -1.13178
  Beta  occ. eigenvalues --   -0.16779  -0.12965  -0.12197
  Beta virt. eigenvalues --   -0.07744  -0.06012  -0.04979  -0.04242  -0.03594
  Beta virt. eigenvalues --   -0.02654  -0.01808  -0.01339  -0.00889  -0.00720
  Beta virt. eigenvalues --   -0.00485  -0.00020   0.00458   0.00489   0.00686
  Beta virt. eigenvalues --    0.00740   0.00765   0.01034   0.01149   0.01173
  Beta virt. eigenvalues --    0.01289   0.01458   0.01629   0.01796   0.01882
  Beta virt. eigenvalues --    0.02178   0.02261   0.02295   0.02409   0.02621
  Beta virt. eigenvalues --    0.02719   0.02770   0.02827   0.02901   0.02977
  Beta virt. eigenvalues --    0.03024   0.03098   0.03166   0.03294   0.03448
  Beta virt. eigenvalues --    0.03482   0.03790   0.04081   0.04276   0.04318
  Beta virt. eigenvalues --    0.04468   0.05069   0.05269   0.05425   0.05829
  Beta virt. eigenvalues --    0.05910   0.05976   0.06263   0.06736   0.06802
  Beta virt. eigenvalues --    0.07273   0.07490   0.07659   0.07905   0.08359
  Beta virt. eigenvalues --    0.08519   0.08788   0.08847   0.09846   0.10279
  Beta virt. eigenvalues --    0.10659   0.11086   0.11822   0.12402   0.12672
  Beta virt. eigenvalues --    0.12971   0.13177   0.13194   0.13266   0.14030
  Beta virt. eigenvalues --    0.14442   0.14725   0.15424   0.16156   0.16253
  Beta virt. eigenvalues --    0.17408   0.26016   0.26743   0.28808   0.28876
  Beta virt. eigenvalues --    0.29683   0.30181   0.30541   0.31072   0.32180
  Beta virt. eigenvalues --    0.32663   0.33916   0.34639   0.35319   0.35994
  Beta virt. eigenvalues --    0.36633   0.37859   0.37987   0.39973   0.40237
  Beta virt. eigenvalues --    0.41659   0.42162   0.42487   0.43304   0.43956
  Beta virt. eigenvalues --    0.44253   0.44380   0.44547   0.44801   0.45145
  Beta virt. eigenvalues --    0.45566   0.45724   0.46081   0.46393   0.46666
  Beta virt. eigenvalues --    0.47015   0.47724   0.48701   0.49261   0.49656
  Beta virt. eigenvalues --    0.50050   0.50584   0.51474   0.51659   0.52107
  Beta virt. eigenvalues --    0.53179   0.54037   0.54699   0.55303   0.56401
  Beta virt. eigenvalues --    0.57512   0.57933   0.60735   0.62920   0.63576
  Beta virt. eigenvalues --    0.66815   0.71657   2.03530   2.08615   2.09698
  Beta virt. eigenvalues --    2.12878   2.16323   2.21915   2.23235   4.42709
  Beta virt. eigenvalues --    4.42911   4.43673   4.44235   4.44516   4.44806
  Beta virt. eigenvalues --    4.45422   4.45769   4.45999   4.46484   4.46572
  Beta virt. eigenvalues --    4.48048   4.48705   4.49345   4.50771   4.51146
  Beta virt. eigenvalues --    4.52390   4.54980   4.55881   4.58341   4.64466
  Beta virt. eigenvalues --   96.22971  96.29033  96.30353  96.34141  96.38046
  Beta virt. eigenvalues --   96.45455  96.47353
          Condensed to atoms (all electrons):
               1          2          3          4          5          6
     1  Na  11.166891  -0.642449  -0.057851   0.905193  -0.404371   0.083053
     2  Na  -0.642449  11.912594  -0.407146  -1.022950   0.640943   0.020003
     3  Na  -0.057851  -0.407146  11.229499  -0.069344   0.054909  -0.061535
     4  Na   0.905193  -1.022950  -0.069344  12.793314  -1.010803   0.280060
     5  Na  -0.404371   0.640943   0.054909  -1.010803  11.254746  -0.145796
     6  Na   0.083053   0.020003  -0.061535   0.280060  -0.145796  10.993486
     7  Na   0.281176  -0.342754   0.355199  -0.148991  -0.021308  -0.027204
               7
     1  Na   0.281176
     2  Na  -0.342754
     3  Na   0.355199
     4  Na  -0.148991
     5  Na  -0.021308
     6  Na  -0.027204
     7  Na  11.133405
          Atomic-Atomic Spin Densities.
               1          2          3          4          5          6
     1  Na  -0.172657   0.131155   0.084804  -0.205177   0.080851  -0.036925
     2  Na   0.131155   0.229646  -0.233950   0.191958   0.029783  -0.095635
     3  Na   0.084804  -0.233950   0.134836   0.190141  -0.128333   0.068711
     4  Na  -0.205177   0.191958   0.190141  -0.329763   0.091905  -0.079610
     5  Na   0.080851   0.029783  -0.128333   0.091905   0.280380   0.064635
     6  Na  -0.036925  -0.095635   0.068711  -0.079610   0.064635   0.451960
     7  Na   0.073080  -0.138610   0.074767   0.106675  -0.077586  -0.005758
               7
     1  Na   0.073080
     2  Na  -0.138610
     3  Na   0.074767
     4  Na   0.106675
     5  Na  -0.077586
     6  Na  -0.005758
     7  Na   0.031832
 Mulliken charges and spin densities:
               1          2
     1  Na  -0.331641  -0.044869
     2  Na   0.841759   0.114348
     3  Na  -0.043730   0.190977
     4  Na  -0.726479  -0.033871
     5  Na   0.631681   0.341636
     6  Na  -0.142067   0.367379
     7  Na  -0.229523   0.064400
 Sum of Mulliken charges =  -0.00000   1.00000
 Mulliken charges and spin densities with hydrogens summed into heavy atoms:
               1          2
     1  Na  -0.331641  -0.044869
     2  Na   0.841759   0.114348
     3  Na  -0.043730   0.190977
     4  Na  -0.726479  -0.033871
     5  Na   0.631681   0.341636
     6  Na  -0.142067   0.367379
     7  Na  -0.229523   0.064400
 Electronic spatial extent (au):  <R**2>=           2892.4577
 Charge=             -0.0000 electrons
 Dipole moment (field-independent basis, Debye):
    X=             -0.0177    Y=              0.0066    Z=             -0.0889  Tot=              0.0908
 Quadrupole moment (field-independent basis, Debye-Ang):
   XX=            -64.8114   YY=            -66.4120   ZZ=            -68.3228
   XY=              1.3332   XZ=             -0.8588   YZ=              0.0915
 Traceless Quadrupole moment (field-independent basis, Debye-Ang):
   XX=              1.7040   YY=              0.1034   ZZ=             -1.8074
   XY=              1.3332   XZ=             -0.8588   YZ=              0.0915
 Octapole moment (field-independent basis, Debye-Ang**2):
  XXX=             13.8538  YYY=             -1.9786  ZZZ=              5.3205  XYY=             -7.0987
  XXY=              2.1917  XXZ=            -11.2714  XZZ=             -0.7896  YZZ=             -0.3779
  YYZ=             -0.9996  XYZ=              8.0373
 Hexadecapole moment (field-independent basis, Debye-Ang**3):
 XXXX=          -2471.9501 YYYY=          -1683.1057 ZZZZ=           -778.6545 XXXY=             36.5459
 XXXZ=            -35.0600 YYYX=             14.1054 YYYZ=             -5.7962 ZZZX=             -7.4189
 ZZZY=              0.8209 XXYY=           -646.3052 XXZZ=           -515.0560 YYZZ=           -465.5806
 XXYZ=              1.9850 YYXZ=             -7.5128 ZZXY=            -11.8825
 N-N= 3.085418742954D+02 E-N=-3.346275815726D+03  KE= 1.132873783724D+03
                          Isotropic Fermi Contact Couplings
        Atom                 a.u.       MegaHertz       Gauss      10(-4) cm-1
     1  Na(23)            -0.02312     -27.35399      -9.76058      -9.12431
     2  Na(23)             0.31276     370.00613     132.02739     123.42076
     3  Na(23)            -0.04640     -54.89746     -19.58878     -18.31182
     4  Na(23)            -0.01305     -15.44052      -5.50956      -5.15040
     5  Na(23)             0.21580     255.30038      91.09752      85.15904
     6  Na(23)             0.35364     418.36089     149.28157     139.55017
     7  Na(23)            -0.03919     -46.35762     -16.54155     -15.46324
 --------------------------------------------------------
       Center         ----  Spin Dipole Couplings  ----
                      3XX-RR        3YY-RR        3ZZ-RR
 --------------------------------------------------------
     1   Atom        0.005973     -0.011717      0.005744
     2   Atom       -0.009965      0.016323     -0.006358
     3   Atom        0.003716     -0.021351      0.017635
     4   Atom       -0.000976     -0.019504      0.020481
     5   Atom       -0.000220      0.002114     -0.001894
     6   Atom       -0.000397      0.003638     -0.003241
     7   Atom        0.000315     -0.006012      0.005697
 --------------------------------------------------------
                        XY            XZ            YZ
 --------------------------------------------------------
     1   Atom       -0.003499     -0.018928      0.006602
     2   Atom       -0.000723     -0.001088     -0.001876
     3   Atom       -0.007137      0.035658     -0.010514
     4   Atom       -0.009436     -0.034935      0.008667
     5   Atom        0.000156      0.003649     -0.000705
     6   Atom        0.001352     -0.002104      0.000630
     7   Atom       -0.002681      0.012043     -0.002198
 --------------------------------------------------------


 ---------------------------------------------------------------------------------
              Anisotropic Spin Dipole Couplings in Principal Axis System
 ---------------------------------------------------------------------------------

       Atom             a.u.   MegaHertz   Gauss  10(-4) cm-1        Axes

              Baa    -0.0152    -2.153    -0.768    -0.718 -0.4112  0.6953 -0.5895
     1 Na(23) Bbb    -0.0109    -1.538    -0.549    -0.513  0.5963  0.6943  0.4029
              Bcc     0.0261     3.691     1.317     1.231 -0.6894  0.1858  0.7001
 
              Baa    -0.0103    -1.458    -0.520    -0.486  0.9576  0.0460  0.2844
     2 Na(23) Bbb    -0.0062    -0.871    -0.311    -0.291 -0.2871  0.0705  0.9553
              Bcc     0.0165     2.329     0.831     0.777 -0.0239  0.9965 -0.0807
 
              Baa    -0.0262    -3.697    -1.319    -1.233  0.6588 -0.4058 -0.6335
     3 Na(23) Bbb    -0.0231    -3.261    -1.164    -1.088  0.4207  0.8968 -0.1369
              Bcc     0.0493     6.958     2.483     2.321  0.6237 -0.1764  0.7615
 
              Baa    -0.0278    -3.921    -1.399    -1.308  0.7830  0.3692  0.5007
     4 Na(23) Bbb    -0.0209    -2.946    -1.051    -0.983 -0.1997  0.9114 -0.3598
              Bcc     0.0486     6.866     2.450     2.290 -0.5891  0.1818  0.7873
 
              Baa    -0.0049    -0.686    -0.245    -0.229 -0.6174  0.0927  0.7812
     5 Na(23) Bbb     0.0020     0.286     0.102     0.095  0.3895  0.8988  0.2011
              Bcc     0.0028     0.401     0.143     0.134  0.6835 -0.4284  0.5910
 
              Baa    -0.0045    -0.640    -0.229    -0.214  0.4860 -0.1468  0.8615
     6 Na(23) Bbb     0.0005     0.069     0.025     0.023  0.8239 -0.2520 -0.5077
              Bcc     0.0040     0.572     0.204     0.191  0.2916  0.9565 -0.0016
 
              Baa    -0.0095    -1.342    -0.479    -0.448  0.7787  0.2307 -0.5835
     7 Na(23) Bbb    -0.0064    -0.899    -0.321    -0.300 -0.0878  0.9609  0.2627
              Bcc     0.0159     2.241     0.800     0.748  0.6213 -0.1533  0.7684
 

 ---------------------------------------------------------------------------------

 No NMR shielding tensors so no spin-rotation constants.
 Leave Link  601 at Wed Nov 29 01:32:39 2023, MaxMem=  1879048192 cpu:               2.3 elap:               0.2
 (Enter /home/sekinelabo/g16/l701.exe)
 ... and contract with generalized density number  0.
 Compute integral first derivatives.
 Leave Link  701 at Wed Nov 29 01:32:40 2023, MaxMem=  1879048192 cpu:               1.6 elap:               0.1
 (Enter /home/sekinelabo/g16/l702.exe)
 L702 exits ... SP integral derivatives will be done elsewhere.
 Leave Link  702 at Wed Nov 29 01:32:40 2023, MaxMem=  1879048192 cpu:               0.5 elap:               0.0
 (Enter /home/sekinelabo/g16/l703.exe)
 Integral derivatives from FoFJK, PRISM(SPDF).
 Compute integral first derivatives, UseDBF=F ICtDFT=           0.
 Calling FoFJK, ICntrl=      2127 FMM=F ISym2X=0 I1Cent= 0 IOpClX= 1 NMat=1 NMatS=1 NMatT=0.
 FoFJK:  IHMeth= 1 ICntrl=    2127 DoSepK=F KAlg= 0 I1Cent=           0 FoldK=F
 IRaf=         0 NMat=       1 IRICut=       1 DoRegI=T DoRafI=F ISym2E= 0 IDoP0=0 IntGTp=1.
 FoFCou: FMM=F IPFlag=           0 FMFlag=      100000 FMFlg1=         800
         NFxFlg=           0 DoJE=F BraDBF=F KetDBF=F FulRan=T
         wScrn=  0.000000 ICntrl=      2127 IOpCl=  1 I1Cent=           0 NGrid=           0
         NMat0=    1 NMatS0=      1 NMatT0=    0 NMatD0=    1 NMtDS0=    0 NMtDT0=    0
 Symmetry not used in FoFCou.
 Leave Link  703 at Wed Nov 29 01:32:42 2023, MaxMem=  1879048192 cpu:              31.8 elap:               2.1
 (Enter /home/sekinelabo/g16/l716.exe)
 Dipole        =-6.95022978D-03 2.61334993D-03-3.49617581D-02
 ***** Axes restored to original set *****
 -------------------------------------------------------------------
 Center     Atomic                   Forces (Hartrees/Bohr)
 Number     Number              X              Y              Z
 -------------------------------------------------------------------
      1       11           0.002749351   -0.000173639    0.003076991
      2       11          -0.003617183    0.003724880    0.002557847
      3       11           0.001189026   -0.000692095   -0.000202972
      4       11           0.000907429   -0.002777817   -0.000817421
      5       11          -0.001620462   -0.000091355   -0.000913561
      6       11          -0.001486851    0.001948227   -0.001539256
      7       11           0.001878689   -0.001938202   -0.002161629
 -------------------------------------------------------------------
 Cartesian Forces:  Max     0.003724880 RMS     0.002017817
 Z-matrix is all fixed cartesians, so copy forces.
 Force constants in Cartesian coordinates: 
                1             2             3             4             5 
      1  0.379460D-01
      2 -0.132360D-01  0.410239D-01
      3  0.114318D-01  0.377738D-02  0.346040D-01
      4 -0.143632D-01 -0.730911D-02  0.312366D-02  0.640287D-01
      5  0.227955D-02 -0.142559D-01  0.143052D-02  0.819317D-02  0.801575D-01
      6 -0.735467D-02 -0.340412D-02 -0.674709D-02  0.701270D-03 -0.276281D-02
      7  0.266884D-03  0.402821D-02 -0.243167D-02 -0.180633D-01 -0.476065D-02
      8  0.664699D-04  0.272360D-02 -0.138021D-02  0.118908D-01 -0.212015D-01
      9 -0.867201D-04  0.242062D-03  0.822453D-04 -0.349931D-02  0.290167D-02
     10 -0.342908D-02  0.507911D-02  0.829788D-03 -0.241148D-01 -0.488841D-02
     11  0.540348D-02  0.468601D-03  0.160482D-02  0.406353D-02 -0.343374D-01
     12  0.106184D-02  0.142950D-02  0.127187D-02 -0.145621D-02 -0.260662D-03
     13 -0.122035D-01  0.976517D-02 -0.206394D-02  0.367424D-02 -0.469756D-02
     14 -0.164686D-02 -0.184426D-01 -0.613883D-02 -0.596350D-02 -0.173848D-03
     15 -0.779396D-02  0.123754D-02 -0.101516D-01 -0.142736D-02 -0.161054D-02
     16  0.202196D-03 -0.140508D-04 -0.503181D-04  0.314368D-02 -0.234377D-02
     17 -0.131266D-02  0.246129D-02 -0.740810D-03 -0.331685D-02  0.406226D-03
     18 -0.198233D-02  0.334807D-02 -0.951569D-03  0.196146D-02  0.201095D-02
     19 -0.841930D-02  0.168672D-02 -0.108393D-01 -0.143054D-01  0.621766D-02
     20  0.844606D-02 -0.139789D-01  0.144712D-02 -0.755803D-02 -0.105951D-01
     21  0.472402D-02 -0.663043D-02 -0.181078D-01  0.596496D-03 -0.170912D-02
                6             7             8             9            10 
      6  0.528573D-01
      7  0.432969D-02  0.613261D-01
      8  0.138401D-01 -0.105218D-01  0.302148D-01
      9 -0.164118D-01  0.367532D-02 -0.523180D-02  0.476254D-01
     10 -0.433186D-02 -0.197942D-01 -0.662145D-02 -0.870358D-02  0.682890D-01
     11 -0.148352D-01  0.170814D-02 -0.491055D-02  0.367508D-02 -0.460917D-02
     12 -0.126746D-01  0.462104D-02 -0.100450D-01 -0.225004D-01  0.422525D-02
     13 -0.996839D-03  0.231486D-02  0.348609D-03 -0.104638D-02 -0.263242D-01
     14 -0.203041D-02 -0.581788D-04  0.429251D-03 -0.424225D-04  0.513166D-02
     15 -0.536134D-03 -0.532299D-02 -0.108248D-02  0.244827D-02  0.280646D-02
     16  0.608507D-03 -0.231962D-01  0.193197D-02  0.107133D-01  0.366166D-02
     17  0.297582D-02  0.671270D-02 -0.715169D-02  0.780079D-03  0.954526D-03
     18 -0.453986D-02 -0.360145D-02  0.607530D-02 -0.159838D-01  0.426625D-02
     19  0.704389D-02 -0.285421D-02  0.290535D-02 -0.105268D-02  0.171163D-02
     20  0.621661D-02  0.289153D-02 -0.103885D-03 -0.232467D-02  0.495372D-02
     21 -0.119478D-01 -0.126995D-02 -0.217588D-02  0.474016D-02  0.907689D-03
               11            12            13            14            15 
     11  0.516309D-01
     12  0.158957D-01  0.497122D-01
     13 -0.681383D-02 -0.616528D-02  0.316534D-01
     14 -0.142595D-01 -0.390991D-02  0.295815D-02  0.313503D-01
     15 -0.634538D-02 -0.137188D-01  0.981838D-02  0.124569D-01  0.205891D-01
     16 -0.627639D-04 -0.158106D-02 -0.483069D-04 -0.126040D-04  0.126715D-04
     17  0.251783D-03 -0.499804D-03 -0.312383D-05 -0.974311D-04  0.154690D-04
     18 -0.104893D-03 -0.183096D-02  0.118796D-04  0.214039D-04 -0.589159D-05
     19  0.310619D-03 -0.705578D-03  0.933532D-03 -0.408665D-03  0.190679D-02
     20  0.115614D-02 -0.260979D-02 -0.155742D-02  0.119389D-02 -0.467150D-02
     21  0.109867D-03 -0.259314D-03  0.442171D-03 -0.356739D-03  0.137503D-02
               16            17            18            19            20 
     16  0.233085D-01
     17 -0.555932D-02  0.135777D-01
     18 -0.749887D-02 -0.746208D-02  0.327970D-01
     19 -0.707159D-02  0.252473D-02  0.684306D-02  0.300054D-01
     20  0.606053D-02 -0.944789D-02 -0.388875D-02 -0.132364D-01  0.317757D-01
     21 -0.220427D-02  0.493133D-02 -0.948496D-02 -0.319615D-02  0.583097D-02
               21 
     21  0.336847D-01
 Leave Link  716 at Wed Nov 29 01:32:42 2023, MaxMem=  1879048192 cpu:               0.4 elap:               0.0
 (Enter /home/sekinelabo/g16/l103.exe)

 GradGradGradGradGradGradGradGradGradGradGradGradGradGradGradGradGradGrad
 Berny optimization.
 Search for a local minimum.
 Step number   1 out of a maximum of    2
 All quantities printed in internal units (Hartrees-Bohrs-Radians)
 Second derivative matrix not updated -- first step.
 ITU=  0
     Eigenvalues ---    0.00885   0.01563   0.02379   0.02921   0.03635
     Eigenvalues ---    0.03864   0.04477   0.04762   0.06091   0.07367
     Eigenvalues ---    0.08292   0.09049   0.09479   0.10536   0.11490
 Angle between quadratic step and forces=  30.08 degrees.
 Linear search not attempted -- first point.
 B after Tr=    -0.000000    0.000000    0.000000
         Rot=    1.000000    0.000000   -0.000000    0.000000 Ang=   0.00 deg.
 Variable       Old X    -DE/DX   Delta X   Delta X   Delta X     New X
                                 (Linear)    (Quad)   (Total)
    X1       24.61123   0.00275   0.00000   0.05787   0.05787  24.66910
    Y1       30.89778  -0.00017   0.00000  -0.00662  -0.00662  30.89116
    Z1       25.64925   0.00308   0.00000   0.08143   0.08143  25.73068
    X2       31.45808  -0.00362   0.00000  -0.04145  -0.04145  31.41663
    Y2       31.87779   0.00372   0.00000   0.02709   0.02709  31.90488
    Z2       28.08662   0.00256   0.00000   0.03961   0.03961  28.12623
    X3       34.16379   0.00119   0.00000  -0.00634  -0.00634  34.15746
    Y3       27.59832  -0.00069   0.00000   0.00878   0.00878  27.60710
    Z3       31.84869  -0.00020   0.00000  -0.00946  -0.00946  31.83923
    X4       31.63874   0.00091   0.00000   0.00528   0.00528  31.64402
    Y4       26.42177  -0.00278   0.00000  -0.02554  -0.02554  26.39623
    Z4       25.94254  -0.00082   0.00000  -0.01435  -0.01435  25.92819
    X5       26.19879  -0.00162   0.00000  -0.01674  -0.01674  26.18204
    Y5       24.92322  -0.00009   0.00000  -0.00076  -0.00076  24.92246
    Z5       23.59361  -0.00091   0.00000  -0.00644  -0.00644  23.58716
    X6       29.38732  -0.00149   0.00000  -0.04393  -0.04393  29.34339
    Y6       28.06791   0.00195   0.00000   0.05212   0.05212  28.12003
    Z6       35.84357  -0.00154   0.00000  -0.06441  -0.06441  35.77915
    X7       25.54683   0.00188   0.00000   0.04531   0.04531  25.59214
    Y7       33.21817  -0.00194   0.00000  -0.05507  -0.05507  33.16310
    Z7       32.04068  -0.00216   0.00000  -0.02637  -0.02637  32.01432
         Item               Value     Threshold  Converged?
 Maximum Force            0.003725     0.000450     NO 
 RMS     Force            0.002018     0.000300     NO 
 Maximum Displacement     0.081432     0.001800     NO 
 RMS     Displacement     0.037820     0.001200     NO 
 Predicted change in Energy=-6.933681D-04
 GradGradGradGradGradGradGradGradGradGradGradGradGradGradGradGradGradGrad

 Leave Link  103 at Wed Nov 29 01:32:42 2023, MaxMem=  1879048192 cpu:               0.2 elap:               0.0
 (Enter /home/sekinelabo/g16/l9999.exe)
 1\1\GINC-SEKINELABO-XA7R-R37\Force\UB3LYP\6-311+G(d)\Na7(2)\SEKINELABO
 \29-Nov-2023\0\\#P B3LYP/6-311+g(d) force\\DPGEN\\0,2\Na,13.0237,16.35
 04,13.573\Na,16.6469,16.869,14.8628\Na,18.0787,14.6044,16.8536\Na,16.7
 425,13.9818,13.7282\Na,13.8638,13.1888,12.4852\Na,15.5511,14.8529,18.9
 676\Na,13.5188,17.5783,16.9552\\Version=ES64L-G16RevB.01\State=2-A\HF=
 -1136.1243471\S2=0.772341\S2-1=0.\S2A=0.750273\RMSD=5.554e-09\RMSF=2.0
 18e-03\Dipole=-0.0173439,-0.023955,0.0200701\Quadrupole=0.6733936,-0.6
 994779,0.0260843,-0.3447253,1.5296017,0.4158499\PG=C01 [X(Na7)]\\@


 Any fool can criticize, condemn, and complain -- and most do.
 -- Dale Carnegie
 Job cpu time:       0 days  0 hours  3 minutes 53.1 seconds.
 Elapsed time:       0 days  0 hours  0 minutes 19.9 seconds.
 File lengths (MBytes):  RWF=     32 Int=      0 D2E=      0 Chk=      4 Scr=      1
 Normal termination of Gaussian 16 at Wed Nov 29 01:32:42 2023.
