ITEM: TIMESTEP
7950
ITEM: NUMBER OF ATOMS
7
ITEM: BOX BOUNDS xy xz yz ff ff ff
0.0000000000000000e+00 2.5616831067800000e+01 0.0000000000000000e+00
0.0000000000000000e+00 2.5616831067800000e+01 0.0000000000000000e+00
0.0000000000000000e+00 2.5616831067800000e+01 0.0000000000000000e+00
ITEM: ATOMS id type x y z fx fy fz
2 1 14.8882 10.9905 10.2051 -0.0225942 -0.0100939 0.0981407
1 1 9.76493 12.6726 13.0341 -0.0374074 -0.270252 -0.121804
7 1 10.2295 14.6505 15.1608 0.0439444 0.179464 0.17939
4 1 12.5741 13.1533 11.4502 0.00287406 -0.0581044 -0.170129
6 1 13.5287 14.4859 14.1786 0.0252393 0.0334673 0.15727
5 1 12.5587 10.1188 13.4186 -0.00738737 0.170062 -0.109601
3 1 16.1148 13.5873 12.2113 -0.00466879 -0.0445433 -0.0332662
