1.780359999999999943e+01 1.413819999999999943e+01 1.710300000000000153e+01 2.048829999999999885e+01 1.430690000000000062e+01 1.393839999999999968e+01 1.797690000000000055e+01 1.646740000000000137e+01 1.431610000000000049e+01 1.702830000000000155e+01 1.726770000000000138e+01 1.796239999999999881e+01 1.454199999999999982e+01 1.550500000000000078e+01 1.481020000000000003e+01 1.113470000000000049e+01 1.520570000000000022e+01 1.433869999999999933e+01 8.451739999999999142e+00 1.453459999999999930e+01 1.495669999999999966e+01
1.827789999999999893e+01 1.378759999999999941e+01 1.659489999999999910e+01 2.035960000000000036e+01 1.350370000000000026e+01 1.414039999999999964e+01 1.891069999999999851e+01 1.719480000000000075e+01 1.434190000000000076e+01 1.663749999999999929e+01 1.749680000000000035e+01 1.754050000000000153e+01 1.429349999999999987e+01 1.580690000000000062e+01 1.553379999999999939e+01 1.091639999999999944e+01 1.540760000000000041e+01 1.479930000000000057e+01 8.029840000000000089e+00 1.422799999999999976e+01 1.447470000000000034e+01
1.822660000000000124e+01 1.385769999999999946e+01 1.655369999999999919e+01 2.038710000000000022e+01 1.346870000000000012e+01 1.412400000000000055e+01 1.896079999999999899e+01 1.719389999999999930e+01 1.441660000000000075e+01 1.667989999999999995e+01 1.748679999999999879e+01 1.746359999999999957e+01 1.421490000000000009e+01 1.578330000000000055e+01 1.558350000000000080e+01 1.082569999999999943e+01 1.538080000000000069e+01 1.484929999999999950e+01 8.130480000000000373e+00 1.425420000000000087e+01 1.443479999999999919e+01
1.816229999999999833e+01 1.396429999999999971e+01 1.649889999999999901e+01 2.040340000000000131e+01 1.345950000000000024e+01 1.411250000000000071e+01 1.899599999999999866e+01 1.715050000000000097e+01 1.452079999999999949e+01 1.673359999999999914e+01 1.745530000000000115e+01 1.735729999999999862e+01 1.416220000000000034e+01 1.576130000000000031e+01 1.564119999999999955e+01 1.076399999999999935e+01 1.536509999999999998e+01 1.490409999999999968e+01 8.204019999999999868e+00 1.426960000000000051e+01 1.439070000000000071e+01
1.808709999999999951e+01 1.410019999999999918e+01 1.643090000000000117e+01 2.040759999999999863e+01 1.347530000000000072e+01 1.410800000000000054e+01 1.902309999999999945e+01 1.706980000000000075e+01 1.464429999999999943e+01 1.679459999999999908e+01 1.740680000000000049e+01 1.723059999999999903e+01 1.413080000000000069e+01 1.573910000000000053e+01 1.570570000000000022e+01 1.075270000000000081e+01 1.536909999999999954e+01 1.496909999999999918e+01 8.229520000000000834e+00 1.426520000000000010e+01 1.433709999999999951e+01
1.469389999999999930e+01 1.148320000000000007e+01 1.447059999999999924e+01 1.701930000000000121e+01 1.404269999999999996e+01 1.608999999999999986e+01 1.938550000000000040e+01 1.547680000000000078e+01 1.767950000000000088e+01 1.735569999999999879e+01 1.728119999999999834e+01 1.485110000000000063e+01 1.396419999999999995e+01 1.776370000000000005e+01 1.609430000000000049e+01 1.387069999999999936e+01 1.432569999999999943e+01 1.426689999999999969e+01 1.113620000000000054e+01 1.705209999999999937e+01 1.397320000000000029e+01
1.375569999999999915e+01 1.630389999999999873e+01 1.912519999999999953e+01 1.478899999999999970e+01 1.278320000000000078e+01 1.834799999999999898e+01 1.583709999999999951e+01 1.549859999999999971e+01 1.577350000000000030e+01 1.594829999999999970e+01 1.308350000000000080e+01 1.388700000000000045e+01 1.522170000000000023e+01 1.469270000000000032e+01 1.064770000000000039e+01 1.516690000000000005e+01 1.869429999999999836e+01 1.671280000000000143e+01 1.670680000000000121e+01 1.636939999999999884e+01 1.293140000000000001e+01
1.457199999999999918e+01 1.402810000000000024e+01 1.207939999999999969e+01 1.637659999999999982e+01 1.811570000000000036e+01 1.629810000000000159e+01 1.369759999999999955e+01 1.281789999999999985e+01 1.607389999999999830e+01 1.428749999999999964e+01 1.599220000000000041e+01 1.823730000000000118e+01 1.703369999999999962e+01 1.586219999999999963e+01 1.303909999999999947e+01 1.702809999999999846e+01 1.499189999999999934e+01 1.666959999999999908e+01 1.442999999999999972e+01 1.561749999999999972e+01 1.502800000000000047e+01
1.625019999999999953e+01 1.111539999999999928e+01 1.460229999999999961e+01 1.496419999999999995e+01 1.717269999999999897e+01 1.516549999999999976e+01 1.383949999999999925e+01 1.408660000000000068e+01 1.505489999999999995e+01 1.721499999999999986e+01 1.463240000000000052e+01 1.538289999999999935e+01 1.249160000000000004e+01 1.149029999999999951e+01 1.372059999999999924e+01 1.777250000000000085e+01 1.846120000000000161e+01 1.657519999999999882e+01 1.489240000000000030e+01 2.046689999999999898e+01 1.692419999999999902e+01
1.272160000000000046e+01 1.651360000000000028e+01 1.813609999999999900e+01 1.462780000000000058e+01 1.544330000000000069e+01 1.441080000000000005e+01 1.873140000000000072e+01 1.347250000000000014e+01 1.748679999999999879e+01 1.534989999999999988e+01 1.462459999999999916e+01 1.778600000000000136e+01 1.817849999999999966e+01 1.693039999999999878e+01 1.608160000000000167e+01 1.225430000000000064e+01 1.613540000000000063e+01 1.224499999999999922e+01 1.556199999999999939e+01 1.430569999999999986e+01 1.127919999999999945e+01
1.328170000000000073e+01 1.775179999999999936e+01 1.651030000000000086e+01 1.754390000000000072e+01 1.486570000000000036e+01 1.740409999999999968e+01 1.670060000000000144e+01 1.137860000000000049e+01 1.669839999999999947e+01 1.698400000000000176e+01 1.382019999999999982e+01 1.405489999999999995e+01 1.640769999999999840e+01 1.761700000000000088e+01 1.473119999999999941e+01 1.250070000000000014e+01 1.744829999999999970e+01 1.305589999999999939e+01 1.400689999999999991e+01 1.454379999999999917e+01 1.497070000000000078e+01
1.363530000000000086e+01 1.744249999999999901e+01 1.646150000000000091e+01 1.553899999999999970e+01 1.535089999999999932e+01 1.849269999999999925e+01 1.696270000000000167e+01 1.258910000000000018e+01 1.589289999999999914e+01 1.586810000000000009e+01 1.416440000000000055e+01 1.280519999999999925e+01 1.726239999999999952e+01 1.645560000000000045e+01 1.532360000000000078e+01 1.419860000000000078e+01 1.693850000000000122e+01 1.306729999999999947e+01 1.395940000000000047e+01 1.448450000000000060e+01 1.538219999999999921e+01
1.300079999999999991e+01 1.631970000000000098e+01 1.349380000000000024e+01 1.597289999999999921e+01 1.337570000000000014e+01 1.732750000000000057e+01 1.316489999999999938e+01 1.342459999999999987e+01 1.534750000000000014e+01 1.639359999999999928e+01 1.502560000000000073e+01 1.488909999999999911e+01 1.406850000000000023e+01 1.606579999999999941e+01 1.669040000000000035e+01 1.622560000000000002e+01 1.771659999999999968e+01 1.251490000000000080e+01 1.859919999999999973e+01 1.549750000000000050e+01 1.716229999999999833e+01
