-3.091502654061543581e+04
-3.091504957532600747e+04
-3.091506985515583801e+04
-3.091510346938126531e+04
-3.091517161376738659e+04
-3.091551186521312047e+04
-3.091534359625919387e+04
-3.091563236185735150e+04
-3.091535016535994509e+04
-3.091503836396275801e+04
-3.091522366561179297e+04
-3.091589428750468869e+04
-3.091544979821800371e+04
