7.194533451507230393e-02 2.083645314071091992e-01 -1.595530080303538822e-01 -7.928619460179017753e-02 1.459527967800802566e-02 3.203589661568358865e-02 7.466936711756320955e-02 -1.866136139294330698e-01 3.307415958009809337e-02 -1.276056087927970595e-01 -1.135832737906102424e-01 -1.027166082253106252e-02 6.058676545229414734e-02 7.584801232618806899e-02 1.146713133163418386e-01 3.522510352497882358e-01 9.160522504089116391e-02 -9.002965289341653687e-02 -3.525606989401307012e-01 -9.021610931008569589e-02 8.007295223417797148e-02
-3.811578476374699598e-02 1.263177431128524875e-01 -1.428519432671228606e-01 -3.168129003836685220e-02 5.550184288783018005e-02 3.372973951835377127e-02 -6.276238170515001380e-02 -1.451988978488098492e-01 2.095382915193238216e-01 -1.006047039140579163e-02 -5.822160745872053539e-02 -2.301805492222104288e-01 1.439151973563308207e-01 2.694269509835593365e-02 1.242359207110734082e-01 1.812113657865726700e-03 -5.739371217235169145e-03 1.086085487167480490e-02 -3.107435537594377840e-03 3.976468477944286616e-04 -5.332314131092572018e-03
-2.397152803957382228e-02 1.339609135342636481e-01 -1.655301548875995898e-01 -4.704836352712705311e-02 6.108411968892518001e-02 5.104992597399978654e-02 -6.140802729195855153e-02 -1.589176369646164155e-01 2.020060384974590728e-01 -1.435683555112030226e-02 -5.179158645321083054e-02 -2.096581049365436600e-01 1.500907305499002142e-01 2.109682877937729684e-02 1.183795128682621350e-01 1.781140089742036525e-01 6.834383575316539672e-02 3.621527657188946397e-02 -1.814199851143241116e-01 -7.377647433790428255e-02 -3.246249408746719467e-02
-1.672245634330120009e-02 1.276147104987403746e-01 -1.746941843766905977e-01 -5.318964962375718336e-02 6.445087671280266828e-02 5.651156660479532412e-02 -4.270839245419261881e-02 -1.675331986820049190e-01 1.694833805910445912e-01 -2.573098550034379553e-02 -2.500953389365093843e-02 -1.558199201977750747e-01 1.418710159079444311e-01 6.198621701866236650e-03 1.018282920096570815e-01 3.265279687478358506e-01 1.327634478489424508e-01 7.274813583251271698e-02 -3.300475007341854838e-01 -1.384848727646283972e-01 -7.005727046354405518e-02
-1.533328919042825644e-02 7.783886909060151738e-02 -1.613436272640144942e-01 -4.941285303382347144e-02 6.351350384477671973e-02 5.102544906988105283e-02 1.372213297226001008e-02 -1.554457732348173138e-01 8.626992842988495669e-02 -6.719295846097775304e-02 3.228256827336753454e-02 -5.670131403378296520e-02 1.280022271992419525e-01 -1.127068874946112256e-02 8.006019956144383443e-02 3.267411132175251920e-01 1.368829725186058999e-01 8.788699818581297007e-02 -3.365263727037977048e-01 -1.438014517430732109e-01 -8.719768537129282682e-02
1.489846418784844251e-01 -2.096052430511780029e-01 5.904199512323784343e-02 -1.250540972266892537e-01 -1.010407630462571704e-01 -9.479246762720879016e-02 4.230951147677875640e-02 6.270828569016492771e-02 -2.085000285549093099e-02 -7.461311137574409835e-02 -3.482441249078979673e-02 1.473547680277547955e-01 -2.731283114005053376e-03 -9.910137977138752663e-02 -2.170233905053127743e-01 -1.239392668038025030e-01 4.090392525776061494e-01 2.752114193539713025e-02 1.350436051649777092e-01 -2.717573990815864635e-02 9.874800732369021228e-02
1.443805156449241012e-01 -8.814251443910284256e-02 -1.912147576830797446e-01 1.382898802847581411e-02 1.543846274503758442e-01 -1.806270054117717072e-01 -1.592864360325565998e-01 8.373168375718603729e-02 5.485080351813266253e-01 -1.935572899669637734e-02 -1.887764260874872924e-01 -1.916824413867769528e-02 -4.315098218896135790e-02 -7.803108477882801652e-02 -8.774486759130840918e-02 1.267003747169438352e-02 -6.159350668934566314e-02 -4.284908323080784120e-02 5.091365749518751704e-02 1.784272207872019400e-01 -2.690402570361374174e-02
-1.129190549450185543e-01 -7.083816598023953692e-02 5.831637832907940466e-02 -1.056404669820145206e-02 1.294834912749650013e-01 -5.940349225759641166e-02 5.378856244365395889e-02 -7.132724126400687148e-02 8.797251308402610770e-02 -1.332931979880835616e-01 -1.368737165464601301e-02 3.165851006247483862e-02 1.670502940463347574e-01 1.083477359905081205e-01 1.092612490192250430e-01 2.678481906679012203e-01 -2.895770995006975435e-01 -2.029721563012042845e-02 -2.319106961045188375e-01 2.075986511341168239e-01 -2.075079426070885469e-01
-1.848941114150921827e-01 1.471509309522786579e-01 -9.563424687179624892e-03 4.431908587375357755e-02 1.387660486295889395e-01 5.749336813912081512e-02 1.628264340017618328e-02 -1.230563499052339804e-01 -2.102283242427886376e-02 7.738080131352240154e-02 -3.196873939555951172e-02 -8.134971074754767002e-04 8.534931915585629303e-02 -1.074184878091434259e-01 2.565086991921567729e-03 -1.860211802900383071e-01 3.877943796659645559e-02 -4.173517840513567452e-03 1.475834419618220206e-01 -6.225284043852710725e-02 -2.448518307159484528e-02
1.660079173165221120e-02 -4.259104729621164542e-02 -1.580717439546308334e-01 9.330143335866525334e-02 7.059344836111970667e-02 1.470580112763489322e-01 -2.588530312484024765e-02 1.304046147696684421e-01 -3.311282897484028875e-02 1.312172377019968084e-01 6.865787031924332207e-02 1.445026944772478603e-02 -1.209466053208152758e-01 -3.045686890527455892e-01 -5.270504805986029294e-03 4.113338594946023413e-02 -9.283241268121368572e-02 -1.113229653926208623e-01 -1.354209402961189801e-01 1.703362155801394495e-01 1.462697624040043276e-01
9.915491014363038424e-02 7.128126993568304273e-03 -1.230770729984269479e-01 -1.295844327934210227e-01 1.328549791290503379e-01 -1.751039668324094467e-01 -7.992999888659378660e-02 1.438592501469165841e-01 -5.765807302124748707e-02 6.705221626229504461e-02 3.807367009048388123e-02 2.763740722996110497e-02 7.146690359927257430e-02 -2.035977057520538258e-01 2.079126342781272563e-01 2.023859447319741739e-02 -1.875220875955372901e-01 2.084739575666988420e-01 -4.839814137631313212e-02 6.920371556550451719e-02 -8.818488622270333199e-02
3.719414704836880581e-02 1.298525988753100879e-01 7.321761930857156875e-02 3.326863783929355500e-02 -4.370243244057747667e-02 -1.618844331476630427e-01 -8.121904727409032243e-02 1.819196533439915997e-01 -7.597044826884920624e-03 1.714271347416496949e-01 -1.260505540502454835e-01 -3.612878465439427894e-02 -1.290976715026901089e-01 -8.791162935613414109e-02 2.641104234271820367e-02 -2.023550914914883786e-02 1.233854511370824636e-01 -5.232298209851118931e-03 -1.133769170338277607e-02 -1.774930875094269944e-01 1.112139506095710523e-01
1.934578911105320209e-01 1.018423816561456058e-01 -1.228036104435878233e-02 -1.360792456039509012e-02 -2.969838312558525373e-01 2.337156620950053554e-01 -5.081574987871260302e-02 -2.843817223352944068e-01 -5.279719640477786163e-02 8.099582407917559068e-02 1.113960361505047375e-01 -6.036119226889574696e-01 -1.299667044430400376e-01 3.973830525882751097e-01 2.751124832961468480e-01 -6.976349619205179931e-02 -1.336257444984529641e-01 1.032252753167864495e-01 -1.029984011550808855e-02 1.043697762726070316e-01 5.663600800808802488e-02
