 Set GAUSS_MDEF to "14GB".
 Entering Gaussian System, Link 0=g16
 Initial command:
 /home/sekinelabo/g16/l1.exe "/home/sekinelabo/g16temp/Gau-883246.inp" -scrdir="/home/sekinelabo/g16temp/"
 Entering Link 1 = /home/sekinelabo/g16/l1.exe PID=    883248.
  
 Copyright (c) 1988-2017, Gaussian, Inc.  All Rights Reserved.
  
 This is part of the Gaussian(R) 16 program.  It is based on
 the Gaussian(R) 09 system (copyright 2009, Gaussian, Inc.),
 the Gaussian(R) 03 system (copyright 2003, Gaussian, Inc.),
 the Gaussian(R) 98 system (copyright 1998, Gaussian, Inc.),
 the Gaussian(R) 94 system (copyright 1995, Gaussian, Inc.),
 the Gaussian 92(TM) system (copyright 1992, Gaussian, Inc.),
 the Gaussian 90(TM) system (copyright 1990, Gaussian, Inc.),
 the Gaussian 88(TM) system (copyright 1988, Gaussian, Inc.),
 the Gaussian 86(TM) system (copyright 1986, Carnegie Mellon
 University), and the Gaussian 82(TM) system (copyright 1983,
 Carnegie Mellon University). Gaussian is a federally registered
 trademark of Gaussian, Inc.
  
 This software contains proprietary and confidential information,
 including trade secrets, belonging to Gaussian, Inc.
  
 This software is provided under written license and may be
 used, copied, transmitted, or stored only in accord with that
 written license.
  
 The following legend is applicable only to US Government
 contracts under FAR:
  
                    RESTRICTED RIGHTS LEGEND
  
 Use, reproduction and disclosure by the US Government is
 subject to restrictions as set forth in subparagraphs (a)
 and (c) of the Commercial Computer Software - Restricted
 Rights clause in FAR 52.227-19.
  
 Gaussian, Inc.
 340 Quinnipiac St., Bldg. 40, Wallingford CT 06492
  
  
 ---------------------------------------------------------------
 Warning -- This program may not be used in any manner that
 competes with the business of Gaussian, Inc. or will provide
 assistance to any competitor of Gaussian, Inc.  The licensee
 of this program is prohibited from giving any competitor of
 Gaussian, Inc. access to this program.  By using this program,
 the user acknowledges that Gaussian, Inc. is engaged in the
 business of creating and licensing software in the field of
 computational chemistry and represents and warrants to the
 licensee that it is not a competitor of Gaussian, Inc. and that
 it will not use this program in any manner prohibited above.
 ---------------------------------------------------------------
  

 Cite this work as:
 Gaussian 16, Revision B.01,
 M. J. Frisch, G. W. Trucks, H. B. Schlegel, G. E. Scuseria, 
 M. A. Robb, J. R. Cheeseman, G. Scalmani, V. Barone, 
 G. A. Petersson, H. Nakatsuji, X. Li, M. Caricato, A. V. Marenich, 
 J. Bloino, B. G. Janesko, R. Gomperts, B. Mennucci, H. P. Hratchian, 
 J. V. Ortiz, A. F. Izmaylov, J. L. Sonnenberg, D. Williams-Young, 
 F. Ding, F. Lipparini, F. Egidi, J. Goings, B. Peng, A. Petrone, 
 T. Henderson, D. Ranasinghe, V. G. Zakrzewski, J. Gao, N. Rega, 
 G. Zheng, W. Liang, M. Hada, M. Ehara, K. Toyota, R. Fukuda, 
 J. Hasegawa, M. Ishida, T. Nakajima, Y. Honda, O. Kitao, H. Nakai, 
 T. Vreven, K. Throssell, J. A. Montgomery, Jr., J. E. Peralta, 
 F. Ogliaro, M. J. Bearpark, J. J. Heyd, E. N. Brothers, K. N. Kudin, 
 V. N. Staroverov, T. A. Keith, R. Kobayashi, J. Normand, 
 K. Raghavachari, A. P. Rendell, J. C. Burant, S. S. Iyengar, 
 J. Tomasi, M. Cossi, J. M. Millam, M. Klene, C. Adamo, R. Cammi, 
 J. W. Ochterski, R. L. Martin, K. Morokuma, O. Farkas, 
 J. B. Foresman, and D. J. Fox, Gaussian, Inc., Wallingford CT, 2016.
 
 ******************************************
 Gaussian 16:  ES64L-G16RevB.01 20-Dec-2017
                 7-Dec-2023 
 ******************************************
 %nproc=15
 Will use up to   15 processors via shared memory.
 -------------------------
 #P B3LYP/6-311+g(d) force
 -------------------------
 1/10=7,30=1,38=1/1,3;
 2/12=2,17=6,18=5,40=1/2;
 3/5=4,6=6,7=11,11=2,25=1,30=1,71=1,74=-5/1,2,3;
 4//1;
 5/5=2,38=5/2;
 6/7=2,8=2,9=2,10=2,28=1/1;
 7/29=1/1,2,3,16;
 1/10=7,30=1/3;
 99//99;
 Leave Link    1 at Thu Dec  7 07:34:25 2023, MaxMem=           0 cpu:               0.3 elap:               0.0
 (Enter /home/sekinelabo/g16/l101.exe)
 -----
 DPGEN
 -----
 Symbolic Z-matrix:
 Charge =  0 Multiplicity = 2
 Na                    12.5404   9.44598   10.4811 
 Na                    12.8654   11.2799   13.15 
 Na                    14.3622   12.1268   10.4762 
 Na                    12.9252   14.4038   12.55 
 Na                    10.6596   12.7097   10.4855 
 Na                    10.3199   13.3551   13.6746 
 Na                    9.69404   10.0456   12.5494 
 
 ITRead=  0  0  0  0  0  0  0
 MicOpt= -1 -1 -1 -1 -1 -1 -1
 NAtoms=      7 NQM=        7 NQMF=       0 NMMI=      0 NMMIF=      0
                NMic=       0 NMicF=      0.
                    Isotopes and Nuclear Properties:
 (Nuclear quadrupole moments (NQMom) in fm**2, nuclear magnetic moments (NMagM)
  in nuclear magnetons)

  Atom         1           2           3           4           5           6           7
 IAtWgt=          23          23          23          23          23          23          23
 AtmWgt=  22.9897697  22.9897697  22.9897697  22.9897697  22.9897697  22.9897697  22.9897697
 NucSpn=           3           3           3           3           3           3           3
 AtZEff=  -0.0000000  -0.0000000  -0.0000000  -0.0000000  -0.0000000  -0.0000000  -0.0000000
 NQMom=   10.4000000  10.4000000  10.4000000  10.4000000  10.4000000  10.4000000  10.4000000
 NMagM=    2.2175200   2.2175200   2.2175200   2.2175200   2.2175200   2.2175200   2.2175200
 AtZNuc=  11.0000000  11.0000000  11.0000000  11.0000000  11.0000000  11.0000000  11.0000000
 Leave Link  101 at Thu Dec  7 07:34:25 2023, MaxMem=  1879048192 cpu:               2.4 elap:               0.2
 (Enter /home/sekinelabo/g16/l103.exe)

 GradGradGradGradGradGradGradGradGradGradGradGradGradGradGradGradGradGrad
 Berny optimization.
 Initialization pass.
 Trust Radius=3.00D-01 FncErr=1.00D-07 GrdErr=1.00D-07 EigMax=2.50D+02 EigMin=1.00D-04
 Number of steps in this run=      2 maximum allowed number of steps=      2.
 GradGradGradGradGradGradGradGradGradGradGradGradGradGradGradGradGradGrad

 Leave Link  103 at Thu Dec  7 07:34:25 2023, MaxMem=  1879048192 cpu:               0.2 elap:               0.0
 (Enter /home/sekinelabo/g16/l202.exe)
                          Input orientation:                          
 ---------------------------------------------------------------------
 Center     Atomic      Atomic             Coordinates (Angstroms)
 Number     Number       Type             X           Y           Z
 ---------------------------------------------------------------------
      1         11           0       12.540400    9.445980   10.481100
      2         11           0       12.865400   11.279900   13.150000
      3         11           0       14.362200   12.126800   10.476200
      4         11           0       12.925200   14.403800   12.550000
      5         11           0       10.659600   12.709700   10.485500
      6         11           0       10.319900   13.355100   13.674600
      7         11           0        9.694040   10.045600   12.549400
 ---------------------------------------------------------------------
                    Distance matrix (angstroms):
                    1          2          3          4          5
     1  Na   0.000000
     2  Na   3.254522   0.000000
     3  Na   3.241261   3.179128   0.000000
     4  Na   5.385944   3.181561   3.398580   0.000000
     5  Na   3.766868   3.742919   3.748214   3.502153   0.000000
     6  Na   5.514552   3.325843   5.298931   3.025241   3.271436
     7  Na   3.569198   3.455682   5.515548   5.425339   3.505627
                    6          7
     6  Na   0.000000
     7  Na   3.551136   0.000000
 Stoichiometry    Na7(2)
 Framework group  C1[X(Na7)]
 Deg. of freedom    15
 Full point group                 C1      NOp   1
 Largest Abelian subgroup         C1      NOp   1
 Largest concise Abelian subgroup C1      NOp   1
                         Standard orientation:                         
 ---------------------------------------------------------------------
 Center     Atomic      Atomic             Coordinates (Angstroms)
 Number     Number       Type             X           Y           Z
 ---------------------------------------------------------------------
      1         11           0        2.872211    0.507956    0.004918
      2         11           0        0.165640   -0.167797   -1.671312
      3         11           0        1.493433   -2.422580    0.134173
      4         11           0       -1.874888   -2.034254   -0.098128
      5         11           0       -0.304701    0.274942    2.015448
      6         11           0       -2.624716    0.894595   -0.206231
      7         11           0        0.273021    2.947138   -0.178868
 ---------------------------------------------------------------------
 Rotational constants (GHZ):           0.8198775           0.7840745           0.5370315
 Leave Link  202 at Thu Dec  7 07:34:25 2023, MaxMem=  1879048192 cpu:               0.0 elap:               0.0
 (Enter /home/sekinelabo/g16/l301.exe)
 Standard basis: 6-311+G(d) (5D, 7F)
 Ernie: Thresh=  0.10000D-02 Tol=  0.10000D-05 Strict=F.
 There are   217 symmetry adapted cartesian basis functions of A   symmetry.
 There are   210 symmetry adapted basis functions of A   symmetry.
   210 basis functions,   350 primitive gaussians,   217 cartesian basis functions
    39 alpha electrons       38 beta electrons
       nuclear repulsion energy       359.7569133023 Hartrees.
 IExCor=  402 DFT=T Ex+Corr=B3LYP ExCW=0 ScaHFX=  0.200000
 ScaDFX=  0.800000  0.720000  1.000000  0.810000 ScalE2=  1.000000  1.000000
 IRadAn=      5 IRanWt=     -1 IRanGd=            0 ICorTp=0 IEmpDi=  4
 NAtoms=    7 NActive=    7 NUniq=    7 SFac= 1.00D+00 NAtFMM=   60 NAOKFM=F Big=F
 Integral buffers will be    131072 words long.
 Raffenetti 2 integral format.
 Two-electron integral symmetry is turned on.
 Leave Link  301 at Thu Dec  7 07:34:25 2023, MaxMem=  1879048192 cpu:               0.5 elap:               0.0
 (Enter /home/sekinelabo/g16/l302.exe)
 NPDir=0 NMtPBC=     1 NCelOv=     1 NCel=       1 NClECP=     1 NCelD=      1
         NCelK=      1 NCelE2=     1 NClLst=     1 CellRange=     0.0.
 One-electron integrals computed using PRISM.
 One-electron integral symmetry used in STVInt
 NBasis=   210 RedAO= T EigKep=  2.78D-06  NBF=   210
 NBsUse=   210 1.00D-06 EigRej= -1.00D+00 NBFU=   210
 Precomputing XC quadrature grid using
 IXCGrd= 4 IRadAn=           5 IRanWt=          -1 IRanGd=           0 AccXCQ= 0.00D+00.
 Generated NRdTot=       0 NPtTot=           0 NUsed=           0 NTot=          32
 NSgBfM=   211   211   211   211   211 MxSgAt=     7 MxSgA2=     7.
 Leave Link  302 at Thu Dec  7 07:34:25 2023, MaxMem=  1879048192 cpu:               2.0 elap:               0.1
 (Enter /home/sekinelabo/g16/l303.exe)
 DipDrv:  MaxL=1.
 Leave Link  303 at Thu Dec  7 07:34:25 2023, MaxMem=  1879048192 cpu:               0.5 elap:               0.0
 (Enter /home/sekinelabo/g16/l401.exe)
 ExpMin= 7.60D-03 ExpMax= 3.62D+04 ExpMxC= 1.21D+03 IAcc=3 IRadAn=         5 AccDes= 0.00D+00
 Harris functional with IExCor=  402 and IRadAn=       5 diagonalized for initial guess.
 HarFok:  IExCor=  402 AccDes= 0.00D+00 IRadAn=         5 IDoV= 1 UseB2=F ITyADJ=14
 ICtDFT=  3500011 ScaDFX=  1.000000  1.000000  1.000000  1.000000
 FoFCou: FMM=F IPFlag=           0 FMFlag=      100000 FMFlg1=           0
         NFxFlg=           0 DoJE=T BraDBF=F KetDBF=T FulRan=T
         wScrn=  0.000000 ICntrl=       500 IOpCl=  0 I1Cent=   200000004 NGrid=           0
         NMat0=    1 NMatS0=      1 NMatT0=    0 NMatD0=    1 NMtDS0=    0 NMtDT0=    0
 Petite list used in FoFCou.
 Harris En= -1135.90791256609    
 JPrj=0 DoOrth=F DoCkMO=F.
 Initial guess <Sx>= 0.0000 <Sy>= 0.0000 <Sz>= 0.5000 <S**2>= 0.7500 S= 0.5000
 Leave Link  401 at Thu Dec  7 07:34:26 2023, MaxMem=  1879048192 cpu:               4.4 elap:               0.3
 (Enter /home/sekinelabo/g16/l502.exe)
 Keep R1 and R2 ints in memory in canonical form, NReq=506573335.
 FoFCou: FMM=F IPFlag=           0 FMFlag=           0 FMFlg1=           0
         NFxFlg=           0 DoJE=F BraDBF=F KetDBF=F FulRan=T
         wScrn=  0.000000 ICntrl=       600 IOpCl=  0 I1Cent=           0 NGrid=           0
         NMat0=    1 NMatS0=  22155 NMatT0=    0 NMatD0=    1 NMtDS0=    0 NMtDT0=    0
 Symmetry not used in FoFCou.
 Two-electron integral symmetry not used.
 UHF open shell SCF:
 Using DIIS extrapolation, IDIIS=  1040.
 NGot=  1879048192 LenX=  1388082565 LenY=  1388035035
 Requested convergence on RMS density matrix=1.00D-08 within 128 cycles.
 Requested convergence on MAX density matrix=1.00D-06.
 Requested convergence on             energy=1.00D-06.
 No special actions if energy rises.

 Cycle   1  Pass 1  IDiag  1:
 E= -1136.09745908992    
 DIIS: error= 1.53D-02 at cycle   1 NSaved=   1.
 NSaved= 1 IEnMin= 1 EnMin= -1136.09745908992     IErMin= 1 ErrMin= 1.53D-02
 ErrMax= 1.53D-02  0.00D+00 EMaxC= 1.00D-01 BMatC= 1.96D-01 BMatP= 1.96D-01
 IDIUse=3 WtCom= 8.47D-01 WtEn= 1.53D-01
 Coeff-Com:  0.100D+01
 Coeff-En:   0.100D+01
 Coeff:      0.100D+01
 Gap=     0.049 Goal=   None    Shift=    0.000
 Gap=     0.054 Goal=   None    Shift=    0.000
 GapD=    0.049 DampG=0.250 DampE=0.500 DampFc=0.2500 IDamp=-1.
 Damping current iteration by 2.50D-01
 RMSDP=4.51D-02 MaxDP=3.15D+00              OVMax= 2.48D-01

 Cycle   2  Pass 1  IDiag  1:
 E= -1136.11161732091     Delta-E=       -0.014158230986 Rises=F Damp=T
 DIIS: error= 1.07D-02 at cycle   2 NSaved=   2.
 NSaved= 2 IEnMin= 2 EnMin= -1136.11161732091     IErMin= 2 ErrMin= 1.07D-02
 ErrMax= 1.07D-02  0.00D+00 EMaxC= 1.00D-01 BMatC= 7.44D-02 BMatP= 1.96D-01
 IDIUse=3 WtCom= 8.93D-01 WtEn= 1.07D-01
 Coeff-Com: -0.127D+01 0.227D+01
 Coeff-En:   0.000D+00 0.100D+01
 Coeff:     -0.114D+01 0.214D+01
 Gap=     0.060 Goal=   None    Shift=    0.000
 Gap=     0.053 Goal=   None    Shift=    0.000
 RMSDP=2.40D-02 MaxDP=1.85D+00 DE=-1.42D-02 OVMax= 1.54D-01

 Cycle   3  Pass 1  IDiag  1:
 E= -1136.13590631060     Delta-E=       -0.024288989689 Rises=F Damp=F
 DIIS: error= 2.63D-03 at cycle   3 NSaved=   3.
 NSaved= 3 IEnMin= 3 EnMin= -1136.13590631060     IErMin= 3 ErrMin= 2.63D-03
 ErrMax= 2.63D-03  0.00D+00 EMaxC= 1.00D-01 BMatC= 2.44D-03 BMatP= 7.44D-02
 IDIUse=3 WtCom= 9.74D-01 WtEn= 2.63D-02
 Coeff-Com: -0.141D+00 0.276D+00 0.865D+00
 Coeff-En:   0.000D+00 0.000D+00 0.100D+01
 Coeff:     -0.137D+00 0.268D+00 0.869D+00
 Gap=     0.056 Goal=   None    Shift=    0.000
 Gap=     0.054 Goal=   None    Shift=    0.000
 RMSDP=8.52D-03 MaxDP=1.07D+00 DE=-2.43D-02 OVMax= 7.31D-02

 Cycle   4  Pass 1  IDiag  1:
 E= -1136.13478815143     Delta-E=        0.001118159174 Rises=F Damp=F
 DIIS: error= 2.57D-03 at cycle   4 NSaved=   4.
 NSaved= 4 IEnMin= 3 EnMin= -1136.13590631060     IErMin= 4 ErrMin= 2.57D-03
 ErrMax= 2.57D-03  0.00D+00 EMaxC= 1.00D-01 BMatC= 3.05D-03 BMatP= 2.44D-03
 IDIUse=3 WtCom= 1.65D-01 WtEn= 8.35D-01
 Coeff-Com:  0.261D-01-0.325D-01 0.533D+00 0.473D+00
 Coeff-En:   0.000D+00 0.000D+00 0.605D+00 0.395D+00
 Coeff:      0.430D-02-0.536D-02 0.593D+00 0.408D+00
 Gap=     0.057 Goal=   None    Shift=    0.000
 Gap=     0.054 Goal=   None    Shift=    0.000
 RMSDP=2.93D-03 MaxDP=3.72D-01 DE= 1.12D-03 OVMax= 4.50D-02

 Cycle   5  Pass 1  IDiag  1:
 E= -1136.13751169789     Delta-E=       -0.002723546464 Rises=F Damp=F
 DIIS: error= 6.02D-04 at cycle   5 NSaved=   5.
 NSaved= 5 IEnMin= 5 EnMin= -1136.13751169789     IErMin= 5 ErrMin= 6.02D-04
 ErrMax= 6.02D-04  0.00D+00 EMaxC= 1.00D-01 BMatC= 1.47D-04 BMatP= 2.44D-03
 IDIUse=3 WtCom= 9.94D-01 WtEn= 6.02D-03
 Coeff-Com:  0.738D-02-0.103D-01 0.324D+00 0.241D+00 0.437D+00
 Coeff-En:   0.000D+00 0.000D+00 0.000D+00 0.000D+00 0.100D+01
 Coeff:      0.734D-02-0.102D-01 0.322D+00 0.240D+00 0.441D+00
 Gap=     0.058 Goal=   None    Shift=    0.000
 Gap=     0.054 Goal=   None    Shift=    0.000
 RMSDP=6.48D-04 MaxDP=5.10D-02 DE=-2.72D-03 OVMax= 8.13D-03

 Cycle   6  Pass 1  IDiag  1:
 E= -1136.13760416559     Delta-E=       -0.000092467698 Rises=F Damp=F
 DIIS: error= 6.94D-05 at cycle   6 NSaved=   6.
 NSaved= 6 IEnMin= 6 EnMin= -1136.13760416559     IErMin= 6 ErrMin= 6.94D-05
 ErrMax= 6.94D-05  0.00D+00 EMaxC= 1.00D-01 BMatC= 2.05D-06 BMatP= 1.47D-04
 IDIUse=1 WtCom= 1.00D+00 WtEn= 0.00D+00
 Coeff-Com: -0.313D-02 0.388D-02 0.308D-01 0.159D-01 0.107D+00 0.845D+00
 Coeff:     -0.313D-02 0.388D-02 0.308D-01 0.159D-01 0.107D+00 0.845D+00
 Gap=     0.058 Goal=   None    Shift=    0.000
 Gap=     0.054 Goal=   None    Shift=    0.000
 RMSDP=3.11D-04 MaxDP=4.62D-02 DE=-9.25D-05 OVMax= 2.66D-03

 Cycle   7  Pass 1  IDiag  1:
 E= -1136.13760501106     Delta-E=       -0.000000845476 Rises=F Damp=F
 DIIS: error= 7.01D-05 at cycle   7 NSaved=   7.
 NSaved= 7 IEnMin= 7 EnMin= -1136.13760501106     IErMin= 6 ErrMin= 6.94D-05
 ErrMax= 7.01D-05  0.00D+00 EMaxC= 1.00D-01 BMatC= 1.75D-06 BMatP= 2.05D-06
 IDIUse=1 WtCom= 1.00D+00 WtEn= 0.00D+00
 Coeff-Com: -0.329D-02 0.422D-02-0.300D-01-0.269D-01 0.420D-02 0.566D+00
 Coeff-Com:  0.486D+00
 Coeff:     -0.329D-02 0.422D-02-0.300D-01-0.269D-01 0.420D-02 0.566D+00
 Coeff:      0.486D+00
 Gap=     0.058 Goal=   None    Shift=    0.000
 Gap=     0.054 Goal=   None    Shift=    0.000
 RMSDP=2.04D-04 MaxDP=4.00D-02 DE=-8.45D-07 OVMax= 1.25D-03

 Cycle   8  Pass 1  IDiag  1:
 E= -1136.13760696164     Delta-E=       -0.000001950581 Rises=F Damp=F
 DIIS: error= 1.10D-05 at cycle   8 NSaved=   8.
 NSaved= 8 IEnMin= 8 EnMin= -1136.13760696164     IErMin= 8 ErrMin= 1.10D-05
 ErrMax= 1.10D-05  0.00D+00 EMaxC= 1.00D-01 BMatC= 3.60D-08 BMatP= 1.75D-06
 IDIUse=1 WtCom= 1.00D+00 WtEn= 0.00D+00
 Coeff-Com: -0.309D-03 0.384D-03-0.101D-01-0.756D-02-0.775D-02 0.439D-01
 Coeff-Com:  0.988D-01 0.883D+00
 Coeff:     -0.309D-03 0.384D-03-0.101D-01-0.756D-02-0.775D-02 0.439D-01
 Coeff:      0.988D-01 0.883D+00
 Gap=     0.058 Goal=   None    Shift=    0.000
 Gap=     0.054 Goal=   None    Shift=    0.000
 RMSDP=6.18D-05 MaxDP=8.91D-03 DE=-1.95D-06 OVMax= 4.30D-04

 Cycle   9  Pass 1  IDiag  1:
 E= -1136.13760697456     Delta-E=       -0.000000012919 Rises=F Damp=F
 DIIS: error= 1.26D-05 at cycle   9 NSaved=   9.
 NSaved= 9 IEnMin= 9 EnMin= -1136.13760697456     IErMin= 8 ErrMin= 1.10D-05
 ErrMax= 1.26D-05  0.00D+00 EMaxC= 1.00D-01 BMatC= 4.85D-08 BMatP= 3.60D-08
 IDIUse=1 WtCom= 1.00D+00 WtEn= 0.00D+00
 Coeff-Com:  0.445D-03-0.581D-03-0.191D-02-0.494D-03-0.695D-02-0.757D-01
 Coeff-Com: -0.239D-01 0.649D+00 0.460D+00
 Coeff:      0.445D-03-0.581D-03-0.191D-02-0.494D-03-0.695D-02-0.757D-01
 Coeff:     -0.239D-01 0.649D+00 0.460D+00
 Gap=     0.058 Goal=   None    Shift=    0.000
 Gap=     0.054 Goal=   None    Shift=    0.000
 RMSDP=1.98D-05 MaxDP=2.37D-03 DE=-1.29D-08 OVMax= 2.81D-04

 Cycle  10  Pass 1  IDiag  1:
 E= -1136.13760703711     Delta-E=       -0.000000062547 Rises=F Damp=F
 DIIS: error= 2.57D-06 at cycle  10 NSaved=  10.
 NSaved=10 IEnMin=10 EnMin= -1136.13760703711     IErMin=10 ErrMin= 2.57D-06
 ErrMax= 2.57D-06  0.00D+00 EMaxC= 1.00D-01 BMatC= 1.34D-09 BMatP= 3.60D-08
 IDIUse=1 WtCom= 1.00D+00 WtEn= 0.00D+00
 Coeff-Com:  0.167D-03-0.215D-03 0.678D-03 0.768D-03-0.129D-02-0.188D-01
 Coeff-Com: -0.179D-01 0.251D-01 0.112D+00 0.900D+00
 Coeff:      0.167D-03-0.215D-03 0.678D-03 0.768D-03-0.129D-02-0.188D-01
 Coeff:     -0.179D-01 0.251D-01 0.112D+00 0.900D+00
 Gap=     0.058 Goal=   None    Shift=    0.000
 Gap=     0.054 Goal=   None    Shift=    0.000
 RMSDP=7.38D-06 MaxDP=1.20D-03 DE=-6.25D-08 OVMax= 9.63D-05

 Cycle  11  Pass 1  IDiag  1:
 E= -1136.13760704139     Delta-E=       -0.000000004274 Rises=F Damp=F
 DIIS: error= 8.66D-07 at cycle  11 NSaved=  11.
 NSaved=11 IEnMin=11 EnMin= -1136.13760704139     IErMin=11 ErrMin= 8.66D-07
 ErrMax= 8.66D-07  0.00D+00 EMaxC= 1.00D-01 BMatC= 2.25D-10 BMatP= 1.34D-09
 IDIUse=1 WtCom= 1.00D+00 WtEn= 0.00D+00
 Coeff-Com: -0.566D-04 0.753D-04 0.424D-03 0.168D-03 0.952D-03 0.826D-02
 Coeff-Com:  0.356D-02-0.886D-01-0.728D-01-0.237D-01 0.117D+01
 Coeff:     -0.566D-04 0.753D-04 0.424D-03 0.168D-03 0.952D-03 0.826D-02
 Coeff:      0.356D-02-0.886D-01-0.728D-01-0.237D-01 0.117D+01
 Gap=     0.058 Goal=   None    Shift=    0.000
 Gap=     0.054 Goal=   None    Shift=    0.000
 RMSDP=3.85D-06 MaxDP=3.35D-04 DE=-4.27D-09 OVMax= 6.56D-05

 Cycle  12  Pass 1  IDiag  1:
 E= -1136.13760704284     Delta-E=       -0.000000001453 Rises=F Damp=F
 DIIS: error= 4.59D-07 at cycle  12 NSaved=  12.
 NSaved=12 IEnMin=12 EnMin= -1136.13760704284     IErMin=12 ErrMin= 4.59D-07
 ErrMax= 4.59D-07  0.00D+00 EMaxC= 1.00D-01 BMatC= 6.16D-11 BMatP= 2.25D-10
 IDIUse=1 WtCom= 1.00D+00 WtEn= 0.00D+00
 Coeff-Com: -0.590D-04 0.766D-04 0.163D-04-0.987D-04 0.686D-03 0.715D-02
 Coeff-Com:  0.439D-02-0.376D-01-0.476D-01-0.183D+00 0.305D+00 0.951D+00
 Coeff:     -0.590D-04 0.766D-04 0.163D-04-0.987D-04 0.686D-03 0.715D-02
 Coeff:      0.439D-02-0.376D-01-0.476D-01-0.183D+00 0.305D+00 0.951D+00
 Gap=     0.058 Goal=   None    Shift=    0.000
 Gap=     0.054 Goal=   None    Shift=    0.000
 RMSDP=2.12D-06 MaxDP=1.79D-04 DE=-1.45D-09 OVMax= 3.67D-05

 Cycle  13  Pass 1  IDiag  1:
 E= -1136.13760704318     Delta-E=       -0.000000000337 Rises=F Damp=F
 DIIS: error= 1.97D-07 at cycle  13 NSaved=  13.
 NSaved=13 IEnMin=13 EnMin= -1136.13760704318     IErMin=13 ErrMin= 1.97D-07
 ErrMax= 1.97D-07  0.00D+00 EMaxC= 1.00D-01 BMatC= 1.05D-11 BMatP= 6.16D-11
 IDIUse=1 WtCom= 1.00D+00 WtEn= 0.00D+00
 Coeff-Com:  0.305D-05-0.458D-05-0.797D-04-0.416D-04-0.645D-04-0.914D-03
 Coeff-Com:  0.304D-04 0.143D-01 0.837D-02-0.323D-01-0.202D+00 0.139D+00
 Coeff-Com:  0.107D+01
 Coeff:      0.305D-05-0.458D-05-0.797D-04-0.416D-04-0.645D-04-0.914D-03
 Coeff:      0.304D-04 0.143D-01 0.837D-02-0.323D-01-0.202D+00 0.139D+00
 Coeff:      0.107D+01
 Gap=     0.058 Goal=   None    Shift=    0.000
 Gap=     0.054 Goal=   None    Shift=    0.000
 RMSDP=9.80D-07 MaxDP=5.54D-05 DE=-3.37D-10 OVMax= 1.81D-05

 Cycle  14  Pass 1  IDiag  1:
 E= -1136.13760704323     Delta-E=       -0.000000000049 Rises=F Damp=F
 DIIS: error= 8.00D-08 at cycle  14 NSaved=  14.
 NSaved=14 IEnMin=14 EnMin= -1136.13760704323     IErMin=14 ErrMin= 8.00D-08
 ErrMax= 8.00D-08  0.00D+00 EMaxC= 1.00D-01 BMatC= 1.36D-12 BMatP= 1.05D-11
 IDIUse=1 WtCom= 1.00D+00 WtEn= 0.00D+00
 Coeff-Com:  0.879D-05-0.114D-04-0.160D-04 0.568D-05-0.110D-03-0.923D-03
 Coeff-Com: -0.671D-03 0.559D-02 0.753D-02 0.276D-01-0.453D-01-0.143D+00
 Coeff-Com: -0.466D-02 0.115D+01
 Coeff:      0.879D-05-0.114D-04-0.160D-04 0.568D-05-0.110D-03-0.923D-03
 Coeff:     -0.671D-03 0.559D-02 0.753D-02 0.276D-01-0.453D-01-0.143D+00
 Coeff:     -0.466D-02 0.115D+01
 Gap=     0.058 Goal=   None    Shift=    0.000
 Gap=     0.054 Goal=   None    Shift=    0.000
 RMSDP=3.17D-07 MaxDP=2.27D-05 DE=-4.91D-11 OVMax= 6.48D-06

 Cycle  15  Pass 1  IDiag  1:
 E= -1136.13760704324     Delta-E=       -0.000000000015 Rises=F Damp=F
 DIIS: error= 2.91D-08 at cycle  15 NSaved=  15.
 NSaved=15 IEnMin=15 EnMin= -1136.13760704324     IErMin=15 ErrMin= 2.91D-08
 ErrMax= 2.91D-08  0.00D+00 EMaxC= 1.00D-01 BMatC= 1.80D-13 BMatP= 1.36D-12
 IDIUse=1 WtCom= 1.00D+00 WtEn= 0.00D+00
 Coeff-Com: -0.149D-05 0.207D-05 0.134D-04 0.365D-05 0.262D-04 0.183D-03
 Coeff-Com:  0.571D-04-0.247D-02-0.199D-02-0.620D-03 0.381D-01-0.148D-03
 Coeff-Com: -0.169D+00-0.161D+00 0.130D+01
 Coeff:     -0.149D-05 0.207D-05 0.134D-04 0.365D-05 0.262D-04 0.183D-03
 Coeff:      0.571D-04-0.247D-02-0.199D-02-0.620D-03 0.381D-01-0.148D-03
 Coeff:     -0.169D+00-0.161D+00 0.130D+01
 Gap=     0.058 Goal=   None    Shift=    0.000
 Gap=     0.054 Goal=   None    Shift=    0.000
 RMSDP=1.35D-07 MaxDP=1.22D-05 DE=-1.55D-11 OVMax= 2.57D-06

 Cycle  16  Pass 1  IDiag  1:
 E= -1136.13760704325     Delta-E=       -0.000000000007 Rises=F Damp=F
 DIIS: error= 8.30D-09 at cycle  16 NSaved=  16.
 NSaved=16 IEnMin=16 EnMin= -1136.13760704325     IErMin=16 ErrMin= 8.30D-09
 ErrMax= 8.30D-09  0.00D+00 EMaxC= 1.00D-01 BMatC= 2.10D-14 BMatP= 1.80D-13
 IDIUse=1 WtCom= 1.00D+00 WtEn= 0.00D+00
 Coeff-Com: -0.878D-06 0.115D-05 0.331D-05 0.411D-06 0.107D-04 0.851D-04
 Coeff-Com:  0.884D-04-0.690D-03-0.798D-03-0.215D-02 0.515D-02 0.135D-01
 Coeff-Com: -0.690D-02-0.123D+00 0.101D+00 0.101D+01
 Coeff:     -0.878D-06 0.115D-05 0.331D-05 0.411D-06 0.107D-04 0.851D-04
 Coeff:      0.884D-04-0.690D-03-0.798D-03-0.215D-02 0.515D-02 0.135D-01
 Coeff:     -0.690D-02-0.123D+00 0.101D+00 0.101D+01
 Gap=     0.058 Goal=   None    Shift=    0.000
 Gap=     0.054 Goal=   None    Shift=    0.000
 RMSDP=3.58D-08 MaxDP=2.59D-06 DE=-6.82D-12 OVMax= 6.03D-07

 Cycle  17  Pass 1  IDiag  1:
 E= -1136.13760704325     Delta-E=       -0.000000000001 Rises=F Damp=F
 DIIS: error= 3.90D-09 at cycle  17 NSaved=  17.
 NSaved=17 IEnMin=17 EnMin= -1136.13760704325     IErMin=17 ErrMin= 3.90D-09
 ErrMax= 3.90D-09  0.00D+00 EMaxC= 1.00D-01 BMatC= 5.15D-15 BMatP= 2.10D-14
 IDIUse=1 WtCom= 1.00D+00 WtEn= 0.00D+00
 Coeff-Com:  0.941D-07-0.143D-06-0.154D-05-0.461D-06-0.312D-05-0.520D-05
 Coeff-Com:  0.404D-05 0.240D-03 0.162D-03-0.718D-04-0.520D-02 0.178D-02
 Coeff-Com:  0.260D-01 0.113D-01-0.217D+00 0.225D+00 0.958D+00
 Coeff:      0.941D-07-0.143D-06-0.154D-05-0.461D-06-0.312D-05-0.520D-05
 Coeff:      0.404D-05 0.240D-03 0.162D-03-0.718D-04-0.520D-02 0.178D-02
 Coeff:      0.260D-01 0.113D-01-0.217D+00 0.225D+00 0.958D+00
 Gap=     0.058 Goal=   None    Shift=    0.000
 Gap=     0.054 Goal=   None    Shift=    0.000
 RMSDP=1.94D-08 MaxDP=1.90D-06 DE=-9.09D-13 OVMax= 2.83D-07

 Cycle  18  Pass 1  IDiag  1:
 E= -1136.13760704325     Delta-E=        0.000000000001 Rises=F Damp=F
 DIIS: error= 1.60D-09 at cycle  18 NSaved=  18.
 NSaved=18 IEnMin=17 EnMin= -1136.13760704325     IErMin=18 ErrMin= 1.60D-09
 ErrMax= 1.60D-09  0.00D+00 EMaxC= 1.00D-01 BMatC= 9.25D-16 BMatP= 5.15D-15
 IDIUse=1 WtCom= 1.00D+00 WtEn= 0.00D+00
 Large coefficients: NSaved= 18 BigCof=    0.00 CofMax=   10.00 Det=-1.83D-15
 Inversion failed.  Reducing to 17 matrices.
 Large coefficients: NSaved= 17 BigCof=    0.00 CofMax=   10.00 Det=-1.84D-15
 Inversion failed.  Reducing to 16 matrices.
 Large coefficients: NSaved= 16 BigCof=    0.00 CofMax=   10.00 Det=-1.85D-15
 Inversion failed.  Reducing to 15 matrices.
 Coeff-Com: -0.610D-07 0.702D-06 0.574D-05-0.653D-05-0.312D-04 0.258D-04
 Coeff-Com:  0.293D-03 0.633D-04-0.171D-02-0.137D-02 0.169D-01-0.133D-03
 Coeff-Com: -0.209D+00-0.622D-01 0.126D+01
 Coeff:     -0.610D-07 0.702D-06 0.574D-05-0.653D-05-0.312D-04 0.258D-04
 Coeff:      0.293D-03 0.633D-04-0.171D-02-0.137D-02 0.169D-01-0.133D-03
 Coeff:     -0.209D+00-0.622D-01 0.126D+01
 Gap=     0.058 Goal=   None    Shift=    0.000
 Gap=     0.054 Goal=   None    Shift=    0.000
 RMSDP=1.35D-08 MaxDP=8.08D-07 DE= 1.36D-12 OVMax= 1.72D-07

 Cycle  19  Pass 1  IDiag  1:
 E= -1136.13760704325     Delta-E=       -0.000000000001 Rises=F Damp=F
 DIIS: error= 8.62D-10 at cycle  19 NSaved=  16.
 NSaved=16 IEnMin=14 EnMin= -1136.13760704325     IErMin=16 ErrMin= 8.62D-10
 ErrMax= 8.62D-10  0.00D+00 EMaxC= 1.00D-01 BMatC= 1.52D-16 BMatP= 9.25D-16
 IDIUse=1 WtCom= 1.00D+00 WtEn= 0.00D+00
 Large coefficients: NSaved= 16 BigCof=    0.00 CofMax=   10.00 Det=-3.43D-16
 Inversion failed.  Reducing to 15 matrices.
 Coeff-Com:  0.937D-07-0.329D-05-0.590D-05-0.163D-04 0.681D-05 0.199D-03
 Coeff-Com:  0.740D-03-0.114D-02-0.542D-02 0.467D-02 0.395D-01-0.831D-01
 Coeff-Com: -0.207D+00 0.210D+00 0.104D+01
 Coeff:      0.937D-07-0.329D-05-0.590D-05-0.163D-04 0.681D-05 0.199D-03
 Coeff:      0.740D-03-0.114D-02-0.542D-02 0.467D-02 0.395D-01-0.831D-01
 Coeff:     -0.207D+00 0.210D+00 0.104D+01
 Gap=     0.058 Goal=   None    Shift=    0.000
 Gap=     0.054 Goal=   None    Shift=    0.000
 RMSDP=6.22D-09 MaxDP=5.22D-07 DE=-1.36D-12 OVMax= 6.71D-08

 SCF Done:  E(UB3LYP) =  -1136.13760704     A.U. after   19 cycles
            NFock= 19  Conv=0.62D-08     -V/T= 2.0027
 <Sx>= 0.0000 <Sy>= 0.0000 <Sz>= 0.5000 <S**2>= 0.7580 S= 0.5040
 <L.S>= 0.000000000000E+00
 KE= 1.133039689148D+03 PE=-3.449237368447D+03 EE= 8.203031589530D+02
 Annihilation of the first spin contaminant:
 S**2 before annihilation     0.7580,   after     0.7500
 Leave Link  502 at Thu Dec  7 07:34:42 2023, MaxMem=  1879048192 cpu:             179.7 elap:              15.8
 (Enter /home/sekinelabo/g16/l601.exe)
 Copying SCF densities to generalized density rwf, IOpCl= 1 IROHF=0.

 **********************************************************************

            Population analysis using the SCF Density.

 **********************************************************************

 Orbital symmetries:
 Alpha Orbitals:
       Occupied  (A) (A) (A) (A) (A) (A) (A) (A) (A) (A) (A) (A)
                 (A) (A) (A) (A) (A) (A) (A) (A) (A) (A) (A) (A)
                 (A) (A) (A) (A) (A) (A) (A) (A) (A) (A) (A) (A)
                 (A) (A) (A)
       Virtual   (A) (A) (A) (A) (A) (A) (A) (A) (A) (A) (A) (A)
                 (A) (A) (A) (A) (A) (A) (A) (A) (A) (A) (A) (A)
                 (A) (A) (A) (A) (A) (A) (A) (A) (A) (A) (A) (A)
                 (A) (A) (A) (A) (A) (A) (A) (A) (A) (A) (A) (A)
                 (A) (A) (A) (A) (A) (A) (A) (A) (A) (A) (A) (A)
                 (A) (A) (A) (A) (A) (A) (A) (A) (A) (A) (A) (A)
                 (A) (A) (A) (A) (A) (A) (A) (A) (A) (A) (A) (A)
                 (A) (A) (A) (A) (A) (A) (A) (A) (A) (A) (A) (A)
                 (A) (A) (A) (A) (A) (A) (A) (A) (A) (A) (A) (A)
                 (A) (A) (A) (A) (A) (A) (A) (A) (A) (A) (A) (A)
                 (A) (A) (A) (A) (A) (A) (A) (A) (A) (A) (A) (A)
                 (A) (A) (A) (A) (A) (A) (A) (A) (A) (A) (A) (A)
                 (A) (A) (A) (A) (A) (A) (A) (A) (A) (A) (A) (A)
                 (A) (A) (A) (A) (A) (A) (A) (A) (A) (A) (A) (A)
                 (A) (A) (A)
 Beta  Orbitals:
       Occupied  (A) (A) (A) (A) (A) (A) (A) (A) (A) (A) (A) (A)
                 (A) (A) (A) (A) (A) (A) (A) (A) (A) (A) (A) (A)
                 (A) (A) (A) (A) (A) (A) (A) (A) (A) (A) (A) (A)
                 (A) (A)
       Virtual   (A) (A) (A) (A) (A) (A) (A) (A) (A) (A) (A) (A)
                 (A) (A) (A) (A) (A) (A) (A) (A) (A) (A) (A) (A)
                 (A) (A) (A) (A) (A) (A) (A) (A) (A) (A) (A) (A)
                 (A) (A) (A) (A) (A) (A) (A) (A) (A) (A) (A) (A)
                 (A) (A) (A) (A) (A) (A) (A) (A) (A) (A) (A) (A)
                 (A) (A) (A) (A) (A) (A) (A) (A) (A) (A) (A) (A)
                 (A) (A) (A) (A) (A) (A) (A) (A) (A) (A) (A) (A)
                 (A) (A) (A) (A) (A) (A) (A) (A) (A) (A) (A) (A)
                 (A) (A) (A) (A) (A) (A) (A) (A) (A) (A) (A) (A)
                 (A) (A) (A) (A) (A) (A) (A) (A) (A) (A) (A) (A)
                 (A) (A) (A) (A) (A) (A) (A) (A) (A) (A) (A) (A)
                 (A) (A) (A) (A) (A) (A) (A) (A) (A) (A) (A) (A)
                 (A) (A) (A) (A) (A) (A) (A) (A) (A) (A) (A) (A)
                 (A) (A) (A) (A) (A) (A) (A) (A) (A) (A) (A) (A)
                 (A) (A) (A) (A)
 The electronic state is 2-A.
 Alpha  occ. eigenvalues --  -38.43656 -38.43554 -38.43499 -38.43406 -38.43328
 Alpha  occ. eigenvalues --  -38.43292 -38.43129  -2.19534  -2.19487  -2.19437
 Alpha  occ. eigenvalues --   -2.19259  -2.19237  -2.19231  -2.19174  -1.13241
 Alpha  occ. eigenvalues --   -1.13221  -1.13202  -1.13171  -1.13154  -1.13129
 Alpha  occ. eigenvalues --   -1.13110  -1.13089  -1.13053  -1.12991  -1.12938
 Alpha  occ. eigenvalues --   -1.12922  -1.12920  -1.12893  -1.12890  -1.12878
 Alpha  occ. eigenvalues --   -1.12864  -1.12827  -1.12823  -1.12781  -1.12764
 Alpha  occ. eigenvalues --   -0.19360  -0.13150  -0.12728  -0.11047
 Alpha virt. eigenvalues --   -0.05228  -0.04833  -0.04826  -0.03262  -0.03037
 Alpha virt. eigenvalues --   -0.02632  -0.01149  -0.01064  -0.00080  -0.00017
 Alpha virt. eigenvalues --    0.00010   0.00378   0.00909   0.00946   0.00971
 Alpha virt. eigenvalues --    0.00981   0.01174   0.01255   0.01337   0.01344
 Alpha virt. eigenvalues --    0.01385   0.01501   0.01782   0.01800   0.02144
 Alpha virt. eigenvalues --    0.02355   0.02382   0.02687   0.02705   0.02943
 Alpha virt. eigenvalues --    0.03051   0.03068   0.03137   0.03195   0.03276
 Alpha virt. eigenvalues --    0.03293   0.03308   0.03315   0.03434   0.03738
 Alpha virt. eigenvalues --    0.04562   0.04669   0.04748   0.04792   0.04861
 Alpha virt. eigenvalues --    0.05054   0.05198   0.05321   0.05387   0.05501
 Alpha virt. eigenvalues --    0.05883   0.07349   0.07484   0.07553   0.07582
 Alpha virt. eigenvalues --    0.07648   0.07952   0.08330   0.08370   0.09238
 Alpha virt. eigenvalues --    0.09653   0.09970   0.11060   0.11234   0.11836
 Alpha virt. eigenvalues --    0.12162   0.12743   0.13063   0.13728   0.13898
 Alpha virt. eigenvalues --    0.14146   0.14447   0.14708   0.14917   0.15126
 Alpha virt. eigenvalues --    0.15411   0.16173   0.16292   0.16494   0.16998
 Alpha virt. eigenvalues --    0.25812   0.26553   0.27155   0.28146   0.28540
 Alpha virt. eigenvalues --    0.28848   0.29006   0.29661   0.30367   0.35343
 Alpha virt. eigenvalues --    0.35950   0.36683   0.37043   0.38113   0.38961
 Alpha virt. eigenvalues --    0.39682   0.40076   0.42285   0.42617   0.43695
 Alpha virt. eigenvalues --    0.44307   0.44928   0.45236   0.45368   0.45425
 Alpha virt. eigenvalues --    0.45627   0.46001   0.46211   0.46912   0.47610
 Alpha virt. eigenvalues --    0.47655   0.48625   0.48712   0.50954   0.51179
 Alpha virt. eigenvalues --    0.51563   0.52199   0.52450   0.53052   0.53733
 Alpha virt. eigenvalues --    0.54527   0.55540   0.56446   0.56523   0.57852
 Alpha virt. eigenvalues --    0.58632   0.59770   0.60787   0.62787   0.63213
 Alpha virt. eigenvalues --    0.63831   0.65619   0.66418   0.70434   0.71014
 Alpha virt. eigenvalues --    0.73868   2.04733   2.18725   2.19886   2.22681
 Alpha virt. eigenvalues --    2.24454   2.24977   2.30169   4.42647   4.43066
 Alpha virt. eigenvalues --    4.43694   4.44160   4.44704   4.45635   4.46552
 Alpha virt. eigenvalues --    4.47619   4.48002   4.48601   4.49041   4.49693
 Alpha virt. eigenvalues --    4.52272   4.53367   4.54020   4.56532   4.56840
 Alpha virt. eigenvalues --    4.62171   4.63416   4.66594   4.70883  96.24050
 Alpha virt. eigenvalues --   96.41104  96.42597  96.46505  96.48876  96.49607
 Alpha virt. eigenvalues --   96.56000
  Beta  occ. eigenvalues --  -38.43653 -38.43489 -38.43462 -38.43402 -38.43322
  Beta  occ. eigenvalues --  -38.43284 -38.43059  -2.19530  -2.19424  -2.19317
  Beta  occ. eigenvalues --   -2.19254  -2.19226  -2.19224  -2.19047  -1.13237
  Beta  occ. eigenvalues --   -1.13198  -1.13181  -1.13167  -1.13102  -1.13064
  Beta  occ. eigenvalues --   -1.13029  -1.12993  -1.12973  -1.12963  -1.12925
  Beta  occ. eigenvalues --   -1.12905  -1.12897  -1.12892  -1.12875  -1.12854
  Beta  occ. eigenvalues --   -1.12837  -1.12823  -1.12747  -1.12695  -1.12682
  Beta  occ. eigenvalues --   -0.18595  -0.12884  -0.12476
  Beta virt. eigenvalues --   -0.07068  -0.05226  -0.04834  -0.04783  -0.02418
  Beta virt. eigenvalues --   -0.02223  -0.01552  -0.01073  -0.01001  -0.00132
  Beta virt. eigenvalues --   -0.00054   0.00127   0.00393   0.00932   0.00946
  Beta virt. eigenvalues --    0.01004   0.01026   0.01309   0.01390   0.01448
  Beta virt. eigenvalues --    0.01487   0.01542   0.01547   0.01819   0.01831
  Beta virt. eigenvalues --    0.02323   0.02334   0.02361   0.02665   0.02677
  Beta virt. eigenvalues --    0.02979   0.03070   0.03091   0.03287   0.03297
  Beta virt. eigenvalues --    0.03307   0.03363   0.03428   0.03484   0.03554
  Beta virt. eigenvalues --    0.03716   0.04636   0.04759   0.04891   0.04914
  Beta virt. eigenvalues --    0.04971   0.05145   0.05266   0.05394   0.05609
  Beta virt. eigenvalues --    0.05695   0.06205   0.07498   0.07548   0.07600
  Beta virt. eigenvalues --    0.07690   0.07823   0.07920   0.08429   0.08483
  Beta virt. eigenvalues --    0.09625   0.09851   0.10177   0.11225   0.11465
  Beta virt. eigenvalues --    0.12032   0.12352   0.13153   0.13489   0.13861
  Beta virt. eigenvalues --    0.14003   0.14385   0.14652   0.15002   0.15083
  Beta virt. eigenvalues --    0.15345   0.15737   0.16311   0.16526   0.16572
  Beta virt. eigenvalues --    0.17428   0.26173   0.26819   0.27635   0.28235
  Beta virt. eigenvalues --    0.28679   0.28932   0.29092   0.30144   0.30937
  Beta virt. eigenvalues --    0.35717   0.36149   0.36904   0.37282   0.38427
  Beta virt. eigenvalues --    0.39279   0.40088   0.40242   0.42379   0.42966
  Beta virt. eigenvalues --    0.44001   0.44577   0.45112   0.45324   0.45562
  Beta virt. eigenvalues --    0.45645   0.45702   0.46051   0.46156   0.47045
  Beta virt. eigenvalues --    0.47716   0.47870   0.48697   0.48874   0.51102
  Beta virt. eigenvalues --    0.51231   0.51615   0.52278   0.52580   0.53371
  Beta virt. eigenvalues --    0.53928   0.54671   0.55678   0.56608   0.56819
  Beta virt. eigenvalues --    0.58209   0.58777   0.59775   0.61256   0.63199
  Beta virt. eigenvalues --    0.63660   0.64106   0.65955   0.66404   0.70608
  Beta virt. eigenvalues --    0.71187   0.73822   2.04856   2.18728   2.19911
  Beta virt. eigenvalues --    2.22706   2.24489   2.25258   2.30455   4.42645
  Beta virt. eigenvalues --    4.43133   4.43766   4.44213   4.44753   4.45707
  Beta virt. eigenvalues --    4.46623   4.47627   4.48064   4.48657   4.49108
  Beta virt. eigenvalues --    4.49715   4.52317   4.53413   4.54054   4.56581
  Beta virt. eigenvalues --    4.56932   4.62222   4.63485   4.66659   4.70914
  Beta virt. eigenvalues --   96.24092  96.41107  96.42610  96.46518  96.48962
  Beta virt. eigenvalues --   96.49617  96.56085
          Condensed to atoms (all electrons):
               1          2          3          4          5          6
     1  Na  11.110540  -0.512350   0.322046  -0.265538   0.209477  -0.403361
     2  Na  -0.512350  16.467710  -1.022262  -0.649715  -2.872524   0.130117
     3  Na   0.322046  -1.022262  11.166301   0.661558   0.254626  -0.439995
     4  Na  -0.265538  -0.649715   0.661558  11.699578  -0.429721   0.008380
     5  Na   0.209477  -2.872524   0.254626  -0.429721  15.953989  -1.026383
     6  Na  -0.403361   0.130117  -0.439995   0.008380  -1.026383  11.922053
     7  Na   0.410746  -0.056281  -0.140420  -0.368893  -0.376074   0.416334
               7
     1  Na   0.410746
     2  Na  -0.056281
     3  Na  -0.140420
     4  Na  -0.368893
     5  Na  -0.376074
     6  Na   0.416334
     7  Na  10.980296
          Atomic-Atomic Spin Densities.
               1          2          3          4          5          6
     1  Na  -0.161358  -0.207320  -0.021070   0.099049   0.185333   0.122790
     2  Na  -0.207320   4.124001  -0.337477   0.127781  -3.566784   0.229368
     3  Na  -0.021070  -0.337477  -0.099591  -0.131197   0.394410   0.141366
     4  Na   0.099049   0.127781  -0.131197  -0.307132   0.014387   0.072075
     5  Na   0.185333  -3.566784   0.394410   0.014387   4.116588  -0.284090
     6  Na   0.122790   0.229368   0.141366   0.072075  -0.284090  -0.275266
     7  Na  -0.084880   0.074374   0.052164   0.145685  -0.143138  -0.021206
               7
     1  Na  -0.084880
     2  Na   0.074374
     3  Na   0.052164
     4  Na   0.145685
     5  Na  -0.143138
     6  Na  -0.021206
     7  Na  -0.120484
 Mulliken charges and spin densities:
               1          2
     1  Na   0.128439  -0.067455
     2  Na  -0.484693   0.443943
     3  Na   0.198146  -0.001395
     4  Na   0.344351   0.020648
     5  Na  -0.713390   0.716707
     6  Na   0.392855  -0.014963
     7  Na   0.134292  -0.097485
 Sum of Mulliken charges =  -0.00000   1.00000
 Mulliken charges and spin densities with hydrogens summed into heavy atoms:
               1          2
     1  Na   0.128439  -0.067455
     2  Na  -0.484693   0.443943
     3  Na   0.198146  -0.001395
     4  Na   0.344351   0.020648
     5  Na  -0.713390   0.716707
     6  Na   0.392855  -0.014963
     7  Na   0.134292  -0.097485
 Electronic spatial extent (au):  <R**2>=           2025.8564
 Charge=             -0.0000 electrons
 Dipole moment (field-independent basis, Debye):
    X=              0.1534    Y=              0.1699    Z=              0.1987  Tot=              0.3031
 Quadrupole moment (field-independent basis, Debye-Ang):
   XX=            -60.3551   YY=            -61.4443   ZZ=            -72.6944
   XY=              0.1062   XZ=              0.9716   YZ=             -0.9977
 Traceless Quadrupole moment (field-independent basis, Debye-Ang):
   XX=              4.4762   YY=              3.3869   ZZ=             -7.8631
   XY=              0.1062   XZ=              0.9716   YZ=             -0.9977
 Octapole moment (field-independent basis, Debye-Ang**2):
  XXX=              3.7429  YYY=              2.6933  ZZZ=              2.9807  XYY=              0.7724
  XXY=              1.6558  XXZ=             -0.5956  XZZ=              0.6700  YZZ=              0.9118
  YYZ=             -0.7327  XYZ=             -0.2411
 Hexadecapole moment (field-independent basis, Debye-Ang**3):
 XXXX=          -1299.9565 YYYY=          -1249.7266 ZZZZ=           -708.9282 XXXY=              4.0327
 XXXZ=             21.1241 YYYX=              0.4616 YYYZ=            -23.2951 ZZZX=             -4.9231
 ZZZY=              4.7507 XXYY=           -443.6751 XXZZ=           -402.3173 YYZZ=           -391.6902
 XXYZ=             -6.7307 YYXZ=              8.2241 ZZXY=             -1.6090
 N-N= 3.597569133023D+02 E-N=-3.449237368324D+03  KE= 1.133039689148D+03
                          Isotropic Fermi Contact Couplings
        Atom                 a.u.       MegaHertz       Gauss      10(-4) cm-1
     1  Na(23)            -0.01941     -22.96221      -8.19349      -7.65937
     2  Na(23)             0.27447     324.70039     115.86117     108.30839
     3  Na(23)            -0.01579     -18.68221      -6.66628      -6.23172
     4  Na(23)            -0.01741     -20.59379      -7.34838      -6.86935
     5  Na(23)             0.38051     450.14830     160.62411     150.15331
     6  Na(23)            -0.01259     -14.90000      -5.31669      -4.97010
     7  Na(23)            -0.01687     -19.96057      -7.12243      -6.65813
 --------------------------------------------------------
       Center         ----  Spin Dipole Couplings  ----
                      3XX-RR        3YY-RR        3ZZ-RR
 --------------------------------------------------------
     1   Atom       -0.010116     -0.016516      0.026632
     2   Atom        0.002157      0.000061     -0.002217
     3   Atom       -0.015947     -0.013039      0.028986
     4   Atom       -0.020238     -0.019490      0.039728
     5   Atom        0.002446      0.004021     -0.006467
     6   Atom       -0.018108     -0.022174      0.040282
     7   Atom       -0.015734     -0.010385      0.026119
 --------------------------------------------------------
                        XY            XZ            YZ
 --------------------------------------------------------
     1   Atom        0.001225      0.000152     -0.003277
     2   Atom        0.000752      0.005246     -0.001811
     3   Atom       -0.002886     -0.001407      0.003881
     4   Atom        0.002649      0.001087     -0.004472
     5   Atom       -0.000887     -0.000663     -0.001515
     6   Atom       -0.002001     -0.005509      0.003926
     7   Atom        0.000504      0.000223      0.004025
 --------------------------------------------------------


 ---------------------------------------------------------------------------------
              Anisotropic Spin Dipole Couplings in Principal Axis System
 ---------------------------------------------------------------------------------

       Atom             a.u.   MegaHertz   Gauss  10(-4) cm-1        Axes

              Baa    -0.0170    -2.399    -0.856    -0.800 -0.1766  0.9815  0.0743
     1 Na(23) Bbb    -0.0099    -1.397    -0.499    -0.466  0.9843  0.1763  0.0117
              Bcc     0.0269     3.796     1.354     1.266  0.0016 -0.0752  0.9972
 
              Baa    -0.0063    -0.889    -0.317    -0.297 -0.5231  0.2901  0.8014
     2 Na(23) Bbb     0.0006     0.087     0.031     0.029  0.2206  0.9543 -0.2014
              Bcc     0.0057     0.802     0.286     0.268  0.8232 -0.0714  0.5632
 
              Baa    -0.0177    -2.505    -0.894    -0.836  0.8451  0.5343 -0.0189
     3 Na(23) Bbb    -0.0117    -1.647    -0.588    -0.549 -0.5334  0.8401 -0.0987
              Bcc     0.0294     4.152     1.482     1.385 -0.0368  0.0935  0.9949
 
              Baa    -0.0228    -3.215    -1.147    -1.073  0.7341 -0.6763 -0.0612
     4 Na(23) Bbb    -0.0173    -2.444    -0.872    -0.815  0.6789  0.7329  0.0445
              Bcc     0.0401     5.659     2.019     1.888  0.0147 -0.0742  0.9971
 
              Baa    -0.0067    -0.953    -0.340    -0.318  0.0851  0.1457  0.9857
     5 Na(23) Bbb     0.0022     0.312     0.111     0.104  0.9293  0.3453 -0.1313
              Bcc     0.0045     0.641     0.229     0.214 -0.3595  0.9271 -0.1060
 
              Baa    -0.0230    -3.253    -1.161    -1.085  0.3494  0.9366 -0.0277
     6 Na(23) Bbb    -0.0180    -2.546    -0.908    -0.849  0.9322 -0.3444  0.1113
              Bcc     0.0411     5.799     2.069     1.934 -0.0947  0.0647  0.9934
 
              Baa    -0.0158    -2.229    -0.795    -0.743  0.9954 -0.0959  0.0039
     7 Na(23) Bbb    -0.0108    -1.522    -0.543    -0.508  0.0958  0.9895 -0.1085
              Bcc     0.0266     3.751     1.338     1.251  0.0065  0.1084  0.9941
 

 ---------------------------------------------------------------------------------

 No NMR shielding tensors so no spin-rotation constants.
 Leave Link  601 at Thu Dec  7 07:34:42 2023, MaxMem=  1879048192 cpu:               2.3 elap:               0.2
 (Enter /home/sekinelabo/g16/l701.exe)
 ... and contract with generalized density number  0.
 Compute integral first derivatives.
 Leave Link  701 at Thu Dec  7 07:34:42 2023, MaxMem=  1879048192 cpu:               1.6 elap:               0.1
 (Enter /home/sekinelabo/g16/l702.exe)
 L702 exits ... SP integral derivatives will be done elsewhere.
 Leave Link  702 at Thu Dec  7 07:34:42 2023, MaxMem=  1879048192 cpu:               0.5 elap:               0.0
 (Enter /home/sekinelabo/g16/l703.exe)
 Integral derivatives from FoFJK, PRISM(SPDF).
 Compute integral first derivatives, UseDBF=F ICtDFT=           0.
 Calling FoFJK, ICntrl=      2127 FMM=F ISym2X=0 I1Cent= 0 IOpClX= 1 NMat=1 NMatS=1 NMatT=0.
 FoFJK:  IHMeth= 1 ICntrl=    2127 DoSepK=F KAlg= 0 I1Cent=           0 FoldK=F
 IRaf=         0 NMat=       1 IRICut=       1 DoRegI=T DoRafI=F ISym2E= 0 IDoP0=0 IntGTp=1.
 FoFCou: FMM=F IPFlag=           0 FMFlag=      100000 FMFlg1=         800
         NFxFlg=           0 DoJE=F BraDBF=F KetDBF=F FulRan=T
         wScrn=  0.000000 ICntrl=      2127 IOpCl=  1 I1Cent=           0 NGrid=           0
         NMat0=    1 NMatS0=      1 NMatT0=    0 NMatD0=    1 NMtDS0=    0 NMtDT0=    0
 Symmetry not used in FoFCou.
 Leave Link  703 at Thu Dec  7 07:34:44 2023, MaxMem=  1879048192 cpu:              33.7 elap:               2.3
 (Enter /home/sekinelabo/g16/l716.exe)
 Dipole        = 6.03551483D-02 6.68495661D-02 7.81624459D-02
 ***** Axes restored to original set *****
 -------------------------------------------------------------------
 Center     Atomic                   Forces (Hartrees/Bohr)
 Number     Number              X              Y              Z
 -------------------------------------------------------------------
      1       11          -0.002404800   -0.002167222   -0.001251500
      2       11           0.000387798   -0.003604239    0.004750884
      3       11           0.002789813    0.002239095   -0.003228509
      4       11           0.005136135    0.006132233   -0.002012813
      5       11           0.000833392   -0.001300301   -0.002344356
      6       11          -0.006521223   -0.001060042    0.004318116
      7       11          -0.000221115   -0.000239524   -0.000231821
 -------------------------------------------------------------------
 Cartesian Forces:  Max     0.006521223 RMS     0.003157387
 Z-matrix is all fixed cartesians, so copy forces.
 Force constants in Cartesian coordinates: 
                1             2             3             4             5 
      1  0.686589D-01
      2 -0.129827D-02  0.100158D+00
      3 -0.103291D-01  0.235732D-01  0.700219D-01
      4 -0.216784D-01  0.808452D-02  0.344096D-03  0.148112D+00
      5 -0.616422D-02 -0.235763D-01 -0.219677D-01 -0.132732D-01  0.143682D+00
      6 -0.142370D-01  0.105721D-01 -0.381215D-01  0.258286D-01 -0.203561D-01
      7 -0.254166D-01  0.769893D-02  0.152248D-01 -0.248441D-01  0.627004D-02
      8 -0.217284D-01 -0.306241D-01  0.539081D-02 -0.773072D-02 -0.223458D-01
      9  0.110520D-02 -0.153335D-01 -0.128903D-01  0.216716D-01  0.677730D-02
     10  0.670512D-02 -0.148169D-02 -0.903809D-03 -0.215095D-01  0.138172D-01
     11 -0.669378D-03 -0.495296D-02 -0.517844D-02 -0.124996D-01 -0.407715D-01
     12 -0.634232D-03 -0.570748D-02  0.594504D-02 -0.842606D-03  0.231504D-01
     13 -0.149726D-01 -0.822738D-03 -0.119508D-01 -0.182770D-01  0.321294D-02
     14  0.143675D-01 -0.218010D-01  0.168884D-01  0.503369D-02 -0.149015D-01
     15  0.450076D-02 -0.121134D-01 -0.145543D-01 -0.989619D-02  0.636505D-02
     16  0.542960D-02  0.379806D-02  0.423672D-02 -0.306280D-01  0.103753D-01
     17  0.310462D-02 -0.835110D-04 -0.545531D-02  0.111605D-01 -0.243868D-01
     18  0.402382D-02 -0.593656D-02  0.234421D-02 -0.170273D-01  0.124381D-01
     19 -0.187259D-01 -0.159788D-01  0.337809D-02 -0.311753D-01 -0.142381D-01
     20  0.123881D-01 -0.191202D-01 -0.132510D-01  0.922482D-02 -0.177006D-01
     21  0.155705D-01  0.494566D-02 -0.127451D-01 -0.200782D-01 -0.640710D-02
                6             7             8             9            10 
      6  0.173025D+00
      7 -0.140728D-01  0.100752D+00
      8  0.116390D-01  0.945612D-02  0.757634D-01
      9 -0.405305D-01 -0.282378D-01  0.283526D-02  0.758849D-01
     10 -0.649459D-02 -0.206533D-01  0.126637D-01  0.148690D-01  0.905319D-01
     11 -0.619401D-02 -0.168811D-01 -0.236457D-01  0.672180D-03  0.225075D-01
     12 -0.256087D-01  0.789241D-03 -0.194942D-01 -0.154300D-01 -0.762120D-02
     13 -0.918319D-02 -0.260246D-01  0.932849D-02 -0.204149D-01 -0.218101D-01
     14  0.813249D-02 -0.429088D-02 -0.113233D-01  0.491928D-02 -0.153454D-01
     15 -0.258189D-01  0.140131D-01 -0.527245D-03 -0.140827D-01 -0.545758D-02
     16  0.128420D-01 -0.116574D-02  0.218366D-02  0.659825D-02 -0.360277D-01
     17 -0.117324D-01  0.256146D-02  0.752952D-02 -0.224771D-02 -0.250738D-01
     18 -0.224826D-01  0.735172D-02 -0.220444D-02  0.155031D-02  0.524210D-02
     19  0.531695D-02 -0.264791D-02 -0.417288D-02  0.440863D-02  0.276373D-02
     20  0.793898D-02 -0.481454D-02  0.464588D-02  0.237716D-02 -0.708752D-02
     21 -0.204624D-01  0.493175D-02  0.236081D-02  0.549828D-02  0.366053D-03
               11            12            13            14            15 
     11  0.119208D+00
     12  0.139660D-01  0.705115D-01
     13  0.917148D-02 -0.143319D-01  0.118513D+00
     14 -0.190592D-01 -0.171990D-01 -0.126973D-01  0.107232D+00
     15  0.117273D-01 -0.217308D-01  0.279513D-01 -0.185671D-01  0.140253D+00
     16  0.619496D-02  0.224842D-01 -0.200054D-01  0.115488D-02 -0.175766D-01
     17 -0.292428D-01  0.521823D-02  0.501061D-02 -0.182263D-01  0.114456D-01
     18 -0.152961D-01 -0.207081D-01  0.159323D-01 -0.123416D-01 -0.399544D-01
     19 -0.782388D-02  0.156451D-03 -0.174238D-01  0.117775D-01 -0.135348D-01
     20 -0.153626D-02  0.660324D-04 -0.132035D-01 -0.219206D-01  0.166969D-02
     21  0.302976D-03  0.702105D-02  0.119971D-01  0.181675D-01 -0.241114D-01
               16            17            18            19            20 
     16  0.979632D-01
     17 -0.693101D-02  0.878930D-01
     18 -0.281721D-01  0.200199D-01  0.913576D-01
     19 -0.155659D-01  0.101676D-01  0.126494D-01  0.827751D-01
     20 -0.167758D-01 -0.234832D-01  0.332060D-02  0.202685D-01  0.791150D-01
     21 -0.412458D-03 -0.172483D-01 -0.121070D-01 -0.123747D-01 -0.212147D-02
               21 
     21  0.569065D-01
 Leave Link  716 at Thu Dec  7 07:34:44 2023, MaxMem=  1879048192 cpu:               0.4 elap:               0.0
 (Enter /home/sekinelabo/g16/l103.exe)

 GradGradGradGradGradGradGradGradGradGradGradGradGradGradGradGradGradGrad
 Berny optimization.
 Search for a local minimum.
 Step number   1 out of a maximum of    2
 All quantities printed in internal units (Hartrees-Bohrs-Radians)
 Second derivative matrix not updated -- first step.
 ITU=  0
     Eigenvalues ---    0.06586   0.07335   0.07606   0.09595   0.10295
     Eigenvalues ---    0.10938   0.12357   0.14153   0.14512   0.17111
     Eigenvalues ---    0.17530   0.17950   0.18525   0.19915   0.23868
 Angle between quadratic step and forces=  21.37 degrees.
 Linear search not attempted -- first point.
 B after Tr=     0.000000    0.000000   -0.000000
         Rot=    1.000000    0.000000    0.000000   -0.000000 Ang=   0.00 deg.
 Variable       Old X    -DE/DX   Delta X   Delta X   Delta X     New X
                                 (Linear)    (Quad)   (Total)
    X1       23.69792  -0.00240   0.00000  -0.01416  -0.01416  23.68376
    Y1       17.85032  -0.00217   0.00000  -0.03235  -0.03235  17.81797
    Z1       19.80641  -0.00125   0.00000  -0.01400  -0.01400  19.79241
    X2       24.31208   0.00039   0.00000   0.00775   0.00775  24.31984
    Y2       21.31592  -0.00360   0.00000  -0.01685  -0.01685  21.29907
    Z2       24.84990   0.00475   0.00000   0.02769   0.02769  24.87759
    X3       27.14062   0.00279   0.00000   0.04077   0.04077  27.18139
    Y3       22.91633   0.00224   0.00000   0.01310   0.01310  22.92943
    Z3       19.79715  -0.00323   0.00000  -0.02978  -0.02978  19.76737
    X4       24.42509   0.00514   0.00000   0.03683   0.03683  24.46192
    Y4       27.21924   0.00613   0.00000   0.05603   0.05603  27.27526
    Z4       23.71606  -0.00201   0.00000  -0.00487  -0.00487  23.71120
    X5       20.14372   0.00083   0.00000  -0.00166  -0.00166  20.14206
    Y5       24.01785  -0.00130   0.00000  -0.00145  -0.00145  24.01640
    Z5       19.81472  -0.00234   0.00000  -0.02139  -0.02139  19.79334
    X6       19.50178  -0.00652   0.00000  -0.04949  -0.04949  19.45229
    Y6       25.23748  -0.00106   0.00000  -0.00012  -0.00012  25.23736
    Z6       25.84125   0.00432   0.00000   0.03931   0.03931  25.88056
    X7       18.31908  -0.00022   0.00000  -0.02004  -0.02004  18.29904
    Y7       18.98343  -0.00024   0.00000  -0.01836  -0.01836  18.96507
    Z7       23.71493  -0.00023   0.00000   0.00303   0.00303  23.71796
         Item               Value     Threshold  Converged?
 Maximum Force            0.006521     0.000450     NO 
 RMS     Force            0.003157     0.000300     NO 
 Maximum Displacement     0.056026     0.001800     NO 
 RMS     Displacement     0.026724     0.001200     NO 
 Predicted change in Energy=-8.250219D-04
 GradGradGradGradGradGradGradGradGradGradGradGradGradGradGradGradGradGrad

 Leave Link  103 at Thu Dec  7 07:34:44 2023, MaxMem=  1879048192 cpu:               0.2 elap:               0.0
 (Enter /home/sekinelabo/g16/l9999.exe)
 1\1\GINC-SEKINELABO-XA7R-R37\Force\UB3LYP\6-311+G(d)\Na7(2)\SEKINELABO
 \07-Dec-2023\0\\#P B3LYP/6-311+g(d) force\\DPGEN\\0,2\Na,12.5404,9.445
 98,10.4811\Na,12.8654,11.2799,13.15\Na,14.3622,12.1268,10.4762\Na,12.9
 252,14.4038,12.55\Na,10.6596,12.7097,10.4855\Na,10.3199,13.3551,13.674
 6\Na,9.69404,10.0456,12.5494\\Version=ES64L-G16RevB.01\State=2-A\HF=-1
 136.137607\S2=0.758023\S2-1=0.\S2A=0.750042\RMSD=6.221e-09\RMSF=3.157e
 -03\Dipole=-0.0678714,-0.0543752,-0.0815952\Quadrupole=0.066433,1.8911
 917,-1.9576247,1.534605,-3.6798689,2.6964926\PG=C01 [X(Na7)]\\@


 GOD GAVE US TWO ENDS... ONE TO SIT ON...    
 AND THE OTHER TO THINK WITH...              
 YOUR SUCCESS DEPENDS UPON WHICH END YOU     
 USE THE MOST...                             
                                             
 IT'S A CASE OF HEADS YOU WIN TAILS YOU LOSE.
          SOURCE UNKNOWN(IT'S JUST AS WELL.) 
 Job cpu time:       0 days  0 hours  3 minutes 49.6 seconds.
 Elapsed time:       0 days  0 hours  0 minutes 19.1 seconds.
 File lengths (MBytes):  RWF=     32 Int=      0 D2E=      0 Chk=      4 Scr=      1
 Normal termination of Gaussian 16 at Thu Dec  7 07:34:44 2023.
