ITEM: TIMESTEP
3760
ITEM: NUMBER OF ATOMS
7
ITEM: BOX BOUNDS xy xz yz ff ff ff
0.0000000000000000e+00 2.5131261760400001e+01 0.0000000000000000e+00
0.0000000000000000e+00 2.5131261760400001e+01 0.0000000000000000e+00
0.0000000000000000e+00 2.5131261760400001e+01 0.0000000000000000e+00
ITEM: ATOMS id type x y z fx fy fz
3 1 11.3576 14.1446 11.8434 -0.00148339 -0.0737222 -0.0903715
1 1 14.486 12.8085 11.0417 -0.0639065 0.0103532 0.0880948
4 1 10.9707 12.7576 14.8509 -0.0432077 -0.0722572 0.00871919
2 1 11.1183 11.1736 9.19977 0.0227411 0.0952472 -0.0281514
5 1 13.4883 14.9631 14.3451 0.0497612 0.0848473 -0.0490316
7 1 12.2986 10.3494 12.0356 -0.00337471 0.0272495 0.145711
6 1 14.2399 11.7626 14.643 0.0394699 -0.0717179 -0.07497
