ITEM: TIMESTEP
7880
ITEM: NUMBER OF ATOMS
7
ITEM: BOX BOUNDS xy xz yz ff ff ff
0.0000000000000000e+00 2.4469745712900000e+01 0.0000000000000000e+00
0.0000000000000000e+00 2.4469745712900000e+01 0.0000000000000000e+00
0.0000000000000000e+00 2.4469745712900000e+01 0.0000000000000000e+00
ITEM: ATOMS id type x y z fx fy fz
1 1 15.884 12.3584 11.1006 0.0778965 -0.0106645 0.0329727
7 1 14.393 12.6698 14.1641 -0.0355768 -0.105232 0.10807
4 1 14.4904 13.6428 8.5761 -0.0821405 0.00192724 -0.0611055
5 1 11.2156 12.627 9.49533 -0.025026 0.0533056 -0.0099905
2 1 8.54278 10.903 14.5149 0.109329 0.035572 -0.010921
3 1 12.2145 10.0917 15.3402 -0.0112934 0.0728371 -0.0132241
6 1 8.90378 13.3515 12.4529 -0.0331885 -0.0477455 -0.045802
