 Set GAUSS_MDEF to "14GB".
 Entering Gaussian System, Link 0=g16
 Initial command:
 /home/sekinelabo/g16/l1.exe "/home/sekinelabo/g16temp/Gau-123681.inp" -scrdir="/home/sekinelabo/g16temp/"
 Entering Link 1 = /home/sekinelabo/g16/l1.exe PID=    123683.
  
 Copyright (c) 1988-2017, Gaussian, Inc.  All Rights Reserved.
  
 This is part of the Gaussian(R) 16 program.  It is based on
 the Gaussian(R) 09 system (copyright 2009, Gaussian, Inc.),
 the Gaussian(R) 03 system (copyright 2003, Gaussian, Inc.),
 the Gaussian(R) 98 system (copyright 1998, Gaussian, Inc.),
 the Gaussian(R) 94 system (copyright 1995, Gaussian, Inc.),
 the Gaussian 92(TM) system (copyright 1992, Gaussian, Inc.),
 the Gaussian 90(TM) system (copyright 1990, Gaussian, Inc.),
 the Gaussian 88(TM) system (copyright 1988, Gaussian, Inc.),
 the Gaussian 86(TM) system (copyright 1986, Carnegie Mellon
 University), and the Gaussian 82(TM) system (copyright 1983,
 Carnegie Mellon University). Gaussian is a federally registered
 trademark of Gaussian, Inc.
  
 This software contains proprietary and confidential information,
 including trade secrets, belonging to Gaussian, Inc.
  
 This software is provided under written license and may be
 used, copied, transmitted, or stored only in accord with that
 written license.
  
 The following legend is applicable only to US Government
 contracts under FAR:
  
                    RESTRICTED RIGHTS LEGEND
  
 Use, reproduction and disclosure by the US Government is
 subject to restrictions as set forth in subparagraphs (a)
 and (c) of the Commercial Computer Software - Restricted
 Rights clause in FAR 52.227-19.
  
 Gaussian, Inc.
 340 Quinnipiac St., Bldg. 40, Wallingford CT 06492
  
  
 ---------------------------------------------------------------
 Warning -- This program may not be used in any manner that
 competes with the business of Gaussian, Inc. or will provide
 assistance to any competitor of Gaussian, Inc.  The licensee
 of this program is prohibited from giving any competitor of
 Gaussian, Inc. access to this program.  By using this program,
 the user acknowledges that Gaussian, Inc. is engaged in the
 business of creating and licensing software in the field of
 computational chemistry and represents and warrants to the
 licensee that it is not a competitor of Gaussian, Inc. and that
 it will not use this program in any manner prohibited above.
 ---------------------------------------------------------------
  

 Cite this work as:
 Gaussian 16, Revision B.01,
 M. J. Frisch, G. W. Trucks, H. B. Schlegel, G. E. Scuseria, 
 M. A. Robb, J. R. Cheeseman, G. Scalmani, V. Barone, 
 G. A. Petersson, H. Nakatsuji, X. Li, M. Caricato, A. V. Marenich, 
 J. Bloino, B. G. Janesko, R. Gomperts, B. Mennucci, H. P. Hratchian, 
 J. V. Ortiz, A. F. Izmaylov, J. L. Sonnenberg, D. Williams-Young, 
 F. Ding, F. Lipparini, F. Egidi, J. Goings, B. Peng, A. Petrone, 
 T. Henderson, D. Ranasinghe, V. G. Zakrzewski, J. Gao, N. Rega, 
 G. Zheng, W. Liang, M. Hada, M. Ehara, K. Toyota, R. Fukuda, 
 J. Hasegawa, M. Ishida, T. Nakajima, Y. Honda, O. Kitao, H. Nakai, 
 T. Vreven, K. Throssell, J. A. Montgomery, Jr., J. E. Peralta, 
 F. Ogliaro, M. J. Bearpark, J. J. Heyd, E. N. Brothers, K. N. Kudin, 
 V. N. Staroverov, T. A. Keith, R. Kobayashi, J. Normand, 
 K. Raghavachari, A. P. Rendell, J. C. Burant, S. S. Iyengar, 
 J. Tomasi, M. Cossi, J. M. Millam, M. Klene, C. Adamo, R. Cammi, 
 J. W. Ochterski, R. L. Martin, K. Morokuma, O. Farkas, 
 J. B. Foresman, and D. J. Fox, Gaussian, Inc., Wallingford CT, 2016.
 
 ******************************************
 Gaussian 16:  ES64L-G16RevB.01 20-Dec-2017
                28-Nov-2023 
 ******************************************
 %nproc=15
 Will use up to   15 processors via shared memory.
 -------------------------
 #P B3LYP/6-311+g(d) force
 -------------------------
 1/10=7,30=1,38=1/1,3;
 2/12=2,17=6,18=5,40=1/2;
 3/5=4,6=6,7=11,11=2,25=1,30=1,71=1,74=-5/1,2,3;
 4//1;
 5/5=2,38=5/2;
 6/7=2,8=2,9=2,10=2,28=1/1;
 7/29=1/1,2,3,16;
 1/10=7,30=1/3;
 99//99;
 Leave Link    1 at Tue Nov 28 21:44:13 2023, MaxMem=           0 cpu:               0.3 elap:               0.0
 (Enter /home/sekinelabo/g16/l101.exe)
 -----
 DPGEN
 -----
 Symbolic Z-matrix:
 Charge =  0 Multiplicity = 2
 Na                    16.7631   13.5655   14.601 
 Na                    19.836    13.9646   13.5265 
 Na                    18.6573   15.9409   15.7547 
 Na                    16.5752   18.8866   16.425 
 Na                    15.0675   16.4455   16.0821 
 Na                    11.7916   14.1137   15.625 
 Na                    8.73487   14.5087   15.4113 
 
 ITRead=  0  0  0  0  0  0  0
 MicOpt= -1 -1 -1 -1 -1 -1 -1
 NAtoms=      7 NQM=        7 NQMF=       0 NMMI=      0 NMMIF=      0
                NMic=       0 NMicF=      0.
                    Isotopes and Nuclear Properties:
 (Nuclear quadrupole moments (NQMom) in fm**2, nuclear magnetic moments (NMagM)
  in nuclear magnetons)

  Atom         1           2           3           4           5           6           7
 IAtWgt=          23          23          23          23          23          23          23
 AtmWgt=  22.9897697  22.9897697  22.9897697  22.9897697  22.9897697  22.9897697  22.9897697
 NucSpn=           3           3           3           3           3           3           3
 AtZEff=  -0.0000000  -0.0000000  -0.0000000  -0.0000000  -0.0000000  -0.0000000  -0.0000000
 NQMom=   10.4000000  10.4000000  10.4000000  10.4000000  10.4000000  10.4000000  10.4000000
 NMagM=    2.2175200   2.2175200   2.2175200   2.2175200   2.2175200   2.2175200   2.2175200
 AtZNuc=  11.0000000  11.0000000  11.0000000  11.0000000  11.0000000  11.0000000  11.0000000
 Leave Link  101 at Tue Nov 28 21:44:13 2023, MaxMem=  1879048192 cpu:               2.4 elap:               0.2
 (Enter /home/sekinelabo/g16/l103.exe)

 GradGradGradGradGradGradGradGradGradGradGradGradGradGradGradGradGradGrad
 Berny optimization.
 Initialization pass.
 Trust Radius=3.00D-01 FncErr=1.00D-07 GrdErr=1.00D-07 EigMax=2.50D+02 EigMin=1.00D-04
 Number of steps in this run=      2 maximum allowed number of steps=      2.
 GradGradGradGradGradGradGradGradGradGradGradGradGradGradGradGradGradGrad

 Leave Link  103 at Tue Nov 28 21:44:13 2023, MaxMem=  1879048192 cpu:               0.2 elap:               0.0
 (Enter /home/sekinelabo/g16/l202.exe)
                          Input orientation:                          
 ---------------------------------------------------------------------
 Center     Atomic      Atomic             Coordinates (Angstroms)
 Number     Number       Type             X           Y           Z
 ---------------------------------------------------------------------
      1         11           0       16.763100   13.565500   14.601000
      2         11           0       19.836000   13.964600   13.526500
      3         11           0       18.657300   15.940900   15.754700
      4         11           0       16.575200   18.886600   16.425000
      5         11           0       15.067500   16.445500   16.082100
      6         11           0       11.791600   14.113700   15.625000
      7         11           0        8.734870   14.508700   15.411300
 ---------------------------------------------------------------------
                    Distance matrix (angstroms):
                    1          2          3          4          5
     1  Na   0.000000
     2  Na   3.279717   0.000000
     3  Na   3.249853   3.203119   0.000000
     4  Na   5.628178   6.577249   3.669004   0.000000
     5  Na   3.655560   5.951853   3.639846   2.889586   0.000000
     6  Na   5.105381   8.314945   7.105865   6.804660   4.046944
     7  Na   8.123958  11.273136  10.031138   9.036834   6.656078
                    6          7
     6  Na   0.000000
     7  Na   3.089545   0.000000
 Stoichiometry    Na7(2)
 Framework group  C1[X(Na7)]
 Deg. of freedom    15
 Full point group                 C1      NOp   1
 Largest Abelian subgroup         C1      NOp   1
 Largest concise Abelian subgroup C1      NOp   1
                         Standard orientation:                         
 ---------------------------------------------------------------------
 Center     Atomic      Atomic             Coordinates (Angstroms)
 Number     Number       Type             X           Y           Z
 ---------------------------------------------------------------------
      1         11           0       -1.307356   -1.994428   -0.218080
      2         11           0       -4.483913   -2.225618    0.564594
      3         11           0       -3.304372    0.553196   -0.506314
      4         11           0       -1.448722    3.604860    0.333628
      5         11           0        0.239626    1.317482   -0.183179
      6         11           0        3.662848   -0.834711   -0.348619
      7         11           0        6.641889   -0.420781    0.357971
 ---------------------------------------------------------------------
 Rotational constants (GHZ):           0.8501037           0.2352656           0.1874662
 Leave Link  202 at Tue Nov 28 21:44:13 2023, MaxMem=  1879048192 cpu:               0.0 elap:               0.0
 (Enter /home/sekinelabo/g16/l301.exe)
 Standard basis: 6-311+G(d) (5D, 7F)
 Ernie: Thresh=  0.10000D-02 Tol=  0.10000D-05 Strict=F.
 There are   217 symmetry adapted cartesian basis functions of A   symmetry.
 There are   210 symmetry adapted basis functions of A   symmetry.
   210 basis functions,   350 primitive gaussians,   217 cartesian basis functions
    39 alpha electrons       38 beta electrons
       nuclear repulsion energy       277.6639486621 Hartrees.
 IExCor=  402 DFT=T Ex+Corr=B3LYP ExCW=0 ScaHFX=  0.200000
 ScaDFX=  0.800000  0.720000  1.000000  0.810000 ScalE2=  1.000000  1.000000
 IRadAn=      5 IRanWt=     -1 IRanGd=            0 ICorTp=0 IEmpDi=  4
 NAtoms=    7 NActive=    7 NUniq=    7 SFac= 1.00D+00 NAtFMM=   60 NAOKFM=F Big=F
 Integral buffers will be    131072 words long.
 Raffenetti 2 integral format.
 Two-electron integral symmetry is turned on.
 Leave Link  301 at Tue Nov 28 21:44:13 2023, MaxMem=  1879048192 cpu:               0.5 elap:               0.0
 (Enter /home/sekinelabo/g16/l302.exe)
 NPDir=0 NMtPBC=     1 NCelOv=     1 NCel=       1 NClECP=     1 NCelD=      1
         NCelK=      1 NCelE2=     1 NClLst=     1 CellRange=     0.0.
 One-electron integrals computed using PRISM.
 One-electron integral symmetry used in STVInt
 NBasis=   210 RedAO= T EigKep=  2.10D-06  NBF=   210
 NBsUse=   210 1.00D-06 EigRej= -1.00D+00 NBFU=   210
 Precomputing XC quadrature grid using
 IXCGrd= 4 IRadAn=           5 IRanWt=          -1 IRanGd=           0 AccXCQ= 0.00D+00.
 Generated NRdTot=       0 NPtTot=           0 NUsed=           0 NTot=          32
 NSgBfM=   203   203   203   203   203 MxSgAt=     7 MxSgA2=     7.
 Leave Link  302 at Tue Nov 28 21:44:13 2023, MaxMem=  1879048192 cpu:               1.9 elap:               0.1
 (Enter /home/sekinelabo/g16/l303.exe)
 DipDrv:  MaxL=1.
 Leave Link  303 at Tue Nov 28 21:44:13 2023, MaxMem=  1879048192 cpu:               0.5 elap:               0.0
 (Enter /home/sekinelabo/g16/l401.exe)
 ExpMin= 7.60D-03 ExpMax= 3.62D+04 ExpMxC= 1.21D+03 IAcc=3 IRadAn=         5 AccDes= 0.00D+00
 Harris functional with IExCor=  402 and IRadAn=       5 diagonalized for initial guess.
 HarFok:  IExCor=  402 AccDes= 0.00D+00 IRadAn=         5 IDoV= 1 UseB2=F ITyADJ=14
 ICtDFT=  3500011 ScaDFX=  1.000000  1.000000  1.000000  1.000000
 FoFCou: FMM=F IPFlag=           0 FMFlag=      100000 FMFlg1=           0
         NFxFlg=           0 DoJE=T BraDBF=F KetDBF=T FulRan=T
         wScrn=  0.000000 ICntrl=       500 IOpCl=  0 I1Cent=   200000004 NGrid=           0
         NMat0=    1 NMatS0=      1 NMatT0=    0 NMatD0=    1 NMtDS0=    0 NMtDT0=    0
 Petite list used in FoFCou.
 Harris En= -1135.88742816035    
 JPrj=0 DoOrth=F DoCkMO=F.
 Initial guess <Sx>= 0.0000 <Sy>= 0.0000 <Sz>= 0.5000 <S**2>= 0.7500 S= 0.5000
 Leave Link  401 at Tue Nov 28 21:44:13 2023, MaxMem=  1879048192 cpu:               4.1 elap:               0.3
 (Enter /home/sekinelabo/g16/l502.exe)
 Keep R1 and R2 ints in memory in canonical form, NReq=506573307.
 FoFCou: FMM=F IPFlag=           0 FMFlag=           0 FMFlg1=           0
         NFxFlg=           0 DoJE=F BraDBF=F KetDBF=F FulRan=T
         wScrn=  0.000000 ICntrl=       600 IOpCl=  0 I1Cent=           0 NGrid=           0
         NMat0=    1 NMatS0=  22155 NMatT0=    0 NMatD0=    1 NMtDS0=    0 NMtDT0=    0
 Symmetry not used in FoFCou.
 Two-electron integral symmetry not used.
 UHF open shell SCF:
 Using DIIS extrapolation, IDIIS=  1040.
 NGot=  1879048192 LenX=  1388082593 LenY=  1388035063
 Requested convergence on RMS density matrix=1.00D-08 within 128 cycles.
 Requested convergence on MAX density matrix=1.00D-06.
 Requested convergence on             energy=1.00D-06.
 No special actions if energy rises.

 Cycle   1  Pass 1  IDiag  1:
 E= -1136.09205850375    
 DIIS: error= 9.78D-03 at cycle   1 NSaved=   1.
 NSaved= 1 IEnMin= 1 EnMin= -1136.09205850375     IErMin= 1 ErrMin= 9.78D-03
 ErrMax= 9.78D-03  0.00D+00 EMaxC= 1.00D-01 BMatC= 1.82D-01 BMatP= 1.82D-01
 IDIUse=3 WtCom= 9.02D-01 WtEn= 9.78D-02
 Coeff-Com:  0.100D+01
 Coeff-En:   0.100D+01
 Coeff:      0.100D+01
 Gap=     0.041 Goal=   None    Shift=    0.000
 Gap=     0.047 Goal=   None    Shift=    0.000
 GapD=    0.041 DampG=0.250 DampE=1.000 DampFc=0.2500 IDamp=-1.
 Damping current iteration by 2.50D-01
 RMSDP=3.51D-02 MaxDP=4.96D+00              OVMax= 1.51D-01

 Cycle   2  Pass 1  IDiag  1:
 E= -1136.10053981730     Delta-E=       -0.008481313550 Rises=F Damp=T
 DIIS: error= 6.79D-03 at cycle   2 NSaved=   2.
 NSaved= 2 IEnMin= 2 EnMin= -1136.10053981730     IErMin= 2 ErrMin= 6.79D-03
 ErrMax= 6.79D-03  0.00D+00 EMaxC= 1.00D-01 BMatC= 7.09D-02 BMatP= 1.82D-01
 IDIUse=3 WtCom= 9.32D-01 WtEn= 6.79D-02
 Coeff-Com: -0.132D+01 0.232D+01
 Coeff-En:   0.000D+00 0.100D+01
 Coeff:     -0.123D+01 0.223D+01
 Gap=     0.047 Goal=   None    Shift=    0.000
 Gap=     0.048 Goal=   None    Shift=    0.000
 RMSDP=2.07D-02 MaxDP=2.82D+00 DE=-8.48D-03 OVMax= 1.06D-01

 Cycle   3  Pass 1  IDiag  1:
 E= -1136.11731641299     Delta-E=       -0.016776595686 Rises=F Damp=F
 DIIS: error= 1.65D-03 at cycle   3 NSaved=   3.
 NSaved= 3 IEnMin= 3 EnMin= -1136.11731641299     IErMin= 3 ErrMin= 1.65D-03
 ErrMax= 1.65D-03  0.00D+00 EMaxC= 1.00D-01 BMatC= 9.04D-04 BMatP= 7.09D-02
 IDIUse=3 WtCom= 9.83D-01 WtEn= 1.65D-02
 Coeff-Com: -0.102D+00 0.171D+00 0.931D+00
 Coeff-En:   0.000D+00 0.000D+00 0.100D+01
 Coeff:     -0.100D+00 0.168D+00 0.932D+00
 Gap=     0.047 Goal=   None    Shift=    0.000
 Gap=     0.049 Goal=   None    Shift=    0.000
 RMSDP=6.14D-03 MaxDP=7.72D-01 DE=-1.68D-02 OVMax= 7.71D-02

 Cycle   4  Pass 1  IDiag  1:
 E= -1136.11664342471     Delta-E=        0.000672988282 Rises=F Damp=F
 DIIS: error= 1.86D-03 at cycle   4 NSaved=   4.
 NSaved= 4 IEnMin= 3 EnMin= -1136.11731641299     IErMin= 3 ErrMin= 1.65D-03
 ErrMax= 1.86D-03  0.00D+00 EMaxC= 1.00D-01 BMatC= 1.54D-03 BMatP= 9.04D-04
 IDIUse=3 WtCom= 1.88D-01 WtEn= 8.12D-01
 Coeff-Com: -0.868D-02 0.113D-01 0.568D+00 0.429D+00
 Coeff-En:   0.000D+00 0.000D+00 0.604D+00 0.396D+00
 Coeff:     -0.163D-02 0.212D-02 0.597D+00 0.402D+00
 Gap=     0.047 Goal=   None    Shift=    0.000
 Gap=     0.049 Goal=   None    Shift=    0.000
 RMSDP=2.56D-03 MaxDP=3.00D-01 DE= 6.73D-04 OVMax= 4.32D-02

 Cycle   5  Pass 1  IDiag  1:
 E= -1136.11842571291     Delta-E=       -0.001782288201 Rises=F Damp=F
 DIIS: error= 1.34D-04 at cycle   5 NSaved=   5.
 NSaved= 5 IEnMin= 5 EnMin= -1136.11842571291     IErMin= 5 ErrMin= 1.34D-04
 ErrMax= 1.34D-04  0.00D+00 EMaxC= 1.00D-01 BMatC= 1.46D-05 BMatP= 9.04D-04
 IDIUse=3 WtCom= 9.99D-01 WtEn= 1.34D-03
 Coeff-Com:  0.512D-02-0.799D-02 0.125D+00 0.451D-01 0.833D+00
 Coeff-En:   0.000D+00 0.000D+00 0.000D+00 0.000D+00 0.100D+01
 Coeff:      0.511D-02-0.798D-02 0.125D+00 0.450D-01 0.833D+00
 Gap=     0.047 Goal=   None    Shift=    0.000
 Gap=     0.049 Goal=   None    Shift=    0.000
 RMSDP=4.62D-04 MaxDP=3.95D-02 DE=-1.78D-03 OVMax= 7.11D-03

 Cycle   6  Pass 1  IDiag  1:
 E= -1136.11845051509     Delta-E=       -0.000024802177 Rises=F Damp=F
 DIIS: error= 6.58D-05 at cycle   6 NSaved=   6.
 NSaved= 6 IEnMin= 6 EnMin= -1136.11845051509     IErMin= 6 ErrMin= 6.58D-05
 ErrMax= 6.58D-05  0.00D+00 EMaxC= 1.00D-01 BMatC= 2.78D-06 BMatP= 1.46D-05
 IDIUse=1 WtCom= 1.00D+00 WtEn= 0.00D+00
 Coeff-Com:  0.210D-02-0.323D-02-0.862D-01-0.775D-01 0.237D+00 0.928D+00
 Coeff:      0.210D-02-0.323D-02-0.862D-01-0.775D-01 0.237D+00 0.928D+00
 Gap=     0.047 Goal=   None    Shift=    0.000
 Gap=     0.049 Goal=   None    Shift=    0.000
 RMSDP=4.06D-04 MaxDP=3.96D-02 DE=-2.48D-05 OVMax= 4.53D-03

 Cycle   7  Pass 1  IDiag  1:
 E= -1136.11845915227     Delta-E=       -0.000008637184 Rises=F Damp=F
 DIIS: error= 3.86D-05 at cycle   7 NSaved=   7.
 NSaved= 7 IEnMin= 7 EnMin= -1136.11845915227     IErMin= 7 ErrMin= 3.86D-05
 ErrMax= 3.86D-05  0.00D+00 EMaxC= 1.00D-01 BMatC= 7.44D-07 BMatP= 2.78D-06
 IDIUse=1 WtCom= 1.00D+00 WtEn= 0.00D+00
 Coeff-Com:  0.161D-03-0.160D-03-0.647D-01-0.453D-01-0.303D-01 0.382D+00
 Coeff-Com:  0.758D+00
 Coeff:      0.161D-03-0.160D-03-0.647D-01-0.453D-01-0.303D-01 0.382D+00
 Coeff:      0.758D+00
 Gap=     0.047 Goal=   None    Shift=    0.000
 Gap=     0.049 Goal=   None    Shift=    0.000
 RMSDP=2.26D-04 MaxDP=2.72D-02 DE=-8.64D-06 OVMax= 2.40D-03

 Cycle   8  Pass 1  IDiag  1:
 E= -1136.11846132434     Delta-E=       -0.000002172071 Rises=F Damp=F
 DIIS: error= 1.55D-05 at cycle   8 NSaved=   8.
 NSaved= 8 IEnMin= 8 EnMin= -1136.11846132434     IErMin= 8 ErrMin= 1.55D-05
 ErrMax= 1.55D-05  0.00D+00 EMaxC= 1.00D-01 BMatC= 1.44D-07 BMatP= 7.44D-07
 IDIUse=1 WtCom= 1.00D+00 WtEn= 0.00D+00
 Coeff-Com:  0.334D-03-0.347D-03-0.687D-02-0.131D-02-0.469D-01-0.717D-01
 Coeff-Com:  0.251D+00 0.876D+00
 Coeff:      0.334D-03-0.347D-03-0.687D-02-0.131D-02-0.469D-01-0.717D-01
 Coeff:      0.251D+00 0.876D+00
 Gap=     0.047 Goal=   None    Shift=    0.000
 Gap=     0.049 Goal=   None    Shift=    0.000
 RMSDP=1.01D-04 MaxDP=1.00D-02 DE=-2.17D-06 OVMax= 1.20D-03

 Cycle   9  Pass 1  IDiag  1:
 E= -1136.11846189602     Delta-E=       -0.000000571678 Rises=F Damp=F
 DIIS: error= 8.77D-06 at cycle   9 NSaved=   9.
 NSaved= 9 IEnMin= 9 EnMin= -1136.11846189602     IErMin= 9 ErrMin= 8.77D-06
 ErrMax= 8.77D-06  0.00D+00 EMaxC= 1.00D-01 BMatC= 2.69D-08 BMatP= 1.44D-07
 IDIUse=1 WtCom= 1.00D+00 WtEn= 0.00D+00
 Coeff-Com:  0.172D-03-0.203D-03 0.945D-02 0.814D-02-0.388D-02-0.876D-01
 Coeff-Com: -0.975D-01 0.225D+00 0.946D+00
 Coeff:      0.172D-03-0.203D-03 0.945D-02 0.814D-02-0.388D-02-0.876D-01
 Coeff:     -0.975D-01 0.225D+00 0.946D+00
 Gap=     0.047 Goal=   None    Shift=    0.000
 Gap=     0.049 Goal=   None    Shift=    0.000
 RMSDP=4.43D-05 MaxDP=4.03D-03 DE=-5.72D-07 OVMax= 8.41D-04

 Cycle  10  Pass 1  IDiag  1:
 E= -1136.11846203614     Delta-E=       -0.000000140126 Rises=F Damp=F
 DIIS: error= 4.04D-06 at cycle  10 NSaved=  10.
 NSaved=10 IEnMin=10 EnMin= -1136.11846203614     IErMin=10 ErrMin= 4.04D-06
 ErrMax= 4.04D-06  0.00D+00 EMaxC= 1.00D-01 BMatC= 7.84D-09 BMatP= 2.69D-08
 IDIUse=1 WtCom= 1.00D+00 WtEn= 0.00D+00
 Coeff-Com: -0.917D-04 0.112D-03 0.482D-02 0.331D-02 0.108D-01-0.161D-01
 Coeff-Com: -0.982D-01-0.105D+00 0.362D+00 0.839D+00
 Coeff:     -0.917D-04 0.112D-03 0.482D-02 0.331D-02 0.108D-01-0.161D-01
 Coeff:     -0.982D-01-0.105D+00 0.362D+00 0.839D+00
 Gap=     0.047 Goal=   None    Shift=    0.000
 Gap=     0.049 Goal=   None    Shift=    0.000
 RMSDP=1.76D-05 MaxDP=1.03D-03 DE=-1.40D-07 OVMax= 3.47D-04

 Cycle  11  Pass 1  IDiag  1:
 E= -1136.11846206858     Delta-E=       -0.000000032432 Rises=F Damp=F
 DIIS: error= 2.33D-06 at cycle  11 NSaved=  11.
 NSaved=11 IEnMin=11 EnMin= -1136.11846206858     IErMin=11 ErrMin= 2.33D-06
 ErrMax= 2.33D-06  0.00D+00 EMaxC= 1.00D-01 BMatC= 2.02D-09 BMatP= 7.84D-09
 IDIUse=1 WtCom= 1.00D+00 WtEn= 0.00D+00
 Coeff-Com: -0.120D-03 0.148D-03-0.429D-03-0.768D-03 0.802D-02 0.152D-01
 Coeff-Com: -0.230D-01-0.113D+00-0.905D-01 0.389D+00 0.815D+00
 Coeff:     -0.120D-03 0.148D-03-0.429D-03-0.768D-03 0.802D-02 0.152D-01
 Coeff:     -0.230D-01-0.113D+00-0.905D-01 0.389D+00 0.815D+00
 Gap=     0.047 Goal=   None    Shift=    0.000
 Gap=     0.049 Goal=   None    Shift=    0.000
 RMSDP=9.34D-06 MaxDP=6.15D-04 DE=-3.24D-08 OVMax= 2.35D-04

 Cycle  12  Pass 1  IDiag  1:
 E= -1136.11846207671     Delta-E=       -0.000000008134 Rises=F Damp=F
 DIIS: error= 6.86D-07 at cycle  12 NSaved=  12.
 NSaved=12 IEnMin=12 EnMin= -1136.11846207671     IErMin=12 ErrMin= 6.86D-07
 ErrMax= 6.86D-07  0.00D+00 EMaxC= 1.00D-01 BMatC= 2.14D-10 BMatP= 2.02D-09
 IDIUse=1 WtCom= 1.00D+00 WtEn= 0.00D+00
 Coeff-Com:  0.218D-04-0.298D-04-0.696D-03-0.468D-03 0.125D-03 0.212D-02
 Coeff-Com:  0.104D-01 0.271D-02-0.537D-01-0.840D-01 0.108D+00 0.102D+01
 Coeff:      0.218D-04-0.298D-04-0.696D-03-0.468D-03 0.125D-03 0.212D-02
 Coeff:      0.104D-01 0.271D-02-0.537D-01-0.840D-01 0.108D+00 0.102D+01
 Gap=     0.047 Goal=   None    Shift=    0.000
 Gap=     0.049 Goal=   None    Shift=    0.000
 RMSDP=3.49D-06 MaxDP=2.71D-04 DE=-8.13D-09 OVMax= 8.72D-05

 Cycle  13  Pass 1  IDiag  1:
 E= -1136.11846207795     Delta-E=       -0.000000001242 Rises=F Damp=F
 DIIS: error= 4.06D-07 at cycle  13 NSaved=  13.
 NSaved=13 IEnMin=13 EnMin= -1136.11846207795     IErMin=13 ErrMin= 4.06D-07
 ErrMax= 4.06D-07  0.00D+00 EMaxC= 1.00D-01 BMatC= 4.99D-11 BMatP= 2.14D-10
 IDIUse=1 WtCom= 1.00D+00 WtEn= 0.00D+00
 Coeff-Com:  0.412D-04-0.523D-04-0.240D-04 0.119D-03-0.161D-02-0.290D-02
 Coeff-Com:  0.530D-02 0.230D-01 0.268D-01-0.104D+00-0.200D+00 0.106D+00
 Coeff-Com:  0.115D+01
 Coeff:      0.412D-04-0.523D-04-0.240D-04 0.119D-03-0.161D-02-0.290D-02
 Coeff:      0.530D-02 0.230D-01 0.268D-01-0.104D+00-0.200D+00 0.106D+00
 Coeff:      0.115D+01
 Gap=     0.047 Goal=   None    Shift=    0.000
 Gap=     0.049 Goal=   None    Shift=    0.000
 RMSDP=2.91D-06 MaxDP=3.34D-04 DE=-1.24D-09 OVMax= 4.19D-05

 Cycle  14  Pass 1  IDiag  1:
 E= -1136.11846207832     Delta-E=       -0.000000000369 Rises=F Damp=F
 DIIS: error= 1.41D-07 at cycle  14 NSaved=  14.
 NSaved=14 IEnMin=14 EnMin= -1136.11846207832     IErMin=14 ErrMin= 1.41D-07
 ErrMax= 1.41D-07  0.00D+00 EMaxC= 1.00D-01 BMatC= 7.25D-12 BMatP= 4.99D-11
 IDIUse=1 WtCom= 1.00D+00 WtEn= 0.00D+00
 Coeff-Com: -0.169D-04 0.223D-04 0.112D-03 0.323D-04 0.464D-03 0.290D-03
 Coeff-Com: -0.327D-02-0.492D-02 0.187D-02 0.419D-01 0.267D-01-0.223D+00
 Coeff-Com: -0.217D+00 0.138D+01
 Coeff:     -0.169D-04 0.223D-04 0.112D-03 0.323D-04 0.464D-03 0.290D-03
 Coeff:     -0.327D-02-0.492D-02 0.187D-02 0.419D-01 0.267D-01-0.223D+00
 Coeff:     -0.217D+00 0.138D+01
 Gap=     0.047 Goal=   None    Shift=    0.000
 Gap=     0.049 Goal=   None    Shift=    0.000
 RMSDP=1.36D-06 MaxDP=1.38D-04 DE=-3.69D-10 OVMax= 2.06D-05

 Cycle  15  Pass 1  IDiag  1:
 E= -1136.11846207839     Delta-E=       -0.000000000065 Rises=F Damp=F
 DIIS: error= 5.26D-08 at cycle  15 NSaved=  15.
 NSaved=15 IEnMin=15 EnMin= -1136.11846207839     IErMin=15 ErrMin= 5.26D-08
 ErrMax= 5.26D-08  0.00D+00 EMaxC= 1.00D-01 BMatC= 1.55D-12 BMatP= 7.25D-12
 IDIUse=1 WtCom= 1.00D+00 WtEn= 0.00D+00
 Coeff-Com: -0.113D-04 0.147D-04 0.364D-04-0.230D-05 0.312D-03 0.582D-03
 Coeff-Com: -0.175D-02-0.472D-02-0.183D-02 0.251D-01 0.304D-01-0.788D-01
 Coeff-Com: -0.229D+00 0.413D+00 0.847D+00
 Coeff:     -0.113D-04 0.147D-04 0.364D-04-0.230D-05 0.312D-03 0.582D-03
 Coeff:     -0.175D-02-0.472D-02-0.183D-02 0.251D-01 0.304D-01-0.788D-01
 Coeff:     -0.229D+00 0.413D+00 0.847D+00
 Gap=     0.047 Goal=   None    Shift=    0.000
 Gap=     0.049 Goal=   None    Shift=    0.000
 RMSDP=4.04D-07 MaxDP=4.54D-05 DE=-6.50D-11 OVMax= 5.55D-06

 Cycle  16  Pass 1  IDiag  1:
 E= -1136.11846207839     Delta-E=       -0.000000000006 Rises=F Damp=F
 DIIS: error= 2.35D-08 at cycle  16 NSaved=  16.
 NSaved=16 IEnMin=16 EnMin= -1136.11846207839     IErMin=16 ErrMin= 2.35D-08
 ErrMax= 2.35D-08  0.00D+00 EMaxC= 1.00D-01 BMatC= 2.68D-13 BMatP= 1.55D-12
 IDIUse=1 WtCom= 1.00D+00 WtEn= 0.00D+00
 Coeff-Com:  0.365D-05-0.483D-05-0.180D-04-0.721D-05-0.810D-04-0.948D-04
 Coeff-Com:  0.651D-03 0.105D-02-0.102D-02-0.680D-02-0.306D-02 0.386D-01
 Coeff-Com:  0.394D-01-0.255D+00 0.298D-01 0.116D+01
 Coeff:      0.365D-05-0.483D-05-0.180D-04-0.721D-05-0.810D-04-0.948D-04
 Coeff:      0.651D-03 0.105D-02-0.102D-02-0.680D-02-0.306D-02 0.386D-01
 Coeff:      0.394D-01-0.255D+00 0.298D-01 0.116D+01
 Gap=     0.047 Goal=   None    Shift=    0.000
 Gap=     0.049 Goal=   None    Shift=    0.000
 RMSDP=1.19D-07 MaxDP=7.40D-06 DE=-5.91D-12 OVMax= 2.50D-06

 Cycle  17  Pass 1  IDiag  1:
 E= -1136.11846207839     Delta-E=        0.000000000006 Rises=F Damp=F
 DIIS: error= 1.21D-08 at cycle  17 NSaved=  17.
 NSaved=17 IEnMin=16 EnMin= -1136.11846207839     IErMin=17 ErrMin= 1.21D-08
 ErrMax= 1.21D-08  0.00D+00 EMaxC= 1.00D-01 BMatC= 5.17D-14 BMatP= 2.68D-13
 IDIUse=1 WtCom= 1.00D+00 WtEn= 0.00D+00
 Coeff-Com:  0.170D-05-0.222D-05-0.814D-05-0.534D-06-0.565D-04-0.692D-04
 Coeff-Com:  0.299D-03 0.732D-03 0.170D-03-0.421D-02-0.465D-02 0.156D-01
 Coeff-Com:  0.345D-01-0.732D-01-0.134D+00-0.529D-01 0.122D+01
 Coeff:      0.170D-05-0.222D-05-0.814D-05-0.534D-06-0.565D-04-0.692D-04
 Coeff:      0.299D-03 0.732D-03 0.170D-03-0.421D-02-0.465D-02 0.156D-01
 Coeff:      0.345D-01-0.732D-01-0.134D+00-0.529D-01 0.122D+01
 Gap=     0.047 Goal=   None    Shift=    0.000
 Gap=     0.049 Goal=   None    Shift=    0.000
 RMSDP=5.90D-08 MaxDP=3.59D-06 DE= 5.91D-12 OVMax= 1.47D-06

 Cycle  18  Pass 1  IDiag  1:
 E= -1136.11846207840     Delta-E=       -0.000000000014 Rises=F Damp=F
 DIIS: error= 8.80D-09 at cycle  18 NSaved=  18.
 NSaved=18 IEnMin=18 EnMin= -1136.11846207840     IErMin=18 ErrMin= 8.80D-09
 ErrMax= 8.80D-09  0.00D+00 EMaxC= 1.00D-01 BMatC= 1.50D-14 BMatP= 5.17D-14
 IDIUse=1 WtCom= 1.00D+00 WtEn= 0.00D+00
 Coeff-Com: -0.270D-06 0.369D-06 0.222D-05 0.192D-05-0.437D-05-0.642D-05
 Coeff-Com: -0.351D-04 0.388D-05 0.388D-03-0.821D-04-0.972D-03-0.416D-02
 Coeff-Com:  0.352D-02 0.344D-01-0.490D-01-0.279D+00 0.333D+00 0.962D+00
 Coeff:     -0.270D-06 0.369D-06 0.222D-05 0.192D-05-0.437D-05-0.642D-05
 Coeff:     -0.351D-04 0.388D-05 0.388D-03-0.821D-04-0.972D-03-0.416D-02
 Coeff:      0.352D-02 0.344D-01-0.490D-01-0.279D+00 0.333D+00 0.962D+00
 Gap=     0.047 Goal=   None    Shift=    0.000
 Gap=     0.049 Goal=   None    Shift=    0.000
 RMSDP=2.84D-08 MaxDP=1.35D-06 DE=-1.43D-11 OVMax= 6.75D-07

 Cycle  19  Pass 1  IDiag  1:
 E= -1136.11846207840     Delta-E=        0.000000000000 Rises=F Damp=F
 DIIS: error= 2.92D-09 at cycle  19 NSaved=  19.
 NSaved=19 IEnMin=18 EnMin= -1136.11846207840     IErMin=19 ErrMin= 2.92D-09
 ErrMax= 2.92D-09  0.00D+00 EMaxC= 1.00D-01 BMatC= 2.57D-15 BMatP= 1.50D-14
 IDIUse=1 WtCom= 1.00D+00 WtEn= 0.00D+00
 Large coefficients: NSaved= 19 BigCof=    0.00 CofMax=   10.00 Det=-4.88D-15
 Inversion failed.  Reducing to 18 matrices.
 Large coefficients: NSaved= 18 BigCof=    0.00 CofMax=   10.00 Det=-4.90D-15
 Inversion failed.  Reducing to 17 matrices.
 Large coefficients: NSaved= 17 BigCof=    0.00 CofMax=   10.00 Det=-4.91D-15
 Inversion failed.  Reducing to 16 matrices.
 Large coefficients: NSaved= 16 BigCof=    0.00 CofMax=   10.00 Det=-5.03D-15
 Inversion failed.  Reducing to 15 matrices.
 Coeff-Com: -0.136D-05-0.112D-05 0.281D-06 0.275D-04-0.494D-04 0.103D-03
 Coeff-Com:  0.257D-04-0.624D-03-0.124D-02 0.171D-02 0.199D-01 0.170D-01
 Coeff-Com: -0.200D+00-0.260D-01 0.119D+01
 Coeff:     -0.136D-05-0.112D-05 0.281D-06 0.275D-04-0.494D-04 0.103D-03
 Coeff:      0.257D-04-0.624D-03-0.124D-02 0.171D-02 0.199D-01 0.170D-01
 Coeff:     -0.200D+00-0.260D-01 0.119D+01
 Gap=     0.047 Goal=   None    Shift=    0.000
 Gap=     0.049 Goal=   None    Shift=    0.000
 RMSDP=1.81D-08 MaxDP=1.23D-06 DE= 2.27D-13 OVMax= 3.00D-07

 Cycle  20  Pass 1  IDiag  1:
 E= -1136.11846207840     Delta-E=        0.000000000002 Rises=F Damp=F
 DIIS: error= 1.18D-09 at cycle  20 NSaved=  16.
 NSaved=16 IEnMin=14 EnMin= -1136.11846207840     IErMin=16 ErrMin= 1.18D-09
 ErrMax= 1.18D-09  0.00D+00 EMaxC= 1.00D-01 BMatC= 5.18D-16 BMatP= 2.57D-15
 IDIUse=1 WtCom= 1.00D+00 WtEn= 0.00D+00
 Large coefficients: NSaved= 16 BigCof=    0.00 CofMax=   10.00 Det=-9.65D-16
 Inversion failed.  Reducing to 15 matrices.
 Coeff-Com:  0.208D-05 0.162D-05-0.143D-04-0.777D-04 0.107D-03 0.298D-03
 Coeff-Com:  0.350D-03-0.168D-02-0.628D-02 0.172D-01 0.694D-01-0.112D+00
 Coeff-Com: -0.245D+00 0.125D+00 0.115D+01
 Coeff:      0.208D-05 0.162D-05-0.143D-04-0.777D-04 0.107D-03 0.298D-03
 Coeff:      0.350D-03-0.168D-02-0.628D-02 0.172D-01 0.694D-01-0.112D+00
 Coeff:     -0.245D+00 0.125D+00 0.115D+01
 Gap=     0.047 Goal=   None    Shift=    0.000
 Gap=     0.049 Goal=   None    Shift=    0.000
 RMSDP=1.15D-08 MaxDP=7.71D-07 DE= 1.82D-12 OVMax= 1.39D-07

 Cycle  21  Pass 1  IDiag  1:
 E= -1136.11846207839     Delta-E=        0.000000000006 Rises=F Damp=F
 DIIS: error= 3.50D-10 at cycle  21 NSaved=  16.
 NSaved=16 IEnMin=13 EnMin= -1136.11846207840     IErMin=16 ErrMin= 3.50D-10
 ErrMax= 3.50D-10  0.00D+00 EMaxC= 1.00D-01 BMatC= 5.19D-17 BMatP= 5.18D-16
 IDIUse=1 WtCom= 1.00D+00 WtEn= 0.00D+00
 Large coefficients: NSaved= 16 BigCof=    0.00 CofMax=   10.00 Det=-1.04D-16
 Inversion failed.  Reducing to 15 matrices.
 Coeff-Com:  0.265D-05-0.110D-05 0.103D-04-0.470D-04 0.145D-04 0.324D-03
 Coeff-Com:  0.248D-03-0.916D-03-0.273D-02-0.387D-02 0.279D-01 0.798D-02
 Coeff-Com: -0.145D+00-0.158D-01 0.113D+01
 Coeff:      0.265D-05-0.110D-05 0.103D-04-0.470D-04 0.145D-04 0.324D-03
 Coeff:      0.248D-03-0.916D-03-0.273D-02-0.387D-02 0.279D-01 0.798D-02
 Coeff:     -0.145D+00-0.158D-01 0.113D+01
 Gap=     0.047 Goal=   None    Shift=    0.000
 Gap=     0.049 Goal=   None    Shift=    0.000
 RMSDP=2.73D-09 MaxDP=2.32D-07 DE= 5.91D-12 OVMax= 4.23D-08

 SCF Done:  E(UB3LYP) =  -1136.11846208     A.U. after   21 cycles
            NFock= 21  Conv=0.27D-08     -V/T= 2.0028
 <Sx>= 0.0000 <Sy>= 0.0000 <Sz>= 0.5000 <S**2>= 0.7749 S= 0.5124
 <L.S>= 0.000000000000E+00
 KE= 1.132939047024D+03 PE=-3.284522102066D+03 EE= 7.378006443012D+02
 Annihilation of the first spin contaminant:
 S**2 before annihilation     0.7749,   after     0.7504
 Leave Link  502 at Tue Nov 28 21:44:29 2023, MaxMem=  1879048192 cpu:             170.3 elap:              15.8
 (Enter /home/sekinelabo/g16/l601.exe)
 Copying SCF densities to generalized density rwf, IOpCl= 1 IROHF=0.

 **********************************************************************

            Population analysis using the SCF Density.

 **********************************************************************

 Orbital symmetries:
 Alpha Orbitals:
       Occupied  (A) (A) (A) (A) (A) (A) (A) (A) (A) (A) (A) (A)
                 (A) (A) (A) (A) (A) (A) (A) (A) (A) (A) (A) (A)
                 (A) (A) (A) (A) (A) (A) (A) (A) (A) (A) (A) (A)
                 (A) (A) (A)
       Virtual   (A) (A) (A) (A) (A) (A) (A) (A) (A) (A) (A) (A)
                 (A) (A) (A) (A) (A) (A) (A) (A) (A) (A) (A) (A)
                 (A) (A) (A) (A) (A) (A) (A) (A) (A) (A) (A) (A)
                 (A) (A) (A) (A) (A) (A) (A) (A) (A) (A) (A) (A)
                 (A) (A) (A) (A) (A) (A) (A) (A) (A) (A) (A) (A)
                 (A) (A) (A) (A) (A) (A) (A) (A) (A) (A) (A) (A)
                 (A) (A) (A) (A) (A) (A) (A) (A) (A) (A) (A) (A)
                 (A) (A) (A) (A) (A) (A) (A) (A) (A) (A) (A) (A)
                 (A) (A) (A) (A) (A) (A) (A) (A) (A) (A) (A) (A)
                 (A) (A) (A) (A) (A) (A) (A) (A) (A) (A) (A) (A)
                 (A) (A) (A) (A) (A) (A) (A) (A) (A) (A) (A) (A)
                 (A) (A) (A) (A) (A) (A) (A) (A) (A) (A) (A) (A)
                 (A) (A) (A) (A) (A) (A) (A) (A) (A) (A) (A) (A)
                 (A) (A) (A) (A) (A) (A) (A) (A) (A) (A) (A) (A)
                 (A) (A) (A)
 Beta  Orbitals:
       Occupied  (A) (A) (A) (A) (A) (A) (A) (A) (A) (A) (A) (A)
                 (A) (A) (A) (A) (A) (A) (A) (A) (A) (A) (A) (A)
                 (A) (A) (A) (A) (A) (A) (A) (A) (A) (A) (A) (A)
                 (A) (A)
       Virtual   (A) (A) (A) (A) (A) (A) (A) (A) (A) (A) (A) (A)
                 (A) (A) (A) (A) (A) (A) (A) (A) (A) (A) (A) (A)
                 (A) (A) (A) (A) (A) (A) (A) (A) (A) (A) (A) (A)
                 (A) (A) (A) (A) (A) (A) (A) (A) (A) (A) (A) (A)
                 (A) (A) (A) (A) (A) (A) (A) (A) (A) (A) (A) (A)
                 (A) (A) (A) (A) (A) (A) (A) (A) (A) (A) (A) (A)
                 (A) (A) (A) (A) (A) (A) (A) (A) (A) (A) (A) (A)
                 (A) (A) (A) (A) (A) (A) (A) (A) (A) (A) (A) (A)
                 (A) (A) (A) (A) (A) (A) (A) (A) (A) (A) (A) (A)
                 (A) (A) (A) (A) (A) (A) (A) (A) (A) (A) (A) (A)
                 (A) (A) (A) (A) (A) (A) (A) (A) (A) (A) (A) (A)
                 (A) (A) (A) (A) (A) (A) (A) (A) (A) (A) (A) (A)
                 (A) (A) (A) (A) (A) (A) (A) (A) (A) (A) (A) (A)
                 (A) (A) (A) (A) (A) (A) (A) (A) (A) (A) (A) (A)
                 (A) (A) (A) (A)
 The electronic state is 2-A.
 Alpha  occ. eigenvalues --  -38.44770 -38.44552 -38.44536 -38.44021 -38.43861
 Alpha  occ. eigenvalues --  -38.43680 -38.43311  -2.20658  -2.20422  -2.20383
 Alpha  occ. eigenvalues --   -2.19883  -2.19755  -2.19491  -2.19101  -1.14381
 Alpha  occ. eigenvalues --   -1.14353  -1.14268  -1.14106  -1.14093  -1.14069
 Alpha  occ. eigenvalues --   -1.14032  -1.14026  -1.13958  -1.13704  -1.13520
 Alpha  occ. eigenvalues --   -1.13505  -1.13416  -1.13411  -1.13304  -1.13165
 Alpha  occ. eigenvalues --   -1.13129  -1.13128  -1.12777  -1.12775  -1.12736
 Alpha  occ. eigenvalues --   -0.17390  -0.13615  -0.12900  -0.10917
 Alpha virt. eigenvalues --   -0.06189  -0.05513  -0.04349  -0.04248  -0.02565
 Alpha virt. eigenvalues --   -0.02273  -0.01939  -0.01804  -0.01343  -0.00722
 Alpha virt. eigenvalues --   -0.00279  -0.00082   0.00134   0.00379   0.00681
 Alpha virt. eigenvalues --    0.00733   0.00857   0.00940   0.01201   0.01316
 Alpha virt. eigenvalues --    0.01437   0.01495   0.01587   0.01681   0.01778
 Alpha virt. eigenvalues --    0.01879   0.02113   0.02125   0.02243   0.02374
 Alpha virt. eigenvalues --    0.02459   0.02525   0.02700   0.02999   0.03097
 Alpha virt. eigenvalues --    0.03226   0.03392   0.03465   0.03621   0.03661
 Alpha virt. eigenvalues --    0.03860   0.03937   0.03988   0.04238   0.04558
 Alpha virt. eigenvalues --    0.04764   0.04924   0.04974   0.05108   0.05298
 Alpha virt. eigenvalues --    0.05845   0.06449   0.06707   0.06896   0.07390
 Alpha virt. eigenvalues --    0.07650   0.07827   0.08085   0.08361   0.08554
 Alpha virt. eigenvalues --    0.08979   0.09204   0.09464   0.09688   0.10235
 Alpha virt. eigenvalues --    0.10589   0.10853   0.11065   0.11583   0.11906
 Alpha virt. eigenvalues --    0.12376   0.13103   0.13235   0.13762   0.14198
 Alpha virt. eigenvalues --    0.14381   0.15157   0.15519   0.17292   0.18052
 Alpha virt. eigenvalues --    0.26480   0.27336   0.27473   0.28851   0.29045
 Alpha virt. eigenvalues --    0.30566   0.30812   0.31700   0.32494   0.32621
 Alpha virt. eigenvalues --    0.32946   0.34191   0.34412   0.35357   0.37123
 Alpha virt. eigenvalues --    0.37437   0.38415   0.38965   0.39285   0.40255
 Alpha virt. eigenvalues --    0.41383   0.42071   0.42787   0.43162   0.43564
 Alpha virt. eigenvalues --    0.43678   0.43906   0.44026   0.44290   0.44400
 Alpha virt. eigenvalues --    0.44857   0.45252   0.45493   0.45716   0.46095
 Alpha virt. eigenvalues --    0.46587   0.46839   0.47428   0.47988   0.48303
 Alpha virt. eigenvalues --    0.49244   0.49341   0.49900   0.50681   0.51152
 Alpha virt. eigenvalues --    0.52271   0.53090   0.53650   0.54048   0.55958
 Alpha virt. eigenvalues --    0.58804   0.63207   0.64191   0.66234   0.69672
 Alpha virt. eigenvalues --    0.76867   2.02968   2.07667   2.12194   2.15915
 Alpha virt. eigenvalues --    2.16197   2.18949   2.19545   4.41736   4.43349
 Alpha virt. eigenvalues --    4.43632   4.43958   4.44328   4.44356   4.44849
 Alpha virt. eigenvalues --    4.44900   4.45345   4.45636   4.45873   4.46884
 Alpha virt. eigenvalues --    4.47473   4.47555   4.48288   4.49565   4.51736
 Alpha virt. eigenvalues --    4.58625   4.60394   4.63599   4.71843  96.22188
 Alpha virt. eigenvalues --   96.27977  96.33854  96.38538  96.39464  96.42245
 Alpha virt. eigenvalues --   96.42794
  Beta  occ. eigenvalues --  -38.44744 -38.44518 -38.44501 -38.44000 -38.43835
  Beta  occ. eigenvalues --  -38.43628 -38.43319  -2.20612  -2.20350  -2.20329
  Beta  occ. eigenvalues --   -2.19844  -2.19711  -2.19394  -2.19122  -1.14333
  Beta  occ. eigenvalues --   -1.14323  -1.14232  -1.14045  -1.14040  -1.14021
  Beta  occ. eigenvalues --   -1.14007  -1.13994  -1.13895  -1.13673  -1.13492
  Beta  occ. eigenvalues --   -1.13473  -1.13391  -1.13379  -1.13256  -1.13106
  Beta  occ. eigenvalues --   -1.13063  -1.13062  -1.12796  -1.12795  -1.12708
  Beta  occ. eigenvalues --   -0.16766  -0.13375  -0.12397
  Beta virt. eigenvalues --   -0.07475  -0.06023  -0.04879  -0.04111  -0.03865
  Beta virt. eigenvalues --   -0.02470  -0.02028  -0.01666  -0.01472  -0.01189
  Beta virt. eigenvalues --   -0.00390   0.00026   0.00110   0.00341   0.00465
  Beta virt. eigenvalues --    0.00734   0.00813   0.00966   0.00994   0.01238
  Beta virt. eigenvalues --    0.01358   0.01508   0.01560   0.01632   0.01747
  Beta virt. eigenvalues --    0.01924   0.01959   0.02157   0.02225   0.02359
  Beta virt. eigenvalues --    0.02454   0.02531   0.02609   0.02775   0.03062
  Beta virt. eigenvalues --    0.03171   0.03267   0.03431   0.03506   0.03663
  Beta virt. eigenvalues --    0.03736   0.03945   0.03958   0.04085   0.04275
  Beta virt. eigenvalues --    0.04688   0.04852   0.04953   0.05096   0.05145
  Beta virt. eigenvalues --    0.05404   0.05949   0.06584   0.06770   0.06938
  Beta virt. eigenvalues --    0.07425   0.07744   0.08028   0.08271   0.08559
  Beta virt. eigenvalues --    0.08751   0.09172   0.09309   0.09612   0.09777
  Beta virt. eigenvalues --    0.10369   0.10663   0.11124   0.11181   0.11773
  Beta virt. eigenvalues --    0.11958   0.12635   0.13242   0.13351   0.13981
  Beta virt. eigenvalues --    0.14389   0.14583   0.15375   0.15636   0.17444
  Beta virt. eigenvalues --    0.18317   0.26714   0.27558   0.27740   0.29092
  Beta virt. eigenvalues --    0.29335   0.30754   0.31054   0.31877   0.32680
  Beta virt. eigenvalues --    0.32831   0.33255   0.34347   0.34685   0.35538
  Beta virt. eigenvalues --    0.37405   0.37676   0.38559   0.39078   0.39449
  Beta virt. eigenvalues --    0.40484   0.41505   0.42261   0.42916   0.43366
  Beta virt. eigenvalues --    0.43675   0.43772   0.44094   0.44152   0.44452
  Beta virt. eigenvalues --    0.44593   0.44956   0.45385   0.45531   0.45786
  Beta virt. eigenvalues --    0.46241   0.46625   0.46923   0.47457   0.48183
  Beta virt. eigenvalues --    0.48446   0.49328   0.49524   0.50049   0.50797
  Beta virt. eigenvalues --    0.51273   0.52435   0.53293   0.53755   0.54206
  Beta virt. eigenvalues --    0.56114   0.59084   0.63420   0.64342   0.66379
  Beta virt. eigenvalues --    0.69773   0.77010   2.03070   2.07772   2.12290
  Beta virt. eigenvalues --    2.15956   2.16317   2.19119   2.19639   4.41776
  Beta virt. eigenvalues --    4.43398   4.43675   4.44002   4.44357   4.44393
  Beta virt. eigenvalues --    4.44899   4.44953   4.45405   4.45704   4.45911
  Beta virt. eigenvalues --    4.46892   4.47482   4.47580   4.48283   4.49591
  Beta virt. eigenvalues --    4.51814   4.58665   4.60436   4.63637   4.71875
  Beta virt. eigenvalues --   96.22226  96.28014  96.33888  96.38560  96.39499
  Beta virt. eigenvalues --   96.42295  96.42826
          Condensed to atoms (all electrons):
               1          2          3          4          5          6
     1  Na  12.402855  -1.259855   0.769269  -1.061390   0.685249   0.456919
     2  Na  -1.259855  11.677410  -0.580239   0.951091  -0.134765  -0.602316
     3  Na   0.769269  -0.580239  11.080449  -0.571646   0.323964   0.237026
     4  Na  -1.061390   0.951091  -0.571646  15.598791  -3.981900  -1.447283
     5  Na   0.685249  -0.134765   0.323964  -3.981900  15.780390   0.539675
     6  Na   0.456919  -0.602316   0.237026  -1.447283   0.539675  12.071029
     7  Na  -0.078469  -0.213809   0.045129  -0.447810  -0.328533   0.278946
               7
     1  Na  -0.078469
     2  Na  -0.213809
     3  Na   0.045129
     4  Na  -0.447810
     5  Na  -0.328533
     6  Na   0.278946
     7  Na  11.230567
          Atomic-Atomic Spin Densities.
               1          2          3          4          5          6
     1  Na  -0.510590   0.484462  -0.001888   0.622829  -0.189884  -0.299025
     2  Na   0.484462  -0.263288  -0.016883  -0.155972   0.158473   0.061436
     3  Na  -0.001888  -0.016883   0.362153  -0.399334   0.225657   0.117631
     4  Na   0.622829  -0.155972  -0.399334  -0.330000   1.024442  -0.196676
     5  Na  -0.189884   0.158473   0.225657   1.024442  -0.772710  -0.278989
     6  Na  -0.299025   0.061436   0.117631  -0.196676  -0.278989   0.158704
     7  Na  -0.094402  -0.009762   0.043810  -0.180135  -0.150951   0.210381
               7
     1  Na  -0.094402
     2  Na  -0.009762
     3  Na   0.043810
     4  Na  -0.180135
     5  Na  -0.150951
     6  Na   0.210381
     7  Na   0.405291
 Mulliken charges and spin densities:
               1          2
     1  Na  -0.914579   0.011502
     2  Na   1.162482   0.258466
     3  Na  -0.303953   0.331147
     4  Na   1.960147   0.385153
     5  Na  -1.884079   0.016038
     6  Na  -0.533996  -0.226538
     7  Na   0.513979   0.224232
 Sum of Mulliken charges =  -0.00000   1.00000
 Mulliken charges and spin densities with hydrogens summed into heavy atoms:
               1          2
     1  Na  -0.914579   0.011502
     2  Na   1.162482   0.258466
     3  Na  -0.303953   0.331147
     4  Na   1.960147   0.385153
     5  Na  -1.884079   0.016038
     6  Na  -0.533996  -0.226538
     7  Na   0.513979   0.224232
 Electronic spatial extent (au):  <R**2>=           4790.9284
 Charge=             -0.0000 electrons
 Dipole moment (field-independent basis, Debye):
    X=             -2.5444    Y=             -0.1526    Z=              0.4515  Tot=              2.5886
 Quadrupole moment (field-independent basis, Debye-Ang):
   XX=            -60.7516   YY=            -62.0398   ZZ=            -71.8267
   XY=              5.9589   XZ=              0.2387   YZ=             -0.2747
 Traceless Quadrupole moment (field-independent basis, Debye-Ang):
   XX=              4.1211   YY=              2.8329   ZZ=             -6.9540
   XY=              5.9589   XZ=              0.2387   YZ=             -0.2747
 Octapole moment (field-independent basis, Debye-Ang**2):
  XXX=              1.2075  YYY=             16.3994  ZZZ=              0.3874  XYY=            -41.5808
  XXY=            -18.5629  XXZ=             29.5183  XZZ=            -16.1754  YZZ=             -0.7620
  YYZ=             13.3210  XYZ=              9.7973
 Hexadecapole moment (field-independent basis, Debye-Ang**3):
 XXXX=          -4826.0197 YYYY=          -1543.1430 ZZZZ=           -329.8632 XXXY=            244.9990
 XXXZ=             95.0080 YYYX=             60.0525 YYYZ=             25.2715 ZZZX=              1.4370
 ZZZY=             -3.0447 XXYY=          -1231.6445 XXZZ=          -1062.0609 YYZZ=           -346.1285
 XXYZ=            -62.5120 YYXZ=            -41.7616 ZZXY=             17.9959
 N-N= 2.776639486621D+02 E-N=-3.284522102080D+03  KE= 1.132939047024D+03
                          Isotropic Fermi Contact Couplings
        Atom                 a.u.       MegaHertz       Gauss      10(-4) cm-1
     1  Na(23)             0.18790     222.29550      79.32056      74.14980
     2  Na(23)             0.07052      83.43266      29.77085      27.83014
     3  Na(23)             0.07567      89.52378      31.94431      29.86192
     4  Na(23)             0.09304     110.06808      39.27503      36.71476
     5  Na(23)             0.06035      71.39174      25.47435      23.81372
     6  Na(23)            -0.09588    -113.42702     -40.47358     -37.83518
     7  Na(23)             0.22808     269.82710      96.28102      90.00463
 --------------------------------------------------------
       Center         ----  Spin Dipole Couplings  ----
                      3XX-RR        3YY-RR        3ZZ-RR
 --------------------------------------------------------
     1   Atom        0.019491     -0.006900     -0.012590
     2   Atom       -0.004796      0.008772     -0.003976
     3   Atom        0.015536     -0.003427     -0.012109
     4   Atom        0.004237     -0.003997     -0.000240
     5   Atom       -0.019515      0.038561     -0.019046
     6   Atom        0.045212     -0.023078     -0.022134
     7   Atom       -0.005005      0.002639      0.002365
 --------------------------------------------------------
                        XY            XZ            YZ
 --------------------------------------------------------
     1   Atom        0.016224     -0.003472     -0.001513
     2   Atom       -0.007315      0.002778     -0.002144
     3   Atom       -0.007527     -0.008870      0.003374
     4   Atom        0.005798      0.002080     -0.000928
     5   Atom       -0.014323     -0.001488      0.005748
     6   Atom        0.000132      0.007114      0.000014
     7   Atom       -0.000442     -0.001437     -0.000019
 --------------------------------------------------------


 ---------------------------------------------------------------------------------
              Anisotropic Spin Dipole Couplings in Principal Axis System
 ---------------------------------------------------------------------------------

       Atom             a.u.   MegaHertz   Gauss  10(-4) cm-1        Axes

              Baa    -0.0146    -2.066    -0.737    -0.689 -0.4344  0.8977 -0.0738
     1 Na(23) Bbb    -0.0129    -1.827    -0.652    -0.609  0.0527  0.1071  0.9929
              Bcc     0.0276     3.893     1.389     1.298  0.8992  0.4274 -0.0938
 
              Baa    -0.0087    -1.223    -0.437    -0.408  0.8719  0.3203 -0.3704
     2 Na(23) Bbb    -0.0039    -0.548    -0.195    -0.183  0.2722  0.3117  0.9104
              Bcc     0.0125     1.771     0.632     0.591 -0.4070  0.8946 -0.1846
 
              Baa    -0.0148    -2.096    -0.748    -0.699  0.2512 -0.1183  0.9607
     3 Na(23) Bbb    -0.0060    -0.854    -0.305    -0.285  0.3391  0.9403  0.0272
              Bcc     0.0209     2.950     1.053     0.984  0.9066 -0.3190 -0.2763
 
              Baa    -0.0074    -1.051    -0.375    -0.350 -0.4659  0.8505  0.2443
     4 Na(23) Bbb    -0.0001    -0.009    -0.003    -0.003 -0.0528 -0.3023  0.9517
              Bcc     0.0075     1.059     0.378     0.353  0.8833  0.4305  0.1858
 
              Baa    -0.0229    -3.228    -1.152    -1.077  0.9738  0.2230  0.0440
     5 Na(23) Bbb    -0.0196    -2.770    -0.988    -0.924 -0.0212 -0.1035  0.9944
              Bcc     0.0425     5.998     2.140     2.001 -0.2263  0.9693  0.0960
 
              Baa    -0.0231    -3.259    -1.163    -1.087 -0.0018  1.0000 -0.0011
     6 Na(23) Bbb    -0.0229    -3.231    -1.153    -1.078 -0.1039  0.0009  0.9946
              Bcc     0.0460     6.490     2.316     2.165  0.9946  0.0019  0.1039
 
              Baa    -0.0053    -0.748    -0.267    -0.250  0.9814  0.0550  0.1842
     7 Na(23) Bbb     0.0026     0.365     0.130     0.122 -0.1102 -0.6237  0.7738
              Bcc     0.0027     0.383     0.137     0.128 -0.1575  0.7797  0.6060
 

 ---------------------------------------------------------------------------------

 No NMR shielding tensors so no spin-rotation constants.
 Leave Link  601 at Tue Nov 28 21:44:29 2023, MaxMem=  1879048192 cpu:               2.3 elap:               0.2
 (Enter /home/sekinelabo/g16/l701.exe)
 ... and contract with generalized density number  0.
 Compute integral first derivatives.
 Leave Link  701 at Tue Nov 28 21:44:30 2023, MaxMem=  1879048192 cpu:               1.5 elap:               0.1
 (Enter /home/sekinelabo/g16/l702.exe)
 L702 exits ... SP integral derivatives will be done elsewhere.
 Leave Link  702 at Tue Nov 28 21:44:30 2023, MaxMem=  1879048192 cpu:               0.4 elap:               0.0
 (Enter /home/sekinelabo/g16/l703.exe)
 Integral derivatives from FoFJK, PRISM(SPDF).
 Compute integral first derivatives, UseDBF=F ICtDFT=           0.
 Calling FoFJK, ICntrl=      2127 FMM=F ISym2X=0 I1Cent= 0 IOpClX= 1 NMat=1 NMatS=1 NMatT=0.
 FoFJK:  IHMeth= 1 ICntrl=    2127 DoSepK=F KAlg= 0 I1Cent=           0 FoldK=F
 IRaf=         0 NMat=       1 IRICut=       1 DoRegI=T DoRafI=F ISym2E= 0 IDoP0=0 IntGTp=1.
 FoFCou: FMM=F IPFlag=           0 FMFlag=      100000 FMFlg1=         800
         NFxFlg=           0 DoJE=F BraDBF=F KetDBF=F FulRan=T
         wScrn=  0.000000 ICntrl=      2127 IOpCl=  1 I1Cent=           0 NGrid=           0
         NMat0=    1 NMatS0=      1 NMatT0=    0 NMatD0=    1 NMtDS0=    0 NMtDT0=    0
 Symmetry not used in FoFCou.
 Leave Link  703 at Tue Nov 28 21:44:32 2023, MaxMem=  1879048192 cpu:              27.7 elap:               1.9
 (Enter /home/sekinelabo/g16/l716.exe)
 Dipole        =-1.00103578D+00-6.00261555D-02 1.77646011D-01
 ***** Axes restored to original set *****
 -------------------------------------------------------------------
 Center     Atomic                   Forces (Hartrees/Bohr)
 Number     Number              X              Y              Z
 -------------------------------------------------------------------
      1       11          -0.004509275   -0.001666137   -0.000120927
      2       11           0.002181122   -0.001297778   -0.001230714
      3       11          -0.000788413    0.004762680    0.001638361
      4       11           0.005471566    0.005746619    0.001158601
      5       11          -0.004882216   -0.007895643   -0.001194940
      6       11           0.003215480    0.000208037   -0.000296916
      7       11          -0.000688263    0.000142222    0.000046536
 -------------------------------------------------------------------
 Cartesian Forces:  Max     0.007895643 RMS     0.003236292
 Z-matrix is all fixed cartesians, so copy forces.
 Force constants in Cartesian coordinates: 
                1             2             3             4             5 
      1  0.661244D-01
      2  0.162732D-01  0.605147D-01
      3 -0.669628D-02  0.148369D-01  0.243055D-01
      4 -0.259090D-01  0.291059D-02  0.140514D-01  0.426556D-01
      5 -0.140717D-01 -0.132700D-01  0.206777D-02 -0.238400D-02  0.264939D-01
      6  0.208379D-02 -0.601547D-02 -0.601253D-02 -0.119058D-01  0.132590D-01
      7 -0.272482D-01 -0.332954D-02 -0.618916D-02 -0.182962D-01  0.121370D-01
      8 -0.992788D-02 -0.232475D-01 -0.116495D-01 -0.348953D-02 -0.182567D-01
      9 -0.366427D-02 -0.383513D-02 -0.120470D-01 -0.104558D-01 -0.104400D-01
     10  0.840944D-02 -0.265907D-03 -0.216974D-03  0.758470D-03 -0.495590D-03
     11 -0.208285D-03 -0.306052D-02 -0.631964D-03 -0.149172D-03  0.477235D-03
     12 -0.270952D-03 -0.433744D-02  0.382168D-02  0.305094D-02 -0.366586D-02
     13 -0.190486D-01 -0.141950D-01 -0.993099D-03  0.788096D-03  0.481325D-02
     14  0.501235D-02 -0.228108D-01 -0.432456D-02  0.312054D-02  0.456626D-02
     15  0.677004D-02 -0.107467D-02 -0.112747D-01  0.523799D-02 -0.126779D-02
     16 -0.232716D-02 -0.139600D-02  0.503358D-04  0.301421D-05  0.110310D-05
     17  0.292331D-02  0.187141D-02 -0.292275D-03 -0.842773D-05 -0.107452D-04
     18  0.176542D-02  0.458140D-03  0.113024D-02  0.213904D-04  0.469087D-04
     19  0.000000D+00  0.260183D-05 -0.619058D-05  0.000000D+00  0.000000D+00
     20 -0.101485D-05  0.267201D-05 -0.635756D-05  0.000000D+00  0.000000D+00
     21  0.122592D-04 -0.322773D-04  0.767978D-04  0.000000D+00  0.000000D+00
                6             7             8             9            10 
      6  0.270158D-01
      7  0.730803D-02  0.856987D-01
      8 -0.817004D-02  0.269741D-03  0.706504D-01
      9 -0.286249D-01  0.131593D-01  0.202429D-01  0.702641D-01
     10  0.828763D-03 -0.141469D-01  0.164235D-01 -0.567859D-03  0.422564D-01
     11 -0.489316D-03 -0.511156D-02 -0.155431D-01 -0.216058D-02  0.519772D-02
     12  0.482654D-02 -0.681875D-02  0.137411D-02 -0.125363D-01  0.684177D-04
     13  0.168070D-02 -0.255696D-01 -0.533712D-03  0.210306D-02 -0.402853D-01
     14  0.142114D-02 -0.452223D-02 -0.174075D-01 -0.404683D-02 -0.166707D-01
     15  0.280069D-02 -0.775777D-02 -0.204224D-02 -0.199498D-01  0.755051D-04
     16  0.455337D-05 -0.437343D-03 -0.274463D-02 -0.565162D-03  0.300950D-02
     17 -0.529422D-05  0.557127D-03  0.380182D-02  0.249167D-03 -0.418740D-02
     18 -0.562525D-05  0.292242D-03  0.275771D-03  0.277927D-02 -0.207044D-03
     19  0.000000D+00  0.000000D+00  0.250044D-05 -0.923690D-05 -0.154693D-05
     20  0.000000D+00  0.000000D+00  0.256788D-05 -0.948605D-05 -0.158866D-05
     21  0.000000D+00  0.609063D-05 -0.310194D-04  0.114589D-03  0.191906D-04
               11            12            13            14            15 
     11  0.585012D-01
     12  0.921635D-02  0.178042D-01
     13  0.212624D-02  0.399075D-02  0.967005D-01
     14 -0.430827D-01 -0.172820D-02  0.390101D-02  0.101180D+00
     15 -0.541445D-02 -0.184443D-01 -0.559992D-02  0.107423D-01  0.611706D-01
     16 -0.185282D-02 -0.423302D-04 -0.121959D-01  0.860795D-02  0.129568D-02
     17  0.271009D-02 -0.881487D-03  0.710119D-02 -0.269441D-01 -0.101988D-02
     18 -0.546389D-03  0.480009D-02 -0.810828D-03 -0.249649D-02 -0.147521D-01
     19 -0.212355D-05  0.219192D-04 -0.389280D-03  0.551109D-03 -0.215168D-04
     20 -0.218083D-05  0.225105D-04 -0.321300D-02  0.449884D-02  0.767075D-04
     21  0.263439D-04 -0.271921D-03 -0.370666D-03  0.432615D-03  0.449558D-03
               16            17            18            19            20 
     16  0.433339D-01
     17 -0.904155D-02  0.307699D-01
     18  0.118419D-02  0.268738D-02  0.706799D-02
     19 -0.313860D-01  0.265576D-02 -0.224537D-02  0.317783D-01
     20  0.642595D-02 -0.121984D-01 -0.425324D-03 -0.320984D-02  0.769650D-02
     21 -0.192727D-02 -0.737612D-03 -0.101984D-02  0.226039D-02  0.341949D-03
               21 
     21  0.650817D-03
 Leave Link  716 at Tue Nov 28 21:44:32 2023, MaxMem=  1879048192 cpu:               0.4 elap:               0.0
 (Enter /home/sekinelabo/g16/l103.exe)

 GradGradGradGradGradGradGradGradGradGradGradGradGradGradGradGradGradGrad
 Berny optimization.
 Search for a local minimum.
 Step number   1 out of a maximum of    2
 All quantities printed in internal units (Hartrees-Bohrs-Radians)
 Second derivative matrix not updated -- first step.
 ITU=  0
     Eigenvalues ---    0.00193   0.00639   0.00840   0.01290   0.02849
     Eigenvalues ---    0.03221   0.05429   0.06411   0.07191   0.08099
     Eigenvalues ---    0.08674   0.10845   0.12846   0.13335   0.14970
 Quadratic step=3.035D-01 exceeds max=3.000D-01 adjusted using Lamda=-9.465D-05.
 Angle between NR and scaled steps=   0.35 degrees.
 Angle between quadratic step and forces=  56.57 degrees.
 Linear search not attempted -- first point.
 B after Tr=     0.000000    0.000000   -0.000000
         Rot=    1.000000   -0.000000    0.000000    0.000000 Ang=   0.00 deg.
 Variable       Old X    -DE/DX   Delta X   Delta X   Delta X     New X
                                 (Linear)    (Quad)   (Total)
    X1       31.67767  -0.00451   0.00000  -0.13086  -0.13086  31.54680
    Y1       25.63508  -0.00167   0.00000  -0.01137  -0.01137  25.62371
    Z1       27.59189  -0.00012   0.00000  -0.01420  -0.01420  27.57769
    X2       37.48461   0.00218   0.00000  -0.04176  -0.04176  37.44285
    Y2       26.38927  -0.00130   0.00000  -0.05326  -0.05326  26.33601
    Z2       25.56138  -0.00123   0.00000   0.01474   0.01474  25.57612
    X3       35.25719  -0.00079   0.00000  -0.07005  -0.07005  35.18714
    Y3       30.12394   0.00476   0.00000   0.02626   0.02626  30.15020
    Z3       29.77207   0.00164   0.00000   0.01886   0.01886  29.79093
    X4       31.32259   0.00547   0.00000   0.02454   0.02454  31.34713
    Y4       35.69050   0.00575   0.00000   0.06720   0.06720  35.75770
    Z4       31.03875   0.00116   0.00000   0.02986   0.02986  31.06861
    X5       28.47345  -0.00488   0.00000  -0.06834  -0.06834  28.40511
    Y5       31.07749  -0.00790   0.00000  -0.03889  -0.03889  31.03860
    Z5       30.39076  -0.00119   0.00000  -0.01232  -0.01232  30.37844
    X6       22.28289   0.00322   0.00000   0.16160   0.16160  22.44449
    Y6       26.67103   0.00021   0.00000   0.03220   0.03220  26.70323
    Z6       29.52697  -0.00030   0.00000  -0.07154  -0.07154  29.45543
    X7       16.50651  -0.00069   0.00000   0.12487   0.12487  16.63138
    Y7       27.41747   0.00014   0.00000  -0.02214  -0.02214  27.39533
    Z7       29.12314   0.00005   0.00000   0.03459   0.03459  29.15773
         Item               Value     Threshold  Converged?
 Maximum Force            0.007896     0.000450     NO 
 RMS     Force            0.003236     0.000300     NO 
 Maximum Displacement     0.161600     0.001800     NO 
 RMS     Displacement     0.065502     0.001200     NO 
 Predicted change in Energy=-1.230498D-03
 GradGradGradGradGradGradGradGradGradGradGradGradGradGradGradGradGradGrad

 Leave Link  103 at Tue Nov 28 21:44:32 2023, MaxMem=  1879048192 cpu:               0.2 elap:               0.0
 (Enter /home/sekinelabo/g16/l9999.exe)
 1\1\GINC-SEKINELABO-XA7R-R37\Force\UB3LYP\6-311+G(d)\Na7(2)\SEKINELABO
 \28-Nov-2023\0\\#P B3LYP/6-311+g(d) force\\DPGEN\\0,2\Na,16.7631,13.56
 55,14.601\Na,19.836,13.9646,13.5265\Na,18.6573,15.9409,15.7547\Na,16.5
 752,18.8866,16.425\Na,15.0675,16.4455,16.0821\Na,11.7916,14.1137,15.62
 5\Na,8.73487,14.5087,15.4113\\Version=ES64L-G16RevB.01\State=2-A\HF=-1
 136.1184621\S2=0.774855\S2-1=0.\S2A=0.750388\RMSD=2.725e-09\RMSF=3.236
 e-03\Dipole=0.9756941,0.1091369,-0.2708209\Quadrupole=3.4070053,-0.002
 6989,-3.4043063,-3.5870394,-2.5300237,3.0184679\PG=C01 [X(Na7)]\\@


 IN-LAWS ARE LIKE SEEDS. YOU DON'T NEED THEM
 BUT THEY COME WITH THE TOMATO.
 Job cpu time:       0 days  0 hours  3 minutes 33.4 seconds.
 Elapsed time:       0 days  0 hours  0 minutes 18.7 seconds.
 File lengths (MBytes):  RWF=     32 Int=      0 D2E=      0 Chk=      4 Scr=      1
 Normal termination of Gaussian 16 at Tue Nov 28 21:44:32 2023.
