ITEM: TIMESTEP
6350
ITEM: NUMBER OF ATOMS
7
ITEM: BOX BOUNDS xy xz yz ff ff ff
0.0000000000000000e+00 2.3263357095100002e+01 0.0000000000000000e+00
0.0000000000000000e+00 2.3263357095100002e+01 0.0000000000000000e+00
0.0000000000000000e+00 2.3263357095100002e+01 0.0000000000000000e+00
ITEM: ATOMS id type x y z fx fy fz
6 1 10.1151 11.8319 9.40813 0.0847974 -0.0432458 0.0942467
2 1 11.6001 8.70299 10.2561 -0.0318263 0.134312 0.0548382
5 1 13.7365 11.7929 10.4021 -0.0729328 0.0484978 -0.0623581
7 1 8.94551 10.6806 12.6757 0.00390482 0.0296357 -0.113293
4 1 12.1553 10.6926 13.0419 0.030238 -0.0425601 0.0968553
1 1 10.9602 13.9675 12.0414 -0.0326383 -0.0868526 -0.0323718
3 1 13.909 13.7533 13.5963 0.0184571 -0.0397869 -0.0379178
