 Set GAUSS_MDEF to "14GB".
 Entering Gaussian System, Link 0=g16
 Initial command:
 /home/sekinelabo/g16/l1.exe "/home/sekinelabo/g16temp/Gau-173921.inp" -scrdir="/home/sekinelabo/g16temp/"
 Entering Link 1 = /home/sekinelabo/g16/l1.exe PID=    173923.
  
 Copyright (c) 1988-2017, Gaussian, Inc.  All Rights Reserved.
  
 This is part of the Gaussian(R) 16 program.  It is based on
 the Gaussian(R) 09 system (copyright 2009, Gaussian, Inc.),
 the Gaussian(R) 03 system (copyright 2003, Gaussian, Inc.),
 the Gaussian(R) 98 system (copyright 1998, Gaussian, Inc.),
 the Gaussian(R) 94 system (copyright 1995, Gaussian, Inc.),
 the Gaussian 92(TM) system (copyright 1992, Gaussian, Inc.),
 the Gaussian 90(TM) system (copyright 1990, Gaussian, Inc.),
 the Gaussian 88(TM) system (copyright 1988, Gaussian, Inc.),
 the Gaussian 86(TM) system (copyright 1986, Carnegie Mellon
 University), and the Gaussian 82(TM) system (copyright 1983,
 Carnegie Mellon University). Gaussian is a federally registered
 trademark of Gaussian, Inc.
  
 This software contains proprietary and confidential information,
 including trade secrets, belonging to Gaussian, Inc.
  
 This software is provided under written license and may be
 used, copied, transmitted, or stored only in accord with that
 written license.
  
 The following legend is applicable only to US Government
 contracts under FAR:
  
                    RESTRICTED RIGHTS LEGEND
  
 Use, reproduction and disclosure by the US Government is
 subject to restrictions as set forth in subparagraphs (a)
 and (c) of the Commercial Computer Software - Restricted
 Rights clause in FAR 52.227-19.
  
 Gaussian, Inc.
 340 Quinnipiac St., Bldg. 40, Wallingford CT 06492
  
  
 ---------------------------------------------------------------
 Warning -- This program may not be used in any manner that
 competes with the business of Gaussian, Inc. or will provide
 assistance to any competitor of Gaussian, Inc.  The licensee
 of this program is prohibited from giving any competitor of
 Gaussian, Inc. access to this program.  By using this program,
 the user acknowledges that Gaussian, Inc. is engaged in the
 business of creating and licensing software in the field of
 computational chemistry and represents and warrants to the
 licensee that it is not a competitor of Gaussian, Inc. and that
 it will not use this program in any manner prohibited above.
 ---------------------------------------------------------------
  

 Cite this work as:
 Gaussian 16, Revision B.01,
 M. J. Frisch, G. W. Trucks, H. B. Schlegel, G. E. Scuseria, 
 M. A. Robb, J. R. Cheeseman, G. Scalmani, V. Barone, 
 G. A. Petersson, H. Nakatsuji, X. Li, M. Caricato, A. V. Marenich, 
 J. Bloino, B. G. Janesko, R. Gomperts, B. Mennucci, H. P. Hratchian, 
 J. V. Ortiz, A. F. Izmaylov, J. L. Sonnenberg, D. Williams-Young, 
 F. Ding, F. Lipparini, F. Egidi, J. Goings, B. Peng, A. Petrone, 
 T. Henderson, D. Ranasinghe, V. G. Zakrzewski, J. Gao, N. Rega, 
 G. Zheng, W. Liang, M. Hada, M. Ehara, K. Toyota, R. Fukuda, 
 J. Hasegawa, M. Ishida, T. Nakajima, Y. Honda, O. Kitao, H. Nakai, 
 T. Vreven, K. Throssell, J. A. Montgomery, Jr., J. E. Peralta, 
 F. Ogliaro, M. J. Bearpark, J. J. Heyd, E. N. Brothers, K. N. Kudin, 
 V. N. Staroverov, T. A. Keith, R. Kobayashi, J. Normand, 
 K. Raghavachari, A. P. Rendell, J. C. Burant, S. S. Iyengar, 
 J. Tomasi, M. Cossi, J. M. Millam, M. Klene, C. Adamo, R. Cammi, 
 J. W. Ochterski, R. L. Martin, K. Morokuma, O. Farkas, 
 J. B. Foresman, and D. J. Fox, Gaussian, Inc., Wallingford CT, 2016.
 
 ******************************************
 Gaussian 16:  ES64L-G16RevB.01 20-Dec-2017
                28-Nov-2023 
 ******************************************
 %nproc=15
 Will use up to   15 processors via shared memory.
 -------------------------
 #P B3LYP/6-311+g(d) force
 -------------------------
 1/10=7,30=1,38=1/1,3;
 2/12=2,17=6,18=5,40=1/2;
 3/5=4,6=6,7=11,11=2,25=1,30=1,71=1,74=-5/1,2,3;
 4//1;
 5/5=2,38=5/2;
 6/7=2,8=2,9=2,10=2,28=1/1;
 7/29=1/1,2,3,16;
 1/10=7,30=1/3;
 99//99;
 Leave Link    1 at Tue Nov 28 22:56:47 2023, MaxMem=           0 cpu:               0.3 elap:               0.0
 (Enter /home/sekinelabo/g16/l101.exe)
 -----
 DPGEN
 -----
 Symbolic Z-matrix:
 Charge =  0 Multiplicity = 2
 Na                    15.1295   15.4307   16.866 
 Na                    9.74733   13.7227   16.6359 
 Na                    11.9587   15.8057   15.3925 
 Na                    14.4174   13.3687   15.0401 
 Na                    17.9338   14.4698   14.5354 
 Na                    17.8052   18.0213   15.0672 
 Na                    20.4335   16.6067   13.8884 
 
 ITRead=  0  0  0  0  0  0  0
 MicOpt= -1 -1 -1 -1 -1 -1 -1
 NAtoms=      7 NQM=        7 NQMF=       0 NMMI=      0 NMMIF=      0
                NMic=       0 NMicF=      0.
                    Isotopes and Nuclear Properties:
 (Nuclear quadrupole moments (NQMom) in fm**2, nuclear magnetic moments (NMagM)
  in nuclear magnetons)

  Atom         1           2           3           4           5           6           7
 IAtWgt=          23          23          23          23          23          23          23
 AtmWgt=  22.9897697  22.9897697  22.9897697  22.9897697  22.9897697  22.9897697  22.9897697
 NucSpn=           3           3           3           3           3           3           3
 AtZEff=  -0.0000000  -0.0000000  -0.0000000  -0.0000000  -0.0000000  -0.0000000  -0.0000000
 NQMom=   10.4000000  10.4000000  10.4000000  10.4000000  10.4000000  10.4000000  10.4000000
 NMagM=    2.2175200   2.2175200   2.2175200   2.2175200   2.2175200   2.2175200   2.2175200
 AtZNuc=  11.0000000  11.0000000  11.0000000  11.0000000  11.0000000  11.0000000  11.0000000
 Leave Link  101 at Tue Nov 28 22:56:48 2023, MaxMem=  1879048192 cpu:               2.4 elap:               0.2
 (Enter /home/sekinelabo/g16/l103.exe)

 GradGradGradGradGradGradGradGradGradGradGradGradGradGradGradGradGradGrad
 Berny optimization.
 Initialization pass.
 Trust Radius=3.00D-01 FncErr=1.00D-07 GrdErr=1.00D-07 EigMax=2.50D+02 EigMin=1.00D-04
 Number of steps in this run=      2 maximum allowed number of steps=      2.
 GradGradGradGradGradGradGradGradGradGradGradGradGradGradGradGradGradGrad

 Leave Link  103 at Tue Nov 28 22:56:48 2023, MaxMem=  1879048192 cpu:               0.2 elap:               0.0
 (Enter /home/sekinelabo/g16/l202.exe)
                          Input orientation:                          
 ---------------------------------------------------------------------
 Center     Atomic      Atomic             Coordinates (Angstroms)
 Number     Number       Type             X           Y           Z
 ---------------------------------------------------------------------
      1         11           0       15.129500   15.430700   16.866000
      2         11           0        9.747330   13.722700   16.635900
      3         11           0       11.958700   15.805700   15.392500
      4         11           0       14.417400   13.368700   15.040100
      5         11           0       17.933800   14.469800   14.535400
      6         11           0       17.805200   18.021300   15.067200
      7         11           0       20.433500   16.606700   13.888400
 ---------------------------------------------------------------------
                    Distance matrix (angstroms):
                    1          2          3          4          5
     1  Na   0.000000
     2  Na   5.651368   0.000000
     3  Na   3.516504   3.282543   0.000000
     4  Na   2.844792   4.947873   3.479707   0.000000
     5  Na   3.770825   8.484607   6.182319   3.719168   0.000000
     6  Na   4.135972   9.266502   6.260692   5.755398   3.593397
     7  Na   6.195280  11.404404   8.644429   6.928529   3.351634
                    6          7
     6  Na   0.000000
     7  Na   3.209147   0.000000
 Stoichiometry    Na7(2)
 Framework group  C1[X(Na7)]
 Deg. of freedom    15
 Full point group                 C1      NOp   1
 Largest Abelian subgroup         C1      NOp   1
 Largest concise Abelian subgroup C1      NOp   1
                         Standard orientation:                         
 ---------------------------------------------------------------------
 Center     Atomic      Atomic             Coordinates (Angstroms)
 Number     Number       Type             X           Y           Z
 ---------------------------------------------------------------------
      1         11           0       -0.495732    0.429130    1.390377
      2         11           0       -5.969914   -0.065062    0.076197
      3         11           0       -3.086424    1.192317   -0.861658
      4         11           0       -1.327266   -1.745753   -0.244027
      5         11           0        2.380280   -1.566789   -0.011044
      6         11           0        3.072062    1.959299   -0.036398
      7         11           0        5.426995   -0.203143   -0.313448
 ---------------------------------------------------------------------
 Rotational constants (GHZ):           1.5891247           0.2324510           0.2140037
 Leave Link  202 at Tue Nov 28 22:56:48 2023, MaxMem=  1879048192 cpu:               0.0 elap:               0.0
 (Enter /home/sekinelabo/g16/l301.exe)
 Standard basis: 6-311+G(d) (5D, 7F)
 Ernie: Thresh=  0.10000D-02 Tol=  0.10000D-05 Strict=F.
 There are   217 symmetry adapted cartesian basis functions of A   symmetry.
 There are   210 symmetry adapted basis functions of A   symmetry.
   210 basis functions,   350 primitive gaussians,   217 cartesian basis functions
    39 alpha electrons       38 beta electrons
       nuclear repulsion energy       288.2136791921 Hartrees.
 IExCor=  402 DFT=T Ex+Corr=B3LYP ExCW=0 ScaHFX=  0.200000
 ScaDFX=  0.800000  0.720000  1.000000  0.810000 ScalE2=  1.000000  1.000000
 IRadAn=      5 IRanWt=     -1 IRanGd=            0 ICorTp=0 IEmpDi=  4
 NAtoms=    7 NActive=    7 NUniq=    7 SFac= 1.00D+00 NAtFMM=   60 NAOKFM=F Big=F
 Integral buffers will be    131072 words long.
 Raffenetti 2 integral format.
 Two-electron integral symmetry is turned on.
 Leave Link  301 at Tue Nov 28 22:56:48 2023, MaxMem=  1879048192 cpu:               0.5 elap:               0.0
 (Enter /home/sekinelabo/g16/l302.exe)
 NPDir=0 NMtPBC=     1 NCelOv=     1 NCel=       1 NClECP=     1 NCelD=      1
         NCelK=      1 NCelE2=     1 NClLst=     1 CellRange=     0.0.
 One-electron integrals computed using PRISM.
 One-electron integral symmetry used in STVInt
 NBasis=   210 RedAO= T EigKep=  6.59D-06  NBF=   210
 NBsUse=   210 1.00D-06 EigRej= -1.00D+00 NBFU=   210
 Precomputing XC quadrature grid using
 IXCGrd= 4 IRadAn=           5 IRanWt=          -1 IRanGd=           0 AccXCQ= 0.00D+00.
 Generated NRdTot=       0 NPtTot=           0 NUsed=           0 NTot=          32
 NSgBfM=   204   204   204   204   204 MxSgAt=     7 MxSgA2=     7.
 Leave Link  302 at Tue Nov 28 22:56:48 2023, MaxMem=  1879048192 cpu:               1.9 elap:               0.1
 (Enter /home/sekinelabo/g16/l303.exe)
 DipDrv:  MaxL=1.
 Leave Link  303 at Tue Nov 28 22:56:48 2023, MaxMem=  1879048192 cpu:               0.5 elap:               0.0
 (Enter /home/sekinelabo/g16/l401.exe)
 ExpMin= 7.60D-03 ExpMax= 3.62D+04 ExpMxC= 1.21D+03 IAcc=3 IRadAn=         5 AccDes= 0.00D+00
 Harris functional with IExCor=  402 and IRadAn=       5 diagonalized for initial guess.
 HarFok:  IExCor=  402 AccDes= 0.00D+00 IRadAn=         5 IDoV= 1 UseB2=F ITyADJ=14
 ICtDFT=  3500011 ScaDFX=  1.000000  1.000000  1.000000  1.000000
 FoFCou: FMM=F IPFlag=           0 FMFlag=      100000 FMFlg1=           0
         NFxFlg=           0 DoJE=T BraDBF=F KetDBF=T FulRan=T
         wScrn=  0.000000 ICntrl=       500 IOpCl=  0 I1Cent=   200000004 NGrid=           0
         NMat0=    1 NMatS0=      1 NMatT0=    0 NMatD0=    1 NMtDS0=    0 NMtDT0=    0
 Petite list used in FoFCou.
 Harris En= -1135.88393569235    
 JPrj=0 DoOrth=F DoCkMO=F.
 Initial guess <Sx>= 0.0000 <Sy>= 0.0000 <Sz>= 0.5000 <S**2>= 0.7500 S= 0.5000
 Leave Link  401 at Tue Nov 28 22:56:48 2023, MaxMem=  1879048192 cpu:               4.2 elap:               0.3
 (Enter /home/sekinelabo/g16/l502.exe)
 Keep R1 and R2 ints in memory in canonical form, NReq=506573307.
 FoFCou: FMM=F IPFlag=           0 FMFlag=           0 FMFlg1=           0
         NFxFlg=           0 DoJE=F BraDBF=F KetDBF=F FulRan=T
         wScrn=  0.000000 ICntrl=       600 IOpCl=  0 I1Cent=           0 NGrid=           0
         NMat0=    1 NMatS0=  22155 NMatT0=    0 NMatD0=    1 NMtDS0=    0 NMtDT0=    0
 Symmetry not used in FoFCou.
 Two-electron integral symmetry not used.
 UHF open shell SCF:
 Using DIIS extrapolation, IDIIS=  1040.
 NGot=  1879048192 LenX=  1388082593 LenY=  1388035063
 Requested convergence on RMS density matrix=1.00D-08 within 128 cycles.
 Requested convergence on MAX density matrix=1.00D-06.
 Requested convergence on             energy=1.00D-06.
 No special actions if energy rises.

 Cycle   1  Pass 1  IDiag  1:
 E= -1136.08829932370    
 DIIS: error= 1.00D-02 at cycle   1 NSaved=   1.
 NSaved= 1 IEnMin= 1 EnMin= -1136.08829932370     IErMin= 1 ErrMin= 1.00D-02
 ErrMax= 1.00D-02  0.00D+00 EMaxC= 1.00D-01 BMatC= 1.83D-01 BMatP= 1.83D-01
 IDIUse=3 WtCom= 9.00D-01 WtEn= 1.00D-01
 Coeff-Com:  0.100D+01
 Coeff-En:   0.100D+01
 Coeff:      0.100D+01
 Gap=     0.037 Goal=   None    Shift=    0.000
 Gap=     0.042 Goal=   None    Shift=    0.000
 GapD=    0.037 DampG=0.250 DampE=0.500 DampFc=0.2500 IDamp=-1.
 Damping current iteration by 2.50D-01
 RMSDP=9.42D-03 MaxDP=4.77D-01              OVMax= 1.59D-01

 Cycle   2  Pass 1  IDiag  1:
 E= -1136.09679052360     Delta-E=       -0.008491199892 Rises=F Damp=T
 DIIS: error= 6.95D-03 at cycle   2 NSaved=   2.
 NSaved= 2 IEnMin= 2 EnMin= -1136.09679052360     IErMin= 2 ErrMin= 6.95D-03
 ErrMax= 6.95D-03  0.00D+00 EMaxC= 1.00D-01 BMatC= 7.12D-02 BMatP= 1.83D-01
 IDIUse=3 WtCom= 9.31D-01 WtEn= 6.95D-02
 Coeff-Com: -0.131D+01 0.231D+01
 Coeff-En:   0.000D+00 0.100D+01
 Coeff:     -0.122D+01 0.222D+01
 Gap=     0.042 Goal=   None    Shift=    0.000
 Gap=     0.044 Goal=   None    Shift=    0.000
 RMSDP=7.59D-03 MaxDP=5.62D-01 DE=-8.49D-03 OVMax= 1.32D-01

 Cycle   3  Pass 1  IDiag  1:
 E= -1136.11284219550     Delta-E=       -0.016051671902 Rises=F Damp=F
 DIIS: error= 1.79D-03 at cycle   3 NSaved=   3.
 NSaved= 3 IEnMin= 3 EnMin= -1136.11284219550     IErMin= 3 ErrMin= 1.79D-03
 ErrMax= 1.79D-03  0.00D+00 EMaxC= 1.00D-01 BMatC= 1.42D-03 BMatP= 7.12D-02
 IDIUse=3 WtCom= 9.82D-01 WtEn= 1.79D-02
 Coeff-Com: -0.144D+00 0.244D+00 0.900D+00
 Coeff-En:   0.000D+00 0.000D+00 0.100D+01
 Coeff:     -0.141D+00 0.239D+00 0.902D+00
 Gap=     0.038 Goal=   None    Shift=    0.000
 Gap=     0.048 Goal=   None    Shift=    0.000
 RMSDP=2.22D-03 MaxDP=2.20D-01 DE=-1.61D-02 OVMax= 9.83D-02

 Cycle   4  Pass 1  IDiag  1:
 E= -1136.11169740485     Delta-E=        0.001144790648 Rises=F Damp=F
 DIIS: error= 2.38D-03 at cycle   4 NSaved=   4.
 NSaved= 4 IEnMin= 3 EnMin= -1136.11284219550     IErMin= 3 ErrMin= 1.79D-03
 ErrMax= 2.38D-03  0.00D+00 EMaxC= 1.00D-01 BMatC= 2.53D-03 BMatP= 1.42D-03
 IDIUse=3 WtCom= 1.70D-01 WtEn= 8.30D-01
 Coeff-Com: -0.116D-01 0.155D-01 0.572D+00 0.424D+00
 Coeff-En:   0.000D+00 0.000D+00 0.602D+00 0.398D+00
 Coeff:     -0.197D-02 0.263D-02 0.597D+00 0.402D+00
 Gap=     0.040 Goal=   None    Shift=    0.000
 Gap=     0.046 Goal=   None    Shift=    0.000
 RMSDP=1.17D-03 MaxDP=7.58D-02 DE= 1.14D-03 OVMax= 5.36D-02

 Cycle   5  Pass 1  IDiag  1:
 E= -1136.11463856318     Delta-E=       -0.002941158328 Rises=F Damp=F
 DIIS: error= 2.28D-04 at cycle   5 NSaved=   5.
 NSaved= 5 IEnMin= 5 EnMin= -1136.11463856318     IErMin= 5 ErrMin= 2.28D-04
 ErrMax= 2.28D-04  0.00D+00 EMaxC= 1.00D-01 BMatC= 1.87D-05 BMatP= 1.42D-03
 IDIUse=3 WtCom= 9.98D-01 WtEn= 2.28D-03
 Coeff-Com:  0.850D-02-0.124D-01 0.851D-01-0.895D-03 0.920D+00
 Coeff-En:   0.000D+00 0.000D+00 0.000D+00 0.000D+00 0.100D+01
 Coeff:      0.848D-02-0.124D-01 0.849D-01-0.893D-03 0.920D+00
 Gap=     0.041 Goal=   None    Shift=    0.000
 Gap=     0.045 Goal=   None    Shift=    0.000
 RMSDP=3.61D-04 MaxDP=3.72D-02 DE=-2.94D-03 OVMax= 9.78D-03

 Cycle   6  Pass 1  IDiag  1:
 E= -1136.11466960450     Delta-E=       -0.000031041319 Rises=F Damp=F
 DIIS: error= 6.96D-05 at cycle   6 NSaved=   6.
 NSaved= 6 IEnMin= 6 EnMin= -1136.11466960450     IErMin= 6 ErrMin= 6.96D-05
 ErrMax= 6.96D-05  0.00D+00 EMaxC= 1.00D-01 BMatC= 2.08D-06 BMatP= 1.87D-05
 IDIUse=1 WtCom= 1.00D+00 WtEn= 0.00D+00
 Coeff-Com:  0.262D-02-0.391D-02-0.436D-01-0.507D-01 0.289D+00 0.807D+00
 Coeff:      0.262D-02-0.391D-02-0.436D-01-0.507D-01 0.289D+00 0.807D+00
 Gap=     0.041 Goal=   None    Shift=    0.000
 Gap=     0.045 Goal=   None    Shift=    0.000
 RMSDP=1.66D-04 MaxDP=2.21D-02 DE=-3.10D-05 OVMax= 6.01D-03

 Cycle   7  Pass 1  IDiag  1:
 E= -1136.11467416192     Delta-E=       -0.000004557420 Rises=F Damp=F
 DIIS: error= 7.14D-05 at cycle   7 NSaved=   7.
 NSaved= 7 IEnMin= 7 EnMin= -1136.11467416192     IErMin= 6 ErrMin= 6.96D-05
 ErrMax= 7.14D-05  0.00D+00 EMaxC= 1.00D-01 BMatC= 1.48D-06 BMatP= 2.08D-06
 IDIUse=1 WtCom= 1.00D+00 WtEn= 0.00D+00
 Coeff-Com: -0.134D-03 0.160D-03-0.502D-01-0.342D-01-0.145D-01 0.538D+00
 Coeff-Com:  0.561D+00
 Coeff:     -0.134D-03 0.160D-03-0.502D-01-0.342D-01-0.145D-01 0.538D+00
 Coeff:      0.561D+00
 Gap=     0.041 Goal=   None    Shift=    0.000
 Gap=     0.045 Goal=   None    Shift=    0.000
 RMSDP=6.38D-05 MaxDP=5.12D-03 DE=-4.56D-06 OVMax= 4.03D-03

 Cycle   8  Pass 1  IDiag  1:
 E= -1136.11467790555     Delta-E=       -0.000003743635 Rises=F Damp=F
 DIIS: error= 3.02D-05 at cycle   8 NSaved=   8.
 NSaved= 8 IEnMin= 8 EnMin= -1136.11467790555     IErMin= 8 ErrMin= 3.02D-05
 ErrMax= 3.02D-05  0.00D+00 EMaxC= 1.00D-01 BMatC= 1.99D-07 BMatP= 1.48D-06
 IDIUse=1 WtCom= 1.00D+00 WtEn= 0.00D+00
 Coeff-Com: -0.111D-03 0.251D-03-0.436D-02 0.326D-02-0.818D-01-0.923D-01
 Coeff-Com:  0.171D+00 0.100D+01
 Coeff:     -0.111D-03 0.251D-03-0.436D-02 0.326D-02-0.818D-01-0.923D-01
 Coeff:      0.171D+00 0.100D+01
 Gap=     0.041 Goal=   None    Shift=    0.000
 Gap=     0.045 Goal=   None    Shift=    0.000
 RMSDP=4.15D-05 MaxDP=3.12D-03 DE=-3.74D-06 OVMax= 2.65D-03

 Cycle   9  Pass 1  IDiag  1:
 E= -1136.11467933477     Delta-E=       -0.000001429218 Rises=F Damp=F
 DIIS: error= 1.72D-05 at cycle   9 NSaved=   9.
 NSaved= 9 IEnMin= 9 EnMin= -1136.11467933477     IErMin= 9 ErrMin= 1.72D-05
 ErrMax= 1.72D-05  0.00D+00 EMaxC= 1.00D-01 BMatC= 5.49D-08 BMatP= 1.99D-07
 IDIUse=1 WtCom= 1.00D+00 WtEn= 0.00D+00
 Coeff-Com:  0.152D-03-0.167D-03 0.105D-01 0.743D-02-0.638D-02-0.144D+00
 Coeff-Com: -0.101D+00 0.132D+00 0.110D+01
 Coeff:      0.152D-03-0.167D-03 0.105D-01 0.743D-02-0.638D-02-0.144D+00
 Coeff:     -0.101D+00 0.132D+00 0.110D+01
 Gap=     0.041 Goal=   None    Shift=    0.000
 Gap=     0.045 Goal=   None    Shift=    0.000
 RMSDP=2.61D-05 MaxDP=1.00D-03 DE=-1.43D-06 OVMax= 1.83D-03

 Cycle  10  Pass 1  IDiag  1:
 E= -1136.11467996971     Delta-E=       -0.000000634943 Rises=F Damp=F
 DIIS: error= 1.07D-05 at cycle  10 NSaved=  10.
 NSaved=10 IEnMin=10 EnMin= -1136.11467996971     IErMin=10 ErrMin= 1.07D-05
 ErrMax= 1.07D-05  0.00D+00 EMaxC= 1.00D-01 BMatC= 2.19D-08 BMatP= 5.49D-08
 IDIUse=1 WtCom= 1.00D+00 WtEn= 0.00D+00
 Coeff-Com: -0.112D-03 0.123D-03 0.343D-02-0.579D-03 0.352D-01 0.219D-01
 Coeff-Com: -0.953D-01-0.419D+00 0.217D+00 0.124D+01
 Coeff:     -0.112D-03 0.123D-03 0.343D-02-0.579D-03 0.352D-01 0.219D-01
 Coeff:     -0.953D-01-0.419D+00 0.217D+00 0.124D+01
 Gap=     0.041 Goal=   None    Shift=    0.000
 Gap=     0.045 Goal=   None    Shift=    0.000
 RMSDP=2.53D-05 MaxDP=1.90D-03 DE=-6.35D-07 OVMax= 1.83D-03

 Cycle  11  Pass 1  IDiag  1:
 E= -1136.11468030547     Delta-E=       -0.000000335761 Rises=F Damp=F
 DIIS: error= 6.07D-06 at cycle  11 NSaved=  11.
 NSaved=11 IEnMin=11 EnMin= -1136.11468030547     IErMin=11 ErrMin= 6.07D-06
 ErrMax= 6.07D-06  0.00D+00 EMaxC= 1.00D-01 BMatC= 6.90D-09 BMatP= 2.19D-08
 IDIUse=1 WtCom= 1.00D+00 WtEn= 0.00D+00
 Coeff-Com: -0.103D-03 0.121D-03-0.119D-02-0.149D-02 0.905D-02 0.378D-01
 Coeff-Com:  0.192D-02-0.140D+00-0.214D+00 0.302D+00 0.101D+01
 Coeff:     -0.103D-03 0.121D-03-0.119D-02-0.149D-02 0.905D-02 0.378D-01
 Coeff:      0.192D-02-0.140D+00-0.214D+00 0.302D+00 0.101D+01
 Gap=     0.041 Goal=   None    Shift=    0.000
 Gap=     0.045 Goal=   None    Shift=    0.000
 RMSDP=1.22D-05 MaxDP=7.12D-04 DE=-3.36D-07 OVMax= 9.65D-04

 Cycle  12  Pass 1  IDiag  1:
 E= -1136.11468040093     Delta-E=       -0.000000095454 Rises=F Damp=F
 DIIS: error= 3.45D-06 at cycle  12 NSaved=  12.
 NSaved=12 IEnMin=12 EnMin= -1136.11468040093     IErMin=12 ErrMin= 3.45D-06
 ErrMax= 3.45D-06  0.00D+00 EMaxC= 1.00D-01 BMatC= 3.30D-09 BMatP= 6.90D-09
 IDIUse=1 WtCom= 1.00D+00 WtEn= 0.00D+00
 Coeff-Com:  0.320D-04-0.394D-04-0.200D-02-0.348D-03-0.128D-01 0.638D-02
 Coeff-Com:  0.478D-01 0.130D+00-0.194D+00-0.425D+00 0.425D+00 0.102D+01
 Coeff:      0.320D-04-0.394D-04-0.200D-02-0.348D-03-0.128D-01 0.638D-02
 Coeff:      0.478D-01 0.130D+00-0.194D+00-0.425D+00 0.425D+00 0.102D+01
 Gap=     0.041 Goal=   None    Shift=    0.000
 Gap=     0.045 Goal=   None    Shift=    0.000
 RMSDP=8.96D-06 MaxDP=4.76D-04 DE=-9.55D-08 OVMax= 7.44D-04

 Cycle  13  Pass 1  IDiag  1:
 E= -1136.11468044471     Delta-E=       -0.000000043784 Rises=F Damp=F
 DIIS: error= 1.65D-06 at cycle  13 NSaved=  13.
 NSaved=13 IEnMin=13 EnMin= -1136.11468044471     IErMin=13 ErrMin= 1.65D-06
 ErrMax= 1.65D-06  0.00D+00 EMaxC= 1.00D-01 BMatC= 1.15D-09 BMatP= 3.30D-09
 IDIUse=1 WtCom= 1.00D+00 WtEn= 0.00D+00
 Coeff-Com:  0.795D-04-0.970D-04 0.179D-04 0.662D-03-0.936D-02-0.155D-01
 Coeff-Com:  0.136D-01 0.111D+00 0.455D-01-0.291D+00-0.371D+00 0.388D+00
 Coeff-Com:  0.113D+01
 Coeff:      0.795D-04-0.970D-04 0.179D-04 0.662D-03-0.936D-02-0.155D-01
 Coeff:      0.136D-01 0.111D+00 0.455D-01-0.291D+00-0.371D+00 0.388D+00
 Coeff:      0.113D+01
 Gap=     0.041 Goal=   None    Shift=    0.000
 Gap=     0.045 Goal=   None    Shift=    0.000
 RMSDP=7.03D-06 MaxDP=3.56D-04 DE=-4.38D-08 OVMax= 5.53D-04

 Cycle  14  Pass 1  IDiag  1:
 E= -1136.11468046069     Delta-E=       -0.000000015982 Rises=F Damp=F
 DIIS: error= 8.89D-07 at cycle  14 NSaved=  14.
 NSaved=14 IEnMin=14 EnMin= -1136.11468046069     IErMin=14 ErrMin= 8.89D-07
 ErrMax= 8.89D-07  0.00D+00 EMaxC= 1.00D-01 BMatC= 2.33D-10 BMatP= 1.15D-09
 IDIUse=1 WtCom= 1.00D+00 WtEn= 0.00D+00
 Coeff-Com: -0.411D-05 0.671D-05 0.464D-03 0.967D-04 0.233D-02-0.287D-02
 Coeff-Com: -0.138D-01-0.192D-01 0.661D-01 0.751D-01-0.207D+00-0.210D+00
 Coeff-Com:  0.275D+00 0.103D+01
 Coeff:     -0.411D-05 0.671D-05 0.464D-03 0.967D-04 0.233D-02-0.287D-02
 Coeff:     -0.138D-01-0.192D-01 0.661D-01 0.751D-01-0.207D+00-0.210D+00
 Coeff:      0.275D+00 0.103D+01
 Gap=     0.041 Goal=   None    Shift=    0.000
 Gap=     0.045 Goal=   None    Shift=    0.000
 RMSDP=3.07D-06 MaxDP=1.73D-04 DE=-1.60D-08 OVMax= 1.91D-04

 Cycle  15  Pass 1  IDiag  1:
 E= -1136.11468046294     Delta-E=       -0.000000002249 Rises=F Damp=F
 DIIS: error= 3.72D-07 at cycle  15 NSaved=  15.
 NSaved=15 IEnMin=15 EnMin= -1136.11468046294     IErMin=15 ErrMin= 3.72D-07
 ErrMax= 3.72D-07  0.00D+00 EMaxC= 1.00D-01 BMatC= 5.14D-11 BMatP= 2.33D-10
 IDIUse=1 WtCom= 1.00D+00 WtEn= 0.00D+00
 Coeff-Com: -0.184D-04 0.235D-04 0.230D-03-0.608D-04 0.282D-02 0.130D-02
 Coeff-Com: -0.811D-02-0.276D-01 0.183D-01 0.787D-01-0.713D-02-0.143D+00
 Coeff-Com: -0.129D+00 0.365D+00 0.848D+00
 Coeff:     -0.184D-04 0.235D-04 0.230D-03-0.608D-04 0.282D-02 0.130D-02
 Coeff:     -0.811D-02-0.276D-01 0.183D-01 0.787D-01-0.713D-02-0.143D+00
 Coeff:     -0.129D+00 0.365D+00 0.848D+00
 Gap=     0.041 Goal=   None    Shift=    0.000
 Gap=     0.045 Goal=   None    Shift=    0.000
 RMSDP=9.87D-07 MaxDP=5.99D-05 DE=-2.25D-09 OVMax= 5.97D-05

 Cycle  16  Pass 1  IDiag  1:
 E= -1136.11468046323     Delta-E=       -0.000000000284 Rises=F Damp=F
 DIIS: error= 1.64D-07 at cycle  16 NSaved=  16.
 NSaved=16 IEnMin=16 EnMin= -1136.11468046323     IErMin=16 ErrMin= 1.64D-07
 ErrMax= 1.64D-07  0.00D+00 EMaxC= 1.00D-01 BMatC= 1.01D-11 BMatP= 5.14D-11
 IDIUse=1 WtCom= 1.00D+00 WtEn= 0.00D+00
 Coeff-Com: -0.478D-05 0.561D-05-0.568D-04-0.463D-04 0.369D-03 0.131D-02
 Coeff-Com:  0.819D-03-0.341D-02-0.121D-01 0.550D-02 0.540D-01 0.872D-02
 Coeff-Com: -0.114D+00-0.131D+00 0.192D+00 0.998D+00
 Coeff:     -0.478D-05 0.561D-05-0.568D-04-0.463D-04 0.369D-03 0.131D-02
 Coeff:      0.819D-03-0.341D-02-0.121D-01 0.550D-02 0.540D-01 0.872D-02
 Coeff:     -0.114D+00-0.131D+00 0.192D+00 0.998D+00
 Gap=     0.041 Goal=   None    Shift=    0.000
 Gap=     0.045 Goal=   None    Shift=    0.000
 RMSDP=4.40D-07 MaxDP=2.96D-05 DE=-2.84D-10 OVMax= 2.00D-05

 Cycle  17  Pass 1  IDiag  1:
 E= -1136.11468046331     Delta-E=       -0.000000000080 Rises=F Damp=F
 DIIS: error= 9.58D-08 at cycle  17 NSaved=  17.
 NSaved=17 IEnMin=17 EnMin= -1136.11468046331     IErMin=17 ErrMin= 9.58D-08
 ErrMax= 9.58D-08  0.00D+00 EMaxC= 1.00D-01 BMatC= 1.84D-12 BMatP= 1.01D-11
 IDIUse=1 WtCom= 1.00D+00 WtEn= 0.00D+00
 Coeff-Com:  0.634D-05-0.822D-05-0.565D-04 0.273D-04-0.799D-03-0.428D-03
 Coeff-Com:  0.194D-02 0.794D-02-0.417D-02-0.228D-01 0.205D-02 0.397D-01
 Coeff-Com:  0.332D-01-0.102D+00-0.171D+00-0.314D-02 0.122D+01
 Coeff:      0.634D-05-0.822D-05-0.565D-04 0.273D-04-0.799D-03-0.428D-03
 Coeff:      0.194D-02 0.794D-02-0.417D-02-0.228D-01 0.205D-02 0.397D-01
 Coeff:      0.332D-01-0.102D+00-0.171D+00-0.314D-02 0.122D+01
 Gap=     0.041 Goal=   None    Shift=    0.000
 Gap=     0.045 Goal=   None    Shift=    0.000
 RMSDP=2.52D-07 MaxDP=1.44D-05 DE=-8.05D-11 OVMax= 9.21D-06

 Cycle  18  Pass 1  IDiag  1:
 E= -1136.11468046332     Delta-E=       -0.000000000012 Rises=F Damp=F
 DIIS: error= 2.53D-08 at cycle  18 NSaved=  18.
 NSaved=18 IEnMin=18 EnMin= -1136.11468046332     IErMin=18 ErrMin= 2.53D-08
 ErrMax= 2.53D-08  0.00D+00 EMaxC= 1.00D-01 BMatC= 2.86D-13 BMatP= 1.84D-12
 IDIUse=1 WtCom= 1.00D+00 WtEn= 0.00D+00
 Coeff-Com:  0.571D-06-0.615D-06 0.545D-05 0.471D-05-0.966D-04-0.172D-03
 Coeff-Com: -0.905D-04 0.546D-03 0.196D-02-0.118D-02-0.978D-02-0.420D-03
 Coeff-Com:  0.211D-01 0.155D-01-0.235D-01-0.189D+00 0.445D-01 0.114D+01
 Coeff:      0.571D-06-0.615D-06 0.545D-05 0.471D-05-0.966D-04-0.172D-03
 Coeff:     -0.905D-04 0.546D-03 0.196D-02-0.118D-02-0.978D-02-0.420D-03
 Coeff:      0.211D-01 0.155D-01-0.235D-01-0.189D+00 0.445D-01 0.114D+01
 Gap=     0.041 Goal=   None    Shift=    0.000
 Gap=     0.045 Goal=   None    Shift=    0.000
 RMSDP=1.30D-07 MaxDP=1.00D-05 DE=-1.23D-11 OVMax= 4.16D-06

 Cycle  19  Pass 1  IDiag  1:
 E= -1136.11468046332     Delta-E=        0.000000000001 Rises=F Damp=F
 DIIS: error= 1.24D-08 at cycle  19 NSaved=  19.
 NSaved=19 IEnMin=18 EnMin= -1136.11468046332     IErMin=19 ErrMin= 1.24D-08
 ErrMax= 1.24D-08  0.00D+00 EMaxC= 1.00D-01 BMatC= 4.54D-14 BMatP= 2.86D-13
 IDIUse=1 WtCom= 1.00D+00 WtEn= 0.00D+00
 Coeff-Com: -0.849D-06 0.110D-05 0.814D-05-0.256D-05 0.106D-03 0.369D-04
 Coeff-Com: -0.295D-03-0.954D-03 0.737D-03 0.306D-02-0.123D-02-0.566D-02
 Coeff-Com: -0.234D-02 0.164D-01 0.158D-01-0.749D-02-0.160D+00 0.452D-01
 Coeff-Com:  0.110D+01
 Coeff:     -0.849D-06 0.110D-05 0.814D-05-0.256D-05 0.106D-03 0.369D-04
 Coeff:     -0.295D-03-0.954D-03 0.737D-03 0.306D-02-0.123D-02-0.566D-02
 Coeff:     -0.234D-02 0.164D-01 0.158D-01-0.749D-02-0.160D+00 0.452D-01
 Coeff:      0.110D+01
 Gap=     0.041 Goal=   None    Shift=    0.000
 Gap=     0.045 Goal=   None    Shift=    0.000
 RMSDP=4.84D-08 MaxDP=4.25D-06 DE= 1.36D-12 OVMax= 1.35D-06

 Cycle  20  Pass 1  IDiag  1:
 E= -1136.11468046331     Delta-E=        0.000000000003 Rises=F Damp=F
 DIIS: error= 6.81D-09 at cycle  20 NSaved=  20.
 NSaved=20 IEnMin=18 EnMin= -1136.11468046332     IErMin=20 ErrMin= 6.81D-09
 ErrMax= 6.81D-09  0.00D+00 EMaxC= 1.00D-01 BMatC= 1.22D-14 BMatP= 4.54D-14
 IDIUse=1 WtCom= 1.00D+00 WtEn= 0.00D+00
 Coeff-Com: -0.410D-06 0.512D-06 0.201D-05-0.146D-05 0.485D-04 0.460D-04
 Coeff-Com: -0.541D-04-0.416D-03-0.150D-03 0.109D-02 0.161D-02-0.131D-02
 Coeff-Com: -0.498D-02 0.141D-02 0.779D-02 0.378D-01-0.497D-01-0.232D+00
 Coeff-Com:  0.317D+00 0.922D+00
 Coeff:     -0.410D-06 0.512D-06 0.201D-05-0.146D-05 0.485D-04 0.460D-04
 Coeff:     -0.541D-04-0.416D-03-0.150D-03 0.109D-02 0.161D-02-0.131D-02
 Coeff:     -0.498D-02 0.141D-02 0.779D-02 0.378D-01-0.497D-01-0.232D+00
 Coeff:      0.317D+00 0.922D+00
 Gap=     0.041 Goal=   None    Shift=    0.000
 Gap=     0.045 Goal=   None    Shift=    0.000
 RMSDP=1.83D-08 MaxDP=1.18D-06 DE= 3.18D-12 OVMax= 5.46D-07

 Cycle  21  Pass 1  IDiag  1:
 E= -1136.11468046332     Delta-E=       -0.000000000003 Rises=F Damp=F
 DIIS: error= 1.66D-09 at cycle  21 NSaved=  20.
 NSaved=20 IEnMin=17 EnMin= -1136.11468046332     IErMin=20 ErrMin= 1.66D-09
 ErrMax= 1.66D-09  0.00D+00 EMaxC= 1.00D-01 BMatC= 1.20D-15 BMatP= 1.22D-14
 IDIUse=1 WtCom= 1.00D+00 WtEn= 0.00D+00
 Large coefficients: NSaved= 20 BigCof=    0.00 CofMax=   10.00 Det=-4.71D-15
 Inversion failed.  Reducing to 19 matrices.
 Large coefficients: NSaved= 19 BigCof=    0.00 CofMax=   10.00 Det=-4.93D-15
 Inversion failed.  Reducing to 18 matrices.
 Large coefficients: NSaved= 18 BigCof=    0.00 CofMax=   10.00 Det=-4.93D-15
 Inversion failed.  Reducing to 17 matrices.
 Large coefficients: NSaved= 17 BigCof=    0.00 CofMax=   10.00 Det=-4.93D-15
 Inversion failed.  Reducing to 16 matrices.
 Large coefficients: NSaved= 16 BigCof=    0.00 CofMax=   10.00 Det=-5.84D-15
 Inversion failed.  Reducing to 15 matrices.
 Coeff-Com: -0.607D-06-0.119D-04-0.398D-04-0.543D-05 0.329D-03 0.565D-04
 Coeff-Com: -0.711D-03-0.866D-03 0.167D-02 0.279D-02 0.716D-02-0.201D-01
 Coeff-Com: -0.134D+00 0.339D-01 0.111D+01
 Coeff:     -0.607D-06-0.119D-04-0.398D-04-0.543D-05 0.329D-03 0.565D-04
 Coeff:     -0.711D-03-0.866D-03 0.167D-02 0.279D-02 0.716D-02-0.201D-01
 Coeff:     -0.134D+00 0.339D-01 0.111D+01
 Gap=     0.041 Goal=   None    Shift=    0.000
 Gap=     0.045 Goal=   None    Shift=    0.000
 RMSDP=8.46D-09 MaxDP=5.31D-07 DE=-2.73D-12 OVMax= 2.33D-07

 SCF Done:  E(UB3LYP) =  -1136.11468046     A.U. after   21 cycles
            NFock= 21  Conv=0.85D-08     -V/T= 2.0028
 <Sx>= 0.0000 <Sy>= 0.0000 <Sz>= 0.5000 <S**2>= 0.7628 S= 0.5064
 <L.S>= 0.000000000000E+00
 KE= 1.132910906302D+03 PE=-3.305598243801D+03 EE= 7.483589778442D+02
 Annihilation of the first spin contaminant:
 S**2 before annihilation     0.7628,   after     0.7501
 Leave Link  502 at Tue Nov 28 22:57:05 2023, MaxMem=  1879048192 cpu:             181.3 elap:              16.6
 (Enter /home/sekinelabo/g16/l601.exe)
 Copying SCF densities to generalized density rwf, IOpCl= 1 IROHF=0.

 **********************************************************************

            Population analysis using the SCF Density.

 **********************************************************************

 Orbital symmetries:
 Alpha Orbitals:
       Occupied  (A) (A) (A) (A) (A) (A) (A) (A) (A) (A) (A) (A)
                 (A) (A) (A) (A) (A) (A) (A) (A) (A) (A) (A) (A)
                 (A) (A) (A) (A) (A) (A) (A) (A) (A) (A) (A) (A)
                 (A) (A) (A)
       Virtual   (A) (A) (A) (A) (A) (A) (A) (A) (A) (A) (A) (A)
                 (A) (A) (A) (A) (A) (A) (A) (A) (A) (A) (A) (A)
                 (A) (A) (A) (A) (A) (A) (A) (A) (A) (A) (A) (A)
                 (A) (A) (A) (A) (A) (A) (A) (A) (A) (A) (A) (A)
                 (A) (A) (A) (A) (A) (A) (A) (A) (A) (A) (A) (A)
                 (A) (A) (A) (A) (A) (A) (A) (A) (A) (A) (A) (A)
                 (A) (A) (A) (A) (A) (A) (A) (A) (A) (A) (A) (A)
                 (A) (A) (A) (A) (A) (A) (A) (A) (A) (A) (A) (A)
                 (A) (A) (A) (A) (A) (A) (A) (A) (A) (A) (A) (A)
                 (A) (A) (A) (A) (A) (A) (A) (A) (A) (A) (A) (A)
                 (A) (A) (A) (A) (A) (A) (A) (A) (A) (A) (A) (A)
                 (A) (A) (A) (A) (A) (A) (A) (A) (A) (A) (A) (A)
                 (A) (A) (A) (A) (A) (A) (A) (A) (A) (A) (A) (A)
                 (A) (A) (A) (A) (A) (A) (A) (A) (A) (A) (A) (A)
                 (A) (A) (A)
 Beta  Orbitals:
       Occupied  (A) (A) (A) (A) (A) (A) (A) (A) (A) (A) (A) (A)
                 (A) (A) (A) (A) (A) (A) (A) (A) (A) (A) (A) (A)
                 (A) (A) (A) (A) (A) (A) (A) (A) (A) (A) (A) (A)
                 (A) (A)
       Virtual   (A) (A) (A) (A) (A) (A) (A) (A) (A) (A) (A) (A)
                 (A) (A) (A) (A) (A) (A) (A) (A) (A) (A) (A) (A)
                 (A) (A) (A) (A) (A) (A) (A) (A) (A) (A) (A) (A)
                 (A) (A) (A) (A) (A) (A) (A) (A) (A) (A) (A) (A)
                 (A) (A) (A) (A) (A) (A) (A) (A) (A) (A) (A) (A)
                 (A) (A) (A) (A) (A) (A) (A) (A) (A) (A) (A) (A)
                 (A) (A) (A) (A) (A) (A) (A) (A) (A) (A) (A) (A)
                 (A) (A) (A) (A) (A) (A) (A) (A) (A) (A) (A) (A)
                 (A) (A) (A) (A) (A) (A) (A) (A) (A) (A) (A) (A)
                 (A) (A) (A) (A) (A) (A) (A) (A) (A) (A) (A) (A)
                 (A) (A) (A) (A) (A) (A) (A) (A) (A) (A) (A) (A)
                 (A) (A) (A) (A) (A) (A) (A) (A) (A) (A) (A) (A)
                 (A) (A) (A) (A) (A) (A) (A) (A) (A) (A) (A) (A)
                 (A) (A) (A) (A) (A) (A) (A) (A) (A) (A) (A) (A)
                 (A) (A) (A) (A)
 The electronic state is 2-A.
 Alpha  occ. eigenvalues --  -38.44336 -38.44317 -38.44196 -38.44034 -38.43993
 Alpha  occ. eigenvalues --  -38.43992 -38.43908  -2.20232  -2.20147  -2.20033
 Alpha  occ. eigenvalues --   -2.19936  -2.19843  -2.19827  -2.19677  -1.14061
 Alpha  occ. eigenvalues --   -1.13893  -1.13823  -1.13818  -1.13806  -1.13783
 Alpha  occ. eigenvalues --   -1.13721  -1.13696  -1.13665  -1.13577  -1.13561
 Alpha  occ. eigenvalues --   -1.13543  -1.13539  -1.13519  -1.13509  -1.13481
 Alpha  occ. eigenvalues --   -1.13467  -1.13402  -1.13342  -1.13340  -1.13310
 Alpha  occ. eigenvalues --   -0.17174  -0.14640  -0.11585  -0.10440
 Alpha virt. eigenvalues --   -0.06366  -0.05732  -0.05285  -0.03209  -0.02816
 Alpha virt. eigenvalues --   -0.02388  -0.02264  -0.01398  -0.00850  -0.00664
 Alpha virt. eigenvalues --   -0.00169  -0.00026   0.00100   0.00283   0.00656
 Alpha virt. eigenvalues --    0.00720   0.00776   0.01051   0.01144   0.01330
 Alpha virt. eigenvalues --    0.01380   0.01443   0.01600   0.01657   0.01801
 Alpha virt. eigenvalues --    0.02053   0.02085   0.02136   0.02231   0.02347
 Alpha virt. eigenvalues --    0.02396   0.02526   0.02772   0.02940   0.02955
 Alpha virt. eigenvalues --    0.03135   0.03291   0.03352   0.03492   0.03576
 Alpha virt. eigenvalues --    0.03688   0.03877   0.04017   0.04191   0.04326
 Alpha virt. eigenvalues --    0.04515   0.04878   0.05164   0.05260   0.05482
 Alpha virt. eigenvalues --    0.05758   0.06193   0.06635   0.07050   0.07212
 Alpha virt. eigenvalues --    0.07484   0.07580   0.07745   0.08457   0.08636
 Alpha virt. eigenvalues --    0.08997   0.09356   0.09377   0.09529   0.10003
 Alpha virt. eigenvalues --    0.10332   0.10922   0.11113   0.12057   0.12356
 Alpha virt. eigenvalues --    0.12728   0.13111   0.13418   0.13573   0.13853
 Alpha virt. eigenvalues --    0.14316   0.14703   0.15534   0.15861   0.16731
 Alpha virt. eigenvalues --    0.26098   0.26790   0.28510   0.28572   0.29341
 Alpha virt. eigenvalues --    0.30213   0.30908   0.31138   0.32144   0.32641
 Alpha virt. eigenvalues --    0.33327   0.33407   0.34254   0.35777   0.36040
 Alpha virt. eigenvalues --    0.36618   0.37225   0.38720   0.40128   0.41189
 Alpha virt. eigenvalues --    0.42288   0.43085   0.43398   0.43689   0.43762
 Alpha virt. eigenvalues --    0.44051   0.44116   0.44232   0.44628   0.44952
 Alpha virt. eigenvalues --    0.45225   0.45525   0.45860   0.46316   0.46415
 Alpha virt. eigenvalues --    0.46743   0.47403   0.47702   0.48039   0.48242
 Alpha virt. eigenvalues --    0.49080   0.50068   0.51403   0.51509   0.51775
 Alpha virt. eigenvalues --    0.52755   0.53222   0.55053   0.55663   0.56595
 Alpha virt. eigenvalues --    0.58183   0.60242   0.64755   0.65473   0.66027
 Alpha virt. eigenvalues --    0.78006   2.03729   2.07384   2.11551   2.14864
 Alpha virt. eigenvalues --    2.16834   2.17453   2.21006   4.42350   4.42916
 Alpha virt. eigenvalues --    4.43192   4.44229   4.44448   4.44770   4.45027
 Alpha virt. eigenvalues --    4.45367   4.45651   4.45855   4.46426   4.46730
 Alpha virt. eigenvalues --    4.47863   4.48772   4.49473   4.51266   4.51931
 Alpha virt. eigenvalues --    4.54458   4.56476   4.59497   4.72941  96.23208
 Alpha virt. eigenvalues --   96.27656  96.32726  96.37073  96.39661  96.40890
 Alpha virt. eigenvalues --   96.44036
  Beta  occ. eigenvalues --  -38.44315 -38.44267 -38.44191 -38.44007 -38.43983
  Beta  occ. eigenvalues --  -38.43947 -38.43908  -2.20194  -2.20052  -2.20024
  Beta  occ. eigenvalues --   -2.19889  -2.19811  -2.19759  -2.19676  -1.14036
  Beta  occ. eigenvalues --   -1.13868  -1.13786  -1.13754  -1.13744  -1.13711
  Beta  occ. eigenvalues --   -1.13709  -1.13689  -1.13652  -1.13544  -1.13524
  Beta  occ. eigenvalues --   -1.13495  -1.13489  -1.13482  -1.13470  -1.13454
  Beta  occ. eigenvalues --   -1.13446  -1.13348  -1.13341  -1.13340  -1.13309
  Beta  occ. eigenvalues --   -0.16631  -0.14418  -0.11429
  Beta virt. eigenvalues --   -0.06924  -0.06087  -0.05148  -0.04969  -0.03069
  Beta virt. eigenvalues --   -0.02416  -0.02193  -0.01681  -0.01358  -0.00580
  Beta virt. eigenvalues --   -0.00433   0.00017   0.00144   0.00309   0.00419
  Beta virt. eigenvalues --    0.00703   0.00768   0.00862   0.01139   0.01287
  Beta virt. eigenvalues --    0.01435   0.01496   0.01508   0.01692   0.01714
  Beta virt. eigenvalues --    0.01949   0.02102   0.02159   0.02191   0.02341
  Beta virt. eigenvalues --    0.02403   0.02468   0.02594   0.02884   0.02983
  Beta virt. eigenvalues --    0.03080   0.03261   0.03325   0.03408   0.03583
  Beta virt. eigenvalues --    0.03642   0.03722   0.03940   0.04130   0.04317
  Beta virt. eigenvalues --    0.04514   0.04684   0.04966   0.05250   0.05349
  Beta virt. eigenvalues --    0.05593   0.05871   0.06250   0.06752   0.07120
  Beta virt. eigenvalues --    0.07348   0.07493   0.07648   0.07791   0.08536
  Beta virt. eigenvalues --    0.08715   0.09066   0.09454   0.09555   0.09742
  Beta virt. eigenvalues --    0.10194   0.10613   0.11078   0.11352   0.12217
  Beta virt. eigenvalues --    0.12728   0.13048   0.13341   0.13538   0.13681
  Beta virt. eigenvalues --    0.14062   0.14549   0.14926   0.15713   0.16050
  Beta virt. eigenvalues --    0.16946   0.26262   0.27064   0.28710   0.28797
  Beta virt. eigenvalues --    0.29560   0.30374   0.31133   0.31350   0.32419
  Beta virt. eigenvalues --    0.32778   0.33522   0.33626   0.34398   0.35936
  Beta virt. eigenvalues --    0.36162   0.36722   0.37348   0.38953   0.40450
  Beta virt. eigenvalues --    0.41382   0.42613   0.43169   0.43534   0.43778
  Beta virt. eigenvalues --    0.43929   0.44137   0.44255   0.44376   0.44710
  Beta virt. eigenvalues --    0.45093   0.45389   0.45698   0.45981   0.46430
  Beta virt. eigenvalues --    0.46534   0.46939   0.47499   0.47805   0.48146
  Beta virt. eigenvalues --    0.48496   0.49294   0.50234   0.51568   0.51707
  Beta virt. eigenvalues --    0.51939   0.52920   0.53394   0.55256   0.55754
  Beta virt. eigenvalues --    0.56822   0.58352   0.60401   0.64976   0.65619
  Beta virt. eigenvalues --    0.66087   0.78117   2.03830   2.07431   2.11619
  Beta virt. eigenvalues --    2.15021   2.16943   2.17571   2.21087   4.42390
  Beta virt. eigenvalues --    4.42942   4.43207   4.44261   4.44469   4.44790
  Beta virt. eigenvalues --    4.45073   4.45420   4.45662   4.45881   4.46469
  Beta virt. eigenvalues --    4.46778   4.47900   4.48828   4.49519   4.51311
  Beta virt. eigenvalues --    4.51956   4.54528   4.56483   4.59537   4.72963
  Beta virt. eigenvalues --   96.23244  96.27673  96.32753  96.37122  96.39689
  Beta virt. eigenvalues --   96.40925  96.44062
          Condensed to atoms (all electrons):
               1          2          3          4          5          6
     1  Na  12.431050   0.103362  -0.166460  -0.989970  -0.425780   0.300976
     2  Na   0.103362  10.613334   0.129690   0.025549  -0.077279  -0.044593
     3  Na  -0.166460   0.129690  11.138718  -0.045145   0.026525   0.077510
     4  Na  -0.989970   0.025549  -0.045145  11.613754   0.386154  -0.201203
     5  Na  -0.425780  -0.077279   0.026525   0.386154  11.642349   0.289246
     6  Na   0.300976  -0.044593   0.077510  -0.201203   0.289246  10.850837
     7  Na   0.038542   0.055765  -0.101595   0.082363  -0.360615  -0.102061
               7
     1  Na   0.038542
     2  Na   0.055765
     3  Na  -0.101595
     4  Na   0.082363
     5  Na  -0.360615
     6  Na  -0.102061
     7  Na  10.707994
          Atomic-Atomic Spin Densities.
               1          2          3          4          5          6
     1  Na   1.229644   0.072248  -0.242029  -0.408817  -0.457890   0.246923
     2  Na   0.072248  -0.020605  -0.036597   0.003606  -0.014590   0.014144
     3  Na  -0.242029  -0.036597   0.093152   0.053908   0.057629  -0.033071
     4  Na  -0.408817   0.003606   0.053908   0.331774   0.230502  -0.091686
     5  Na  -0.457890  -0.014590   0.057629   0.230502   0.779129  -0.186814
     6  Na   0.246923   0.014144  -0.033071  -0.091686  -0.186814   0.141976
     7  Na   0.097113   0.004674  -0.012269  -0.017269  -0.155446   0.059628
               7
     1  Na   0.097113
     2  Na   0.004674
     3  Na  -0.012269
     4  Na  -0.017269
     5  Na  -0.155446
     6  Na   0.059628
     7  Na   0.077139
 Mulliken charges and spin densities:
               1          2
     1  Na  -0.291721   0.537192
     2  Na   0.194172   0.022879
     3  Na  -0.059244  -0.119277
     4  Na   0.128497   0.102017
     5  Na  -0.480600   0.252519
     6  Na  -0.170712   0.151099
     7  Na   0.679607   0.053570
 Sum of Mulliken charges =  -0.00000   1.00000
 Mulliken charges and spin densities with hydrogens summed into heavy atoms:
               1          2
     1  Na  -0.291721   0.537192
     2  Na   0.194172   0.022879
     3  Na  -0.059244  -0.119277
     4  Na   0.128497   0.102017
     5  Na  -0.480600   0.252519
     6  Na  -0.170712   0.151099
     7  Na   0.679607   0.053570
 Electronic spatial extent (au):  <R**2>=           4295.5750
 Charge=             -0.0000 electrons
 Dipole moment (field-independent basis, Debye):
    X=              0.5737    Y=             -0.2121    Z=              0.0663  Tot=              0.6153
 Quadrupole moment (field-independent basis, Debye-Ang):
   XX=            -60.5586   YY=            -70.4293   ZZ=            -69.3068
   XY=              3.9817   XZ=             -3.4089   YZ=             -1.2498
 Traceless Quadrupole moment (field-independent basis, Debye-Ang):
   XX=              6.2063   YY=             -3.6644   ZZ=             -2.5419
   XY=              3.9817   XZ=             -3.4089   YZ=             -1.2498
 Octapole moment (field-independent basis, Debye-Ang**2):
  XXX=             55.2836  YYY=              1.0215  ZZZ=              6.7587  XYY=             -1.8026
  XXY=            -30.7932  XXZ=             16.8187  XZZ=             -1.6318  YZZ=              2.3555
  YYZ=             -7.7537  XYZ=             -0.1603
 Hexadecapole moment (field-independent basis, Debye-Ang**3):
 XXXX=          -4905.6574 YYYY=          -1002.3727 ZZZZ=           -416.8964 XXXY=            109.8864
 XXXZ=           -201.8311 YYYX=             55.9784 YYYZ=            -18.3620 ZZZX=            -20.0100
 ZZZY=             -8.7482 XXYY=          -1166.4179 XXZZ=          -1104.3624 YYZZ=           -238.5812
 XXYZ=            -13.4831 YYXZ=              5.5581 ZZXY=             -1.6118
 N-N= 2.882136791921D+02 E-N=-3.305598243732D+03  KE= 1.132910906302D+03
                          Isotropic Fermi Contact Couplings
        Atom                 a.u.       MegaHertz       Gauss      10(-4) cm-1
     1  Na(23)             0.07640      90.38145      32.25035      30.14801
     2  Na(23)             0.00071       0.84011       0.29977       0.28023
     3  Na(23)             0.01053      12.46076       4.44631       4.15646
     4  Na(23)             0.07331      86.73170      30.94803      28.93058
     5  Na(23)             0.16681     197.34170      70.41643      65.82611
     6  Na(23)             0.20354     240.79826      85.92281      80.32165
     7  Na(23)             0.02209      26.13777       9.32661       8.71862
 --------------------------------------------------------
       Center         ----  Spin Dipole Couplings  ----
                      3XX-RR        3YY-RR        3ZZ-RR
 --------------------------------------------------------
     1   Atom       -0.010738      0.027239     -0.016501
     2   Atom        0.000819     -0.000450     -0.000369
     3   Atom        0.001885      0.000509     -0.002394
     4   Atom        0.006197      0.003171     -0.009368
     5   Atom        0.000548      0.010659     -0.011207
     6   Atom        0.007031     -0.003034     -0.003997
     7   Atom       -0.006702      0.014019     -0.007318
 --------------------------------------------------------
                        XY            XZ            YZ
 --------------------------------------------------------
     1   Atom        0.006277     -0.002007     -0.006575
     2   Atom       -0.000654     -0.000021      0.000674
     3   Atom        0.011741      0.005439      0.004702
     4   Atom       -0.012762     -0.002181     -0.001337
     5   Atom       -0.000648     -0.001071      0.006552
     6   Atom       -0.006500     -0.006184      0.003925
     7   Atom        0.006552      0.000307      0.001547
 --------------------------------------------------------


 ---------------------------------------------------------------------------------
              Anisotropic Spin Dipole Couplings in Principal Axis System
 ---------------------------------------------------------------------------------

       Atom             a.u.   MegaHertz   Gauss  10(-4) cm-1        Axes

              Baa    -0.0177    -2.494    -0.890    -0.832  0.1759  0.1185  0.9773
     1 Na(23) Bbb    -0.0116    -1.639    -0.585    -0.547  0.9712 -0.1828 -0.1526
              Bcc     0.0293     4.132     1.475     1.378  0.1605  0.9760 -0.1473
 
              Baa    -0.0012    -0.169    -0.060    -0.056  0.2389  0.7568 -0.6085
     2 Na(23) Bbb     0.0000     0.006     0.002     0.002  0.4264  0.4813  0.7659
              Bcc     0.0012     0.163     0.058     0.054  0.8724 -0.4424 -0.2077
 
              Baa    -0.0106    -1.494    -0.533    -0.498 -0.6966  0.7156  0.0519
     3 Na(23) Bbb    -0.0052    -0.736    -0.263    -0.246 -0.2299 -0.2912  0.9286
              Bcc     0.0158     2.231     0.796     0.744  0.6796  0.6350  0.3674
 
              Baa    -0.0113    -1.596    -0.569    -0.532  0.4241  0.4468  0.7877
     4 Na(23) Bbb    -0.0063    -0.883    -0.315    -0.295 -0.5090 -0.6019  0.6154
              Bcc     0.0176     2.479     0.885     0.827  0.7490 -0.6619 -0.0278
 
              Baa    -0.0131    -1.846    -0.659    -0.616  0.0632 -0.2640  0.9625
     5 Na(23) Bbb     0.0005     0.075     0.027     0.025  0.9951  0.0900 -0.0406
              Bcc     0.0125     1.771     0.632     0.591 -0.0759  0.9603  0.2684
 
              Baa    -0.0075    -1.058    -0.378    -0.353  0.0735 -0.5963  0.7994
     6 Na(23) Bbb    -0.0058    -0.819    -0.292    -0.273  0.5675  0.6841  0.4582
              Bcc     0.0133     1.877     0.670     0.626  0.8201 -0.4200 -0.3887
 
              Baa    -0.0086    -1.217    -0.434    -0.406  0.9524 -0.2834  0.1123
     7 Na(23) Bbb    -0.0074    -1.046    -0.373    -0.349 -0.1267 -0.0328  0.9914
              Bcc     0.0160     2.263     0.807     0.755  0.2773  0.9584  0.0672
 

 ---------------------------------------------------------------------------------

 No NMR shielding tensors so no spin-rotation constants.
 Leave Link  601 at Tue Nov 28 22:57:05 2023, MaxMem=  1879048192 cpu:               2.3 elap:               0.2
 (Enter /home/sekinelabo/g16/l701.exe)
 ... and contract with generalized density number  0.
 Compute integral first derivatives.
 Leave Link  701 at Tue Nov 28 22:57:05 2023, MaxMem=  1879048192 cpu:               1.5 elap:               0.1
 (Enter /home/sekinelabo/g16/l702.exe)
 L702 exits ... SP integral derivatives will be done elsewhere.
 Leave Link  702 at Tue Nov 28 22:57:05 2023, MaxMem=  1879048192 cpu:               0.5 elap:               0.0
 (Enter /home/sekinelabo/g16/l703.exe)
 Integral derivatives from FoFJK, PRISM(SPDF).
 Compute integral first derivatives, UseDBF=F ICtDFT=           0.
 Calling FoFJK, ICntrl=      2127 FMM=F ISym2X=0 I1Cent= 0 IOpClX= 1 NMat=1 NMatS=1 NMatT=0.
 FoFJK:  IHMeth= 1 ICntrl=    2127 DoSepK=F KAlg= 0 I1Cent=           0 FoldK=F
 IRaf=         0 NMat=       1 IRICut=       1 DoRegI=T DoRafI=F ISym2E= 0 IDoP0=0 IntGTp=1.
 FoFCou: FMM=F IPFlag=           0 FMFlag=      100000 FMFlg1=         800
         NFxFlg=           0 DoJE=F BraDBF=F KetDBF=F FulRan=T
         wScrn=  0.000000 ICntrl=      2127 IOpCl=  1 I1Cent=           0 NGrid=           0
         NMat0=    1 NMatS0=      1 NMatT0=    0 NMatD0=    1 NMtDS0=    0 NMtDT0=    0
 Symmetry not used in FoFCou.
 Leave Link  703 at Tue Nov 28 22:57:07 2023, MaxMem=  1879048192 cpu:              29.0 elap:               2.0
 (Enter /home/sekinelabo/g16/l716.exe)
 Dipole        = 2.25717282D-01-8.34658033D-02 2.60885683D-02
 ***** Axes restored to original set *****
 -------------------------------------------------------------------
 Center     Atomic                   Forces (Hartrees/Bohr)
 Number     Number              X              Y              Z
 -------------------------------------------------------------------
      1       11           0.005029395    0.007843950    0.004006394
      2       11           0.001548052    0.001283795   -0.001363101
      3       11          -0.002759913   -0.000461489    0.001101999
      4       11           0.000150456   -0.006911635   -0.005472420
      5       11          -0.002854551   -0.000735867    0.000753056
      6       11          -0.002703181   -0.000614050    0.001825811
      7       11           0.001589743   -0.000404704   -0.000851739
 -------------------------------------------------------------------
 Cartesian Forces:  Max     0.007843950 RMS     0.003231193
 Z-matrix is all fixed cartesians, so copy forces.
 Force constants in Cartesian coordinates: 
                1             2             3             4             5 
      1  0.639132D-01
      2  0.564528D-02  0.659029D-01
      3  0.138659D-02  0.199865D-01  0.882039D-01
      4 -0.153775D-02 -0.313082D-02  0.251229D-02  0.172147D-01
      5  0.797456D-03  0.161222D-02 -0.130573D-02  0.551004D-02  0.145377D-01
      6 -0.139894D-02 -0.286725D-02  0.228066D-02 -0.376848D-02 -0.692974D-02
      7 -0.161743D-01  0.678477D-02  0.419310D-03 -0.131216D-01 -0.920720D-02
      8 -0.695705D-02 -0.115982D-01  0.228874D-02  0.450800D-03 -0.194024D-01
      9 -0.133522D-01  0.115839D-01 -0.236031D-01 -0.312050D-03  0.100156D-01
     10 -0.250765D-01 -0.759747D-02  0.935814D-03 -0.255828D-02  0.289830D-02
     11 -0.688778D-02 -0.324326D-01 -0.142828D-01 -0.280591D-02  0.318579D-02
     12 -0.443436D-02 -0.314051D-01 -0.338477D-01  0.155497D-02 -0.180968D-02
     13 -0.118318D-01  0.393601D-02 -0.403736D-02  0.000000D+00  0.982697D-05
     14  0.118896D-02 -0.165479D-01 -0.318180D-02 -0.147684D-04  0.408656D-04
     15  0.965623D-02 -0.103291D-01 -0.208660D-01  0.222042D-04  0.481249D-05
     16 -0.784614D-02 -0.457013D-02 -0.203449D-02  0.304451D-05 -0.842235D-05
     17  0.780441D-02 -0.141941D-01 -0.448385D-02 -0.934490D-05  0.258518D-04
     18  0.431232D-02  0.116126D-01 -0.138519D-01 -0.892967D-05  0.247031D-04
     19 -0.144671D-02 -0.106764D-02  0.817838D-03  0.000000D+00  0.000000D+00
     20 -0.159129D-02  0.725763D-02  0.978880D-03  0.000000D+00  0.000000D+00
     21  0.383034D-02  0.141849D-02  0.168405D-02  0.000000D+00  0.000000D+00
                6             7             8             9            10 
      6  0.621264D-02
      7  0.485437D-02  0.460465D-01
      8  0.938139D-02  0.122324D-04  0.527098D-01
      9 -0.830019D-02  0.132603D-03 -0.144181D-01  0.291023D-01
     10  0.305499D-03 -0.126524D-01  0.971779D-02  0.746750D-02  0.565928D-01
     11  0.346708D-03 -0.238698D-02 -0.273086D-01 -0.471410D-02  0.777453D-02
     12 -0.266163D-03 -0.245076D-02  0.420880D-02 -0.374083D-02 -0.108451D-03
     13  0.162548D-04 -0.263060D-02 -0.461972D-03  0.363887D-02 -0.196726D-01
     14  0.421945D-04  0.408077D-02  0.427931D-02 -0.122944D-02 -0.911051D-02
     15  0.475519D-04 -0.177645D-02  0.782997D-03  0.485397D-02 -0.658864D-02
     16 -0.869489D-05 -0.145176D-02 -0.274819D-02  0.241031D-02  0.195416D-02
     17  0.266883D-04  0.718091D-03  0.128869D-02 -0.120642D-02 -0.219704D-02
     18  0.255025D-04 -0.113301D-02 -0.223196D-02  0.179411D-02 -0.264799D-02
     19  0.000000D+00 -0.157851D-04 -0.136201D-04  0.149425D-04  0.141287D-02
     20  0.000000D+00 -0.168456D-05  0.313672D-04 -0.314680D-04 -0.148560D-02
     21  0.000000D+00 -0.460677D-04 -0.118916D-04 -0.106277D-03  0.636267D-03
               11            12            13            14            15 
     11  0.810888D-01
     12  0.231144D-01  0.389235D-01
     13  0.140099D-01  0.410762D-02  0.714846D-01
     14 -0.273698D-01  0.475701D-02 -0.900869D-02  0.907974D-01
     15 -0.137226D-02 -0.855705D-02 -0.729351D-02  0.826148D-02  0.457126D-01
     16 -0.578698D-02 -0.111053D-03 -0.143122D-01  0.419665D-02  0.179954D-02
     17 -0.146332D-02  0.206441D-02  0.393811D-02 -0.238721D-01 -0.133868D-02
     18 -0.209851D-02  0.495123D-02  0.238402D-02 -0.455406D-02 -0.922170D-02
     19 -0.391682D-02  0.144203D-02 -0.230373D-01  0.866759D-02  0.418062D-02
     20  0.429964D-02 -0.929813D-03 -0.124232D-01 -0.273278D-01  0.399080D-02
     21 -0.993465D-03  0.253698D-02  0.118409D-02 -0.409539D-02 -0.119694D-01
               16            17            18            19            20 
     16  0.448679D-01
     17 -0.788674D-02  0.580766D-01
     18 -0.117590D-01  0.332887D-02  0.221389D-01
     19 -0.232150D-01 -0.236749D-02  0.885255D-02  0.463019D-01
     20  0.168038D-01 -0.198617D-01 -0.608167D-02 -0.130202D-02  0.356009D-01
     21  0.970335D-02  0.160898D-02 -0.583610D-02 -0.153080D-01  0.207327D-02
               21 
     21  0.136907D-01
 Leave Link  716 at Tue Nov 28 22:57:07 2023, MaxMem=  1879048192 cpu:               0.4 elap:               0.0
 (Enter /home/sekinelabo/g16/l103.exe)

 GradGradGradGradGradGradGradGradGradGradGradGradGradGradGradGradGradGrad
 Berny optimization.
 Search for a local minimum.
 Step number   1 out of a maximum of    2
 All quantities printed in internal units (Hartrees-Bohrs-Radians)
 Second derivative matrix not updated -- first step.
 ITU=  0
     Eigenvalues ---    0.00403   0.00794   0.01280   0.01628   0.03383
     Eigenvalues ---    0.04915   0.05675   0.06458   0.07928   0.08335
     Eigenvalues ---    0.09093   0.09378   0.10313   0.13037   0.15422
 Angle between quadratic step and forces=  51.19 degrees.
 Linear search not attempted -- first point.
 B after Tr=     0.000000   -0.000000    0.000000
         Rot=    1.000000    0.000000    0.000000    0.000000 Ang=   0.00 deg.
 Variable       Old X    -DE/DX   Delta X   Delta X   Delta X     New X
                                 (Linear)    (Quad)   (Total)
    X1       28.59061   0.00503   0.00000   0.06714   0.06714  28.65775
    Y1       29.15980   0.00784   0.00000   0.07831   0.07831  29.23811
    Z1       31.87212   0.00401   0.00000   0.04618   0.04618  31.91830
    X2       18.41978   0.00155   0.00000   0.06962   0.06962  18.48940
    Y2       25.93214   0.00128   0.00000  -0.00335  -0.00335  25.92880
    Z2       31.43729  -0.00136   0.00000  -0.10808  -0.10808  31.32921
    X3       22.59867  -0.00276   0.00000  -0.01314  -0.01314  22.58553
    Y3       29.86844  -0.00046   0.00000   0.02515   0.02515  29.89360
    Z3       29.08761   0.00110   0.00000   0.04791   0.04791  29.13552
    X4       27.24494   0.00015   0.00000   0.02451   0.02451  27.26945
    Y4       25.26318  -0.00691   0.00000  -0.03017  -0.03017  25.23302
    Z4       28.42167  -0.00547   0.00000   0.00217   0.00217  28.42384
    X5       33.88997  -0.00285   0.00000  -0.04961  -0.04961  33.84036
    Y5       27.34396  -0.00074   0.00000  -0.01699  -0.01699  27.32697
    Z5       27.46793   0.00075   0.00000   0.03416   0.03416  27.50208
    X6       33.64695  -0.00270   0.00000  -0.05249  -0.05249  33.59446
    Y6       34.05532  -0.00061   0.00000  -0.01978  -0.01978  34.03554
    Z6       28.47288   0.00183   0.00000   0.03800   0.03800  28.51088
    X7       38.61372   0.00159   0.00000  -0.04603  -0.04603  38.56769
    Y7       31.38211  -0.00040   0.00000  -0.03318  -0.03318  31.34894
    Z7       26.24527  -0.00085   0.00000  -0.06034  -0.06034  26.18494
         Item               Value     Threshold  Converged?
 Maximum Force            0.007844     0.000450     NO 
 RMS     Force            0.003231     0.000300     NO 
 Maximum Displacement     0.108081     0.001800     NO 
 RMS     Displacement     0.048449     0.001200     NO 
 Predicted change in Energy=-1.030189D-03
 GradGradGradGradGradGradGradGradGradGradGradGradGradGradGradGradGradGrad

 Leave Link  103 at Tue Nov 28 22:57:07 2023, MaxMem=  1879048192 cpu:               0.2 elap:               0.0
 (Enter /home/sekinelabo/g16/l9999.exe)
 1\1\GINC-SEKINELABO-XA7R-R37\Force\UB3LYP\6-311+G(d)\Na7(2)\SEKINELABO
 \28-Nov-2023\0\\#P B3LYP/6-311+g(d) force\\DPGEN\\0,2\Na,15.1295,15.43
 07,16.866\Na,9.74733,13.7227,16.6359\Na,11.9587,15.8057,15.3925\Na,14.
 4174,13.3687,15.0401\Na,17.9338,14.4698,14.5354\Na,17.8052,18.0213,15.
 0672\Na,20.4335,16.6067,13.8884\\Version=ES64L-G16RevB.01\State=2-A\HF
 =-1136.1146805\S2=0.762784\S2-1=0.\S2A=0.750078\RMSD=8.459e-09\RMSF=3.
 231e-03\Dipole=0.2377733,-0.0247867,-0.0380118\Quadrupole=1.5461634,-0
 .3052403,-1.240923,4.1942544,-2.5518497,-2.4651704\PG=C01 [X(Na7)]\\@


 Life may have no meaning.  Or even worse, it may have a
 meaning of which I disapprove.
                                 -- Ashleigh Brilliant
 Job cpu time:       0 days  0 hours  3 minutes 46.1 seconds.
 Elapsed time:       0 days  0 hours  0 minutes 19.6 seconds.
 File lengths (MBytes):  RWF=     32 Int=      0 D2E=      0 Chk=      4 Scr=      1
 Normal termination of Gaussian 16 at Tue Nov 28 22:57:07 2023.
