 Set GAUSS_MDEF to "14GB".
 Entering Gaussian System, Link 0=g16
 Initial command:
 /home/sekinelabo/g16/l1.exe "/home/sekinelabo/g16temp/Gau-471159.inp" -scrdir="/home/sekinelabo/g16temp/"
 Entering Link 1 = /home/sekinelabo/g16/l1.exe PID=    471161.
  
 Copyright (c) 1988-2017, Gaussian, Inc.  All Rights Reserved.
  
 This is part of the Gaussian(R) 16 program.  It is based on
 the Gaussian(R) 09 system (copyright 2009, Gaussian, Inc.),
 the Gaussian(R) 03 system (copyright 2003, Gaussian, Inc.),
 the Gaussian(R) 98 system (copyright 1998, Gaussian, Inc.),
 the Gaussian(R) 94 system (copyright 1995, Gaussian, Inc.),
 the Gaussian 92(TM) system (copyright 1992, Gaussian, Inc.),
 the Gaussian 90(TM) system (copyright 1990, Gaussian, Inc.),
 the Gaussian 88(TM) system (copyright 1988, Gaussian, Inc.),
 the Gaussian 86(TM) system (copyright 1986, Carnegie Mellon
 University), and the Gaussian 82(TM) system (copyright 1983,
 Carnegie Mellon University). Gaussian is a federally registered
 trademark of Gaussian, Inc.
  
 This software contains proprietary and confidential information,
 including trade secrets, belonging to Gaussian, Inc.
  
 This software is provided under written license and may be
 used, copied, transmitted, or stored only in accord with that
 written license.
  
 The following legend is applicable only to US Government
 contracts under FAR:
  
                    RESTRICTED RIGHTS LEGEND
  
 Use, reproduction and disclosure by the US Government is
 subject to restrictions as set forth in subparagraphs (a)
 and (c) of the Commercial Computer Software - Restricted
 Rights clause in FAR 52.227-19.
  
 Gaussian, Inc.
 340 Quinnipiac St., Bldg. 40, Wallingford CT 06492
  
  
 ---------------------------------------------------------------
 Warning -- This program may not be used in any manner that
 competes with the business of Gaussian, Inc. or will provide
 assistance to any competitor of Gaussian, Inc.  The licensee
 of this program is prohibited from giving any competitor of
 Gaussian, Inc. access to this program.  By using this program,
 the user acknowledges that Gaussian, Inc. is engaged in the
 business of creating and licensing software in the field of
 computational chemistry and represents and warrants to the
 licensee that it is not a competitor of Gaussian, Inc. and that
 it will not use this program in any manner prohibited above.
 ---------------------------------------------------------------
  

 Cite this work as:
 Gaussian 16, Revision B.01,
 M. J. Frisch, G. W. Trucks, H. B. Schlegel, G. E. Scuseria, 
 M. A. Robb, J. R. Cheeseman, G. Scalmani, V. Barone, 
 G. A. Petersson, H. Nakatsuji, X. Li, M. Caricato, A. V. Marenich, 
 J. Bloino, B. G. Janesko, R. Gomperts, B. Mennucci, H. P. Hratchian, 
 J. V. Ortiz, A. F. Izmaylov, J. L. Sonnenberg, D. Williams-Young, 
 F. Ding, F. Lipparini, F. Egidi, J. Goings, B. Peng, A. Petrone, 
 T. Henderson, D. Ranasinghe, V. G. Zakrzewski, J. Gao, N. Rega, 
 G. Zheng, W. Liang, M. Hada, M. Ehara, K. Toyota, R. Fukuda, 
 J. Hasegawa, M. Ishida, T. Nakajima, Y. Honda, O. Kitao, H. Nakai, 
 T. Vreven, K. Throssell, J. A. Montgomery, Jr., J. E. Peralta, 
 F. Ogliaro, M. J. Bearpark, J. J. Heyd, E. N. Brothers, K. N. Kudin, 
 V. N. Staroverov, T. A. Keith, R. Kobayashi, J. Normand, 
 K. Raghavachari, A. P. Rendell, J. C. Burant, S. S. Iyengar, 
 J. Tomasi, M. Cossi, J. M. Millam, M. Klene, C. Adamo, R. Cammi, 
 J. W. Ochterski, R. L. Martin, K. Morokuma, O. Farkas, 
 J. B. Foresman, and D. J. Fox, Gaussian, Inc., Wallingford CT, 2016.
 
 ******************************************
 Gaussian 16:  ES64L-G16RevB.01 20-Dec-2017
                 7-Dec-2023 
 ******************************************
 %nproc=15
 Will use up to   15 processors via shared memory.
 -------------------------
 #P B3LYP/6-311+g(d) force
 -------------------------
 1/10=7,30=1,38=1/1,3;
 2/12=2,17=6,18=5,40=1/2;
 3/5=4,6=6,7=11,11=2,25=1,30=1,71=1,74=-5/1,2,3;
 4//1;
 5/5=2,38=5/2;
 6/7=2,8=2,9=2,10=2,28=1/1;
 7/29=1/1,2,3,16;
 1/10=7,30=1/3;
 99//99;
 Leave Link    1 at Thu Dec  7 01:56:42 2023, MaxMem=           0 cpu:               0.3 elap:               0.0
 (Enter /home/sekinelabo/g16/l101.exe)
 -----
 DPGEN
 -----
 Symbolic Z-matrix:
 Charge =  0 Multiplicity = 2
 Na                    10.099    9.58864   11.5987 
 Na                    14.1428   12.3804   13.6967 
 Na                    10.9599   13.2853   9.33237 
 Na                    10.8218   12.5119   12.1934 
 Na                    12.8499   14.7092   11.6925 
 Na                    13.4957   10.7983   10.3464 
 Na                    11.3058   10.4012   14.8148 
 
 ITRead=  0  0  0  0  0  0  0
 MicOpt= -1 -1 -1 -1 -1 -1 -1
 NAtoms=      7 NQM=        7 NQMF=       0 NMMI=      0 NMMIF=      0
                NMic=       0 NMicF=      0.
                    Isotopes and Nuclear Properties:
 (Nuclear quadrupole moments (NQMom) in fm**2, nuclear magnetic moments (NMagM)
  in nuclear magnetons)

  Atom         1           2           3           4           5           6           7
 IAtWgt=          23          23          23          23          23          23          23
 AtmWgt=  22.9897697  22.9897697  22.9897697  22.9897697  22.9897697  22.9897697  22.9897697
 NucSpn=           3           3           3           3           3           3           3
 AtZEff=  -0.0000000  -0.0000000  -0.0000000  -0.0000000  -0.0000000  -0.0000000  -0.0000000
 NQMom=   10.4000000  10.4000000  10.4000000  10.4000000  10.4000000  10.4000000  10.4000000
 NMagM=    2.2175200   2.2175200   2.2175200   2.2175200   2.2175200   2.2175200   2.2175200
 AtZNuc=  11.0000000  11.0000000  11.0000000  11.0000000  11.0000000  11.0000000  11.0000000
 Leave Link  101 at Thu Dec  7 01:56:42 2023, MaxMem=  1879048192 cpu:               2.5 elap:               0.2
 (Enter /home/sekinelabo/g16/l103.exe)

 GradGradGradGradGradGradGradGradGradGradGradGradGradGradGradGradGradGrad
 Berny optimization.
 Initialization pass.
 Trust Radius=3.00D-01 FncErr=1.00D-07 GrdErr=1.00D-07 EigMax=2.50D+02 EigMin=1.00D-04
 Number of steps in this run=      2 maximum allowed number of steps=      2.
 GradGradGradGradGradGradGradGradGradGradGradGradGradGradGradGradGradGrad

 Leave Link  103 at Thu Dec  7 01:56:42 2023, MaxMem=  1879048192 cpu:               0.2 elap:               0.0
 (Enter /home/sekinelabo/g16/l202.exe)
                          Input orientation:                          
 ---------------------------------------------------------------------
 Center     Atomic      Atomic             Coordinates (Angstroms)
 Number     Number       Type             X           Y           Z
 ---------------------------------------------------------------------
      1         11           0       10.099000    9.588640   11.598700
      2         11           0       14.142800   12.380400   13.696700
      3         11           0       10.959900   13.285300    9.332370
      4         11           0       10.821800   12.511900   12.193400
      5         11           0       12.849900   14.709200   11.692500
      6         11           0       13.495700   10.798300   10.346400
      7         11           0       11.305800   10.401200   14.814800
 ---------------------------------------------------------------------
                    Distance matrix (angstroms):
                    1          2          3          4          5
     1  Na   0.000000
     2  Na   5.343018   0.000000
     3  Na   4.420712   5.476958   0.000000
     4  Na   3.069455   3.647772   2.966936   0.000000
     5  Na   5.813466   3.333424   3.342126   3.031867   0.000000
     6  Na   3.816950   3.761155   3.693739   3.673905   4.186189
     7  Na   3.529861   3.635375   6.204411   3.400154   5.540024
                    6          7
     6  Na   0.000000
     7  Na   4.991988   0.000000
 Stoichiometry    Na7(2)
 Framework group  C1[X(Na7)]
 Deg. of freedom    15
 Full point group                 C1      NOp   1
 Largest Abelian subgroup         C1      NOp   1
 Largest concise Abelian subgroup C1      NOp   1
                         Standard orientation:                         
 ---------------------------------------------------------------------
 Center     Atomic      Atomic             Coordinates (Angstroms)
 Number     Number       Type             X           Y           Z
 ---------------------------------------------------------------------
      1         11           0       -1.731344   -2.480310    0.093129
      2         11           0       -0.528153    2.688661    0.711120
      3         11           0        2.575103   -1.663796   -0.481773
      4         11           0        0.027042   -0.344878   -1.237121
      5         11           0        2.264533    1.650154   -0.783580
      6         11           0        0.574682   -0.489676    2.392851
      7         11           0       -3.181863    0.639844   -0.694625
 ---------------------------------------------------------------------
 Rotational constants (GHZ):           0.7649014           0.6355208           0.4870862
 Leave Link  202 at Thu Dec  7 01:56:42 2023, MaxMem=  1879048192 cpu:               0.0 elap:               0.0
 (Enter /home/sekinelabo/g16/l301.exe)
 Standard basis: 6-311+G(d) (5D, 7F)
 Ernie: Thresh=  0.10000D-02 Tol=  0.10000D-05 Strict=F.
 There are   217 symmetry adapted cartesian basis functions of A   symmetry.
 There are   210 symmetry adapted basis functions of A   symmetry.
   210 basis functions,   350 primitive gaussians,   217 cartesian basis functions
    39 alpha electrons       38 beta electrons
       nuclear repulsion energy       341.8020767460 Hartrees.
 IExCor=  402 DFT=T Ex+Corr=B3LYP ExCW=0 ScaHFX=  0.200000
 ScaDFX=  0.800000  0.720000  1.000000  0.810000 ScalE2=  1.000000  1.000000
 IRadAn=      5 IRanWt=     -1 IRanGd=            0 ICorTp=0 IEmpDi=  4
 NAtoms=    7 NActive=    7 NUniq=    7 SFac= 1.00D+00 NAtFMM=   60 NAOKFM=F Big=F
 Integral buffers will be    131072 words long.
 Raffenetti 2 integral format.
 Two-electron integral symmetry is turned on.
 Leave Link  301 at Thu Dec  7 01:56:42 2023, MaxMem=  1879048192 cpu:               0.5 elap:               0.0
 (Enter /home/sekinelabo/g16/l302.exe)
 NPDir=0 NMtPBC=     1 NCelOv=     1 NCel=       1 NClECP=     1 NCelD=      1
         NCelK=      1 NCelE2=     1 NClLst=     1 CellRange=     0.0.
 One-electron integrals computed using PRISM.
 One-electron integral symmetry used in STVInt
 NBasis=   210 RedAO= T EigKep=  3.08D-06  NBF=   210
 NBsUse=   210 1.00D-06 EigRej= -1.00D+00 NBFU=   210
 Precomputing XC quadrature grid using
 IXCGrd= 4 IRadAn=           5 IRanWt=          -1 IRanGd=           0 AccXCQ= 0.00D+00.
 Generated NRdTot=       0 NPtTot=           0 NUsed=           0 NTot=          32
 NSgBfM=   211   211   211   211   211 MxSgAt=     7 MxSgA2=     7.
 Leave Link  302 at Thu Dec  7 01:56:42 2023, MaxMem=  1879048192 cpu:               2.0 elap:               0.1
 (Enter /home/sekinelabo/g16/l303.exe)
 DipDrv:  MaxL=1.
 Leave Link  303 at Thu Dec  7 01:56:42 2023, MaxMem=  1879048192 cpu:               0.5 elap:               0.0
 (Enter /home/sekinelabo/g16/l401.exe)
 ExpMin= 7.60D-03 ExpMax= 3.62D+04 ExpMxC= 1.21D+03 IAcc=3 IRadAn=         5 AccDes= 0.00D+00
 Harris functional with IExCor=  402 and IRadAn=       5 diagonalized for initial guess.
 HarFok:  IExCor=  402 AccDes= 0.00D+00 IRadAn=         5 IDoV= 1 UseB2=F ITyADJ=14
 ICtDFT=  3500011 ScaDFX=  1.000000  1.000000  1.000000  1.000000
 FoFCou: FMM=F IPFlag=           0 FMFlag=      100000 FMFlg1=           0
         NFxFlg=           0 DoJE=T BraDBF=F KetDBF=T FulRan=T
         wScrn=  0.000000 ICntrl=       500 IOpCl=  0 I1Cent=   200000004 NGrid=           0
         NMat0=    1 NMatS0=      1 NMatT0=    0 NMatD0=    1 NMtDS0=    0 NMtDT0=    0
 Petite list used in FoFCou.
 Harris En= -1135.89999942049    
 JPrj=0 DoOrth=F DoCkMO=F.
 Initial guess <Sx>= 0.0000 <Sy>= 0.0000 <Sz>= 0.5000 <S**2>= 0.7500 S= 0.5000
 Leave Link  401 at Thu Dec  7 01:56:43 2023, MaxMem=  1879048192 cpu:               4.4 elap:               0.3
 (Enter /home/sekinelabo/g16/l502.exe)
 Keep R1 and R2 ints in memory in canonical form, NReq=506573335.
 FoFCou: FMM=F IPFlag=           0 FMFlag=           0 FMFlg1=           0
         NFxFlg=           0 DoJE=F BraDBF=F KetDBF=F FulRan=T
         wScrn=  0.000000 ICntrl=       600 IOpCl=  0 I1Cent=           0 NGrid=           0
         NMat0=    1 NMatS0=  22155 NMatT0=    0 NMatD0=    1 NMtDS0=    0 NMtDT0=    0
 Symmetry not used in FoFCou.
 Two-electron integral symmetry not used.
 UHF open shell SCF:
 Using DIIS extrapolation, IDIIS=  1040.
 NGot=  1879048192 LenX=  1388082565 LenY=  1388035035
 Requested convergence on RMS density matrix=1.00D-08 within 128 cycles.
 Requested convergence on MAX density matrix=1.00D-06.
 Requested convergence on             energy=1.00D-06.
 No special actions if energy rises.

 Cycle   1  Pass 1  IDiag  1:
 E= -1136.09051348011    
 DIIS: error= 1.17D-02 at cycle   1 NSaved=   1.
 NSaved= 1 IEnMin= 1 EnMin= -1136.09051348011     IErMin= 1 ErrMin= 1.17D-02
 ErrMax= 1.17D-02  0.00D+00 EMaxC= 1.00D-01 BMatC= 1.95D-01 BMatP= 1.95D-01
 IDIUse=3 WtCom= 8.83D-01 WtEn= 1.17D-01
 Coeff-Com:  0.100D+01
 Coeff-En:   0.100D+01
 Coeff:      0.100D+01
 Gap=     0.047 Goal=   None    Shift=    0.000
 Gap=     0.043 Goal=   None    Shift=    0.000
 GapD=    0.043 DampG=0.250 DampE=0.500 DampFc=0.2500 IDamp=-1.
 Damping current iteration by 2.50D-01
 RMSDP=3.49D-02 MaxDP=2.57D+00              OVMax= 2.42D-01

 Cycle   2  Pass 1  IDiag  1:
 E= -1136.10425536229     Delta-E=       -0.013741882174 Rises=F Damp=T
 DIIS: error= 7.47D-03 at cycle   2 NSaved=   2.
 NSaved= 2 IEnMin= 2 EnMin= -1136.10425536229     IErMin= 2 ErrMin= 7.47D-03
 ErrMax= 7.47D-03  0.00D+00 EMaxC= 1.00D-01 BMatC= 7.39D-02 BMatP= 1.95D-01
 IDIUse=3 WtCom= 9.25D-01 WtEn= 7.47D-02
 Coeff-Com: -0.126D+01 0.226D+01
 Coeff-En:   0.000D+00 0.100D+01
 Coeff:     -0.116D+01 0.216D+01
 Gap=     0.059 Goal=   None    Shift=    0.000
 Gap=     0.047 Goal=   None    Shift=    0.000
 RMSDP=1.65D-02 MaxDP=1.33D+00 DE=-1.37D-02 OVMax= 1.66D-01

 Cycle   3  Pass 1  IDiag  1:
 E= -1136.12662226256     Delta-E=       -0.022366900271 Rises=F Damp=F
 DIIS: error= 3.05D-03 at cycle   3 NSaved=   3.
 NSaved= 3 IEnMin= 3 EnMin= -1136.12662226256     IErMin= 3 ErrMin= 3.05D-03
 ErrMax= 3.05D-03  0.00D+00 EMaxC= 1.00D-01 BMatC= 3.55D-03 BMatP= 7.39D-02
 IDIUse=3 WtCom= 9.70D-01 WtEn= 3.05D-02
 Coeff-Com: -0.255D+00 0.452D+00 0.803D+00
 Coeff-En:   0.000D+00 0.000D+00 0.100D+01
 Coeff:     -0.247D+00 0.438D+00 0.809D+00
 Gap=     0.056 Goal=   None    Shift=    0.000
 Gap=     0.045 Goal=   None    Shift=    0.000
 RMSDP=7.04D-03 MaxDP=4.11D-01 DE=-2.24D-02 OVMax= 9.27D-02

 Cycle   4  Pass 1  IDiag  1:
 E= -1136.12572631794     Delta-E=        0.000895944622 Rises=F Damp=F
 DIIS: error= 3.32D-03 at cycle   4 NSaved=   4.
 NSaved= 4 IEnMin= 3 EnMin= -1136.12662226256     IErMin= 3 ErrMin= 3.05D-03
 ErrMax= 3.32D-03  0.00D+00 EMaxC= 1.00D-01 BMatC= 3.95D-03 BMatP= 3.55D-03
 IDIUse=3 WtCom= 1.48D-01 WtEn= 8.52D-01
 Coeff-Com: -0.852D-02 0.139D-01 0.512D+00 0.482D+00
 Coeff-En:   0.000D+00 0.000D+00 0.552D+00 0.448D+00
 Coeff:     -0.126D-02 0.206D-02 0.547D+00 0.453D+00
 Gap=     0.057 Goal=   None    Shift=    0.000
 Gap=     0.046 Goal=   None    Shift=    0.000
 RMSDP=2.10D-03 MaxDP=1.22D-01 DE= 8.96D-04 OVMax= 5.88D-02

 Cycle   5  Pass 1  IDiag  1:
 E= -1136.12951638293     Delta-E=       -0.003790064995 Rises=F Damp=F
 DIIS: error= 6.08D-04 at cycle   5 NSaved=   5.
 NSaved= 5 IEnMin= 5 EnMin= -1136.12951638293     IErMin= 5 ErrMin= 6.08D-04
 ErrMax= 6.08D-04  0.00D+00 EMaxC= 1.00D-01 BMatC= 1.60D-04 BMatP= 3.55D-03
 IDIUse=3 WtCom= 9.94D-01 WtEn= 6.08D-03
 Coeff-Com: -0.137D-02 0.109D-02 0.310D+00 0.273D+00 0.418D+00
 Coeff-En:   0.000D+00 0.000D+00 0.000D+00 0.000D+00 0.100D+01
 Coeff:     -0.136D-02 0.108D-02 0.308D+00 0.271D+00 0.421D+00
 Gap=     0.057 Goal=   None    Shift=    0.000
 Gap=     0.046 Goal=   None    Shift=    0.000
 RMSDP=7.36D-04 MaxDP=4.40D-02 DE=-3.79D-03 OVMax= 1.26D-02

 Cycle   6  Pass 1  IDiag  1:
 E= -1136.12967312119     Delta-E=       -0.000156738261 Rises=F Damp=F
 DIIS: error= 1.28D-04 at cycle   6 NSaved=   6.
 NSaved= 6 IEnMin= 6 EnMin= -1136.12967312119     IErMin= 6 ErrMin= 1.28D-04
 ErrMax= 1.28D-04  0.00D+00 EMaxC= 1.00D-01 BMatC= 4.61D-06 BMatP= 1.60D-04
 IDIUse=3 WtCom= 9.99D-01 WtEn= 1.28D-03
 Coeff-Com: -0.280D-02 0.336D-02 0.214D-01 0.165D-01 0.126D+00 0.836D+00
 Coeff-En:   0.000D+00 0.000D+00 0.000D+00 0.000D+00 0.000D+00 0.100D+01
 Coeff:     -0.279D-02 0.336D-02 0.214D-01 0.165D-01 0.126D+00 0.836D+00
 Gap=     0.058 Goal=   None    Shift=    0.000
 Gap=     0.046 Goal=   None    Shift=    0.000
 RMSDP=2.78D-04 MaxDP=1.85D-02 DE=-1.57D-04 OVMax= 4.07D-03

 Cycle   7  Pass 1  IDiag  1:
 E= -1136.12967760573     Delta-E=       -0.000004484531 Rises=F Damp=F
 DIIS: error= 9.62D-05 at cycle   7 NSaved=   7.
 NSaved= 7 IEnMin= 7 EnMin= -1136.12967760573     IErMin= 7 ErrMin= 9.62D-05
 ErrMax= 9.62D-05  0.00D+00 EMaxC= 1.00D-01 BMatC= 2.57D-06 BMatP= 4.61D-06
 IDIUse=1 WtCom= 1.00D+00 WtEn= 0.00D+00
 Coeff-Com: -0.148D-02 0.180D-02-0.402D-01-0.365D-01 0.875D-02 0.531D+00
 Coeff-Com:  0.537D+00
 Coeff:     -0.148D-02 0.180D-02-0.402D-01-0.365D-01 0.875D-02 0.531D+00
 Coeff:      0.537D+00
 Gap=     0.057 Goal=   None    Shift=    0.000
 Gap=     0.046 Goal=   None    Shift=    0.000
 RMSDP=1.35D-04 MaxDP=1.13D-02 DE=-4.48D-06 OVMax= 1.77D-03

 Cycle   8  Pass 1  IDiag  1:
 E= -1136.12968092186     Delta-E=       -0.000003316140 Rises=F Damp=F
 DIIS: error= 1.28D-05 at cycle   8 NSaved=   8.
 NSaved= 8 IEnMin= 8 EnMin= -1136.12968092186     IErMin= 8 ErrMin= 1.28D-05
 ErrMax= 1.28D-05  0.00D+00 EMaxC= 1.00D-01 BMatC= 6.63D-08 BMatP= 2.57D-06
 IDIUse=1 WtCom= 1.00D+00 WtEn= 0.00D+00
 Coeff-Com:  0.755D-03-0.986D-03-0.665D-02-0.550D-02-0.163D-01-0.989D-01
 Coeff-Com: -0.634D-02 0.113D+01
 Coeff:      0.755D-03-0.986D-03-0.665D-02-0.550D-02-0.163D-01-0.989D-01
 Coeff:     -0.634D-02 0.113D+01
 Gap=     0.057 Goal=   None    Shift=    0.000
 Gap=     0.047 Goal=   None    Shift=    0.000
 RMSDP=5.63D-05 MaxDP=4.32D-03 DE=-3.32D-06 OVMax= 9.59D-04

 Cycle   9  Pass 1  IDiag  1:
 E= -1136.12968119629     Delta-E=       -0.000000274430 Rises=F Damp=F
 DIIS: error= 1.09D-05 at cycle   9 NSaved=   9.
 NSaved= 9 IEnMin= 9 EnMin= -1136.12968119629     IErMin= 9 ErrMin= 1.09D-05
 ErrMax= 1.09D-05  0.00D+00 EMaxC= 1.00D-01 BMatC= 3.11D-08 BMatP= 6.63D-08
 IDIUse=1 WtCom= 1.00D+00 WtEn= 0.00D+00
 Coeff-Com:  0.577D-03-0.740D-03-0.814D-04-0.393D-04-0.973D-02-0.921D-01
 Coeff-Com: -0.476D-01 0.552D+00 0.597D+00
 Coeff:      0.577D-03-0.740D-03-0.814D-04-0.393D-04-0.973D-02-0.921D-01
 Coeff:     -0.476D-01 0.552D+00 0.597D+00
 Gap=     0.057 Goal=   None    Shift=    0.000
 Gap=     0.047 Goal=   None    Shift=    0.000
 RMSDP=1.79D-05 MaxDP=9.26D-04 DE=-2.74D-07 OVMax= 4.23D-04

 Cycle  10  Pass 1  IDiag  1:
 E= -1136.12968125078     Delta-E=       -0.000000054481 Rises=F Damp=F
 DIIS: error= 6.33D-06 at cycle  10 NSaved=  10.
 NSaved=10 IEnMin=10 EnMin= -1136.12968125078     IErMin=10 ErrMin= 6.33D-06
 ErrMax= 6.33D-06  0.00D+00 EMaxC= 1.00D-01 BMatC= 1.31D-08 BMatP= 3.11D-08
 IDIUse=1 WtCom= 1.00D+00 WtEn= 0.00D+00
 Coeff-Com:  0.158D-03-0.195D-03 0.249D-02 0.192D-02-0.110D-02-0.295D-01
 Coeff-Com: -0.302D-01-0.270D-01 0.406D+00 0.677D+00
 Coeff:      0.158D-03-0.195D-03 0.249D-02 0.192D-02-0.110D-02-0.295D-01
 Coeff:     -0.302D-01-0.270D-01 0.406D+00 0.677D+00
 Gap=     0.057 Goal=   None    Shift=    0.000
 Gap=     0.047 Goal=   None    Shift=    0.000
 RMSDP=1.28D-05 MaxDP=7.48D-04 DE=-5.45D-08 OVMax= 3.19D-04

 Cycle  11  Pass 1  IDiag  1:
 E= -1136.12968128440     Delta-E=       -0.000000033626 Rises=F Damp=F
 DIIS: error= 2.58D-06 at cycle  11 NSaved=  11.
 NSaved=11 IEnMin=11 EnMin= -1136.12968128440     IErMin=11 ErrMin= 2.58D-06
 ErrMax= 2.58D-06  0.00D+00 EMaxC= 1.00D-01 BMatC= 1.23D-09 BMatP= 1.31D-08
 IDIUse=1 WtCom= 1.00D+00 WtEn= 0.00D+00
 Coeff-Com: -0.148D-03 0.193D-03 0.649D-03 0.476D-03 0.282D-02 0.137D-01
 Coeff-Com:  0.531D-02-0.119D+00-0.154D+00-0.653D-02 0.126D+01
 Coeff:     -0.148D-03 0.193D-03 0.649D-03 0.476D-03 0.282D-02 0.137D-01
 Coeff:      0.531D-02-0.119D+00-0.154D+00-0.653D-02 0.126D+01
 Gap=     0.058 Goal=   None    Shift=    0.000
 Gap=     0.047 Goal=   None    Shift=    0.000
 RMSDP=8.91D-06 MaxDP=4.61D-04 DE=-3.36D-08 OVMax= 3.13D-04

 Cycle  12  Pass 1  IDiag  1:
 E= -1136.12968129496     Delta-E=       -0.000000010557 Rises=F Damp=F
 DIIS: error= 9.18D-07 at cycle  12 NSaved=  12.
 NSaved=12 IEnMin=12 EnMin= -1136.12968129496     IErMin=12 ErrMin= 9.18D-07
 ErrMax= 9.18D-07  0.00D+00 EMaxC= 1.00D-01 BMatC= 2.61D-10 BMatP= 1.23D-09
 IDIUse=1 WtCom= 1.00D+00 WtEn= 0.00D+00
 Coeff-Com: -0.699D-04 0.894D-04-0.155D-03-0.104D-03 0.912D-03 0.740D-02
 Coeff-Com:  0.349D-02-0.221D-01-0.100D+00-0.119D+00 0.317D+00 0.913D+00
 Coeff:     -0.699D-04 0.894D-04-0.155D-03-0.104D-03 0.912D-03 0.740D-02
 Coeff:      0.349D-02-0.221D-01-0.100D+00-0.119D+00 0.317D+00 0.913D+00
 Gap=     0.058 Goal=   None    Shift=    0.000
 Gap=     0.047 Goal=   None    Shift=    0.000
 RMSDP=2.92D-06 MaxDP=1.57D-04 DE=-1.06D-08 OVMax= 1.22D-04

 Cycle  13  Pass 1  IDiag  1:
 E= -1136.12968129651     Delta-E=       -0.000000001553 Rises=F Damp=F
 DIIS: error= 3.66D-07 at cycle  13 NSaved=  13.
 NSaved=13 IEnMin=13 EnMin= -1136.12968129651     IErMin=13 ErrMin= 3.66D-07
 ErrMax= 3.66D-07  0.00D+00 EMaxC= 1.00D-01 BMatC= 4.64D-11 BMatP= 2.61D-10
 IDIUse=1 WtCom= 1.00D+00 WtEn= 0.00D+00
 Coeff-Com:  0.244D-04-0.326D-04-0.147D-03-0.900D-04-0.400D-03-0.209D-02
 Coeff-Com: -0.529D-03 0.200D-01 0.267D-01-0.906D-02-0.250D+00 0.646D-01
 Coeff-Com:  0.115D+01
 Coeff:      0.244D-04-0.326D-04-0.147D-03-0.900D-04-0.400D-03-0.209D-02
 Coeff:     -0.529D-03 0.200D-01 0.267D-01-0.906D-02-0.250D+00 0.646D-01
 Coeff:      0.115D+01
 Gap=     0.058 Goal=   None    Shift=    0.000
 Gap=     0.047 Goal=   None    Shift=    0.000
 RMSDP=1.94D-06 MaxDP=1.28D-04 DE=-1.55D-09 OVMax= 7.38D-05

 Cycle  14  Pass 1  IDiag  1:
 E= -1136.12968129689     Delta-E=       -0.000000000378 Rises=F Damp=F
 DIIS: error= 1.57D-07 at cycle  14 NSaved=  14.
 NSaved=14 IEnMin=14 EnMin= -1136.12968129689     IErMin=14 ErrMin= 1.57D-07
 ErrMax= 1.57D-07  0.00D+00 EMaxC= 1.00D-01 BMatC= 6.76D-12 BMatP= 4.64D-11
 IDIUse=1 WtCom= 1.00D+00 WtEn= 0.00D+00
 Coeff-Com:  0.111D-04-0.140D-04 0.172D-04 0.387D-05-0.134D-03-0.750D-03
 Coeff-Com: -0.623D-03 0.185D-02 0.157D-01 0.228D-01-0.378D-01-0.156D+00
 Coeff-Com: -0.752D-01 0.123D+01
 Coeff:      0.111D-04-0.140D-04 0.172D-04 0.387D-05-0.134D-03-0.750D-03
 Coeff:     -0.623D-03 0.185D-02 0.157D-01 0.228D-01-0.378D-01-0.156D+00
 Coeff:     -0.752D-01 0.123D+01
 Gap=     0.058 Goal=   None    Shift=    0.000
 Gap=     0.047 Goal=   None    Shift=    0.000
 RMSDP=1.09D-06 MaxDP=5.00D-05 DE=-3.78D-10 OVMax= 2.73D-05

 Cycle  15  Pass 1  IDiag  1:
 E= -1136.12968129693     Delta-E=       -0.000000000046 Rises=F Damp=F
 DIIS: error= 5.19D-08 at cycle  15 NSaved=  15.
 NSaved=15 IEnMin=15 EnMin= -1136.12968129693     IErMin=15 ErrMin= 5.19D-08
 ErrMax= 5.19D-08  0.00D+00 EMaxC= 1.00D-01 BMatC= 9.25D-13 BMatP= 6.76D-12
 IDIUse=1 WtCom= 1.00D+00 WtEn= 0.00D+00
 Coeff-Com: -0.527D-05 0.710D-05 0.205D-04 0.916D-05 0.771D-04 0.419D-03
 Coeff-Com:  0.174D-03-0.374D-02-0.537D-02-0.233D-03 0.452D-01 0.203D-02
 Coeff-Com: -0.201D+00-0.732D-01 0.124D+01
 Coeff:     -0.527D-05 0.710D-05 0.205D-04 0.916D-05 0.771D-04 0.419D-03
 Coeff:      0.174D-03-0.374D-02-0.537D-02-0.233D-03 0.452D-01 0.203D-02
 Coeff:     -0.201D+00-0.732D-01 0.124D+01
 Gap=     0.058 Goal=   None    Shift=    0.000
 Gap=     0.047 Goal=   None    Shift=    0.000
 RMSDP=4.46D-07 MaxDP=2.74D-05 DE=-4.59D-11 OVMax= 1.01D-05

 Cycle  16  Pass 1  IDiag  1:
 E= -1136.12968129695     Delta-E=       -0.000000000017 Rises=F Damp=F
 DIIS: error= 1.95D-08 at cycle  16 NSaved=  16.
 NSaved=16 IEnMin=16 EnMin= -1136.12968129695     IErMin=16 ErrMin= 1.95D-08
 ErrMax= 1.95D-08  0.00D+00 EMaxC= 1.00D-01 BMatC= 1.16D-13 BMatP= 9.25D-13
 IDIUse=1 WtCom= 1.00D+00 WtEn= 0.00D+00
 Coeff-Com: -0.158D-05 0.204D-05-0.119D-05 0.501D-06 0.141D-04 0.125D-03
 Coeff-Com:  0.112D-03-0.641D-03-0.137D-02-0.132D-02 0.455D-02 0.111D-01
 Coeff-Com:  0.920D-02-0.126D+00 0.355D-01 0.107D+01
 Coeff:     -0.158D-05 0.204D-05-0.119D-05 0.501D-06 0.141D-04 0.125D-03
 Coeff:      0.112D-03-0.641D-03-0.137D-02-0.132D-02 0.455D-02 0.111D-01
 Coeff:      0.920D-02-0.126D+00 0.355D-01 0.107D+01
 Gap=     0.058 Goal=   None    Shift=    0.000
 Gap=     0.047 Goal=   None    Shift=    0.000
 RMSDP=1.06D-07 MaxDP=7.20D-06 DE=-1.73D-11 OVMax= 1.89D-06

 Cycle  17  Pass 1  IDiag  1:
 E= -1136.12968129695     Delta-E=        0.000000000001 Rises=F Damp=F
 DIIS: error= 1.08D-08 at cycle  17 NSaved=  17.
 NSaved=17 IEnMin=16 EnMin= -1136.12968129695     IErMin=17 ErrMin= 1.08D-08
 ErrMax= 1.08D-08  0.00D+00 EMaxC= 1.00D-01 BMatC= 3.65D-14 BMatP= 1.16D-13
 IDIUse=1 WtCom= 1.00D+00 WtEn= 0.00D+00
 Coeff-Com:  0.413D-06-0.587D-06-0.358D-05-0.934D-06-0.978D-05-0.326D-04
 Coeff-Com: -0.128D-05 0.440D-03 0.574D-03-0.501D-03-0.702D-02 0.540D-02
 Coeff-Com:  0.401D-01-0.452D-01-0.187D+00 0.378D+00 0.816D+00
 Coeff:      0.413D-06-0.587D-06-0.358D-05-0.934D-06-0.978D-05-0.326D-04
 Coeff:     -0.128D-05 0.440D-03 0.574D-03-0.501D-03-0.702D-02 0.540D-02
 Coeff:      0.401D-01-0.452D-01-0.187D+00 0.378D+00 0.816D+00
 Gap=     0.058 Goal=   None    Shift=    0.000
 Gap=     0.047 Goal=   None    Shift=    0.000
 RMSDP=4.29D-08 MaxDP=3.38D-06 DE= 9.09D-13 OVMax= 8.02D-07

 Cycle  18  Pass 1  IDiag  1:
 E= -1136.12968129695     Delta-E=        0.000000000005 Rises=F Damp=F
 DIIS: error= 5.21D-09 at cycle  18 NSaved=  18.
 NSaved=18 IEnMin=16 EnMin= -1136.12968129695     IErMin=18 ErrMin= 5.21D-09
 ErrMax= 5.21D-09  0.00D+00 EMaxC= 1.00D-01 BMatC= 5.68D-15 BMatP= 3.65D-14
 IDIUse=1 WtCom= 1.00D+00 WtEn= 0.00D+00
 Coeff-Com:  0.512D-06-0.669D-06-0.204D-06-0.501D-06-0.392D-05-0.346D-04
 Coeff-Com: -0.284D-04 0.173D-03 0.504D-03 0.415D-03-0.199D-02-0.273D-02
 Coeff-Com: -0.237D-03 0.320D-01-0.188D-01-0.248D+00-0.343D-01 0.127D+01
 Coeff:      0.512D-06-0.669D-06-0.204D-06-0.501D-06-0.392D-05-0.346D-04
 Coeff:     -0.284D-04 0.173D-03 0.504D-03 0.415D-03-0.199D-02-0.273D-02
 Coeff:     -0.237D-03 0.320D-01-0.188D-01-0.248D+00-0.343D-01 0.127D+01
 Gap=     0.058 Goal=   None    Shift=    0.000
 Gap=     0.047 Goal=   None    Shift=    0.000
 RMSDP=3.02D-08 MaxDP=2.55D-06 DE= 4.55D-12 OVMax= 5.52D-07

 Cycle  19  Pass 1  IDiag  1:
 E= -1136.12968129693     Delta-E=        0.000000000014 Rises=F Damp=F
 DIIS: error= 1.79D-09 at cycle  19 NSaved=  19.
 NSaved=19 IEnMin=16 EnMin= -1136.12968129695     IErMin=19 ErrMin= 1.79D-09
 ErrMax= 1.79D-09  0.00D+00 EMaxC= 1.00D-01 BMatC= 9.65D-16 BMatP= 5.68D-15
 IDIUse=1 WtCom= 1.00D+00 WtEn= 0.00D+00
 Large coefficients: NSaved= 19 BigCof=    0.00 CofMax=   10.00 Det=-1.33D-15
 Inversion failed.  Reducing to 18 matrices.
 Large coefficients: NSaved= 18 BigCof=    0.00 CofMax=   10.00 Det=-1.67D-15
 Inversion failed.  Reducing to 17 matrices.
 Large coefficients: NSaved= 17 BigCof=    0.00 CofMax=   10.00 Det=-1.71D-15
 Inversion failed.  Reducing to 16 matrices.
 Large coefficients: NSaved= 16 BigCof=    0.00 CofMax=   10.00 Det=-1.71D-15
 Inversion failed.  Reducing to 15 matrices.
 Coeff-Com: -0.629D-07-0.108D-05-0.431D-05 0.177D-04-0.604D-04 0.180D-05
 Coeff-Com:  0.349D-03-0.561D-03-0.190D-02 0.438D-02 0.124D-01-0.524D-01
 Coeff-Com: -0.563D-01 0.136D-01 0.108D+01
 Coeff:     -0.629D-07-0.108D-05-0.431D-05 0.177D-04-0.604D-04 0.180D-05
 Coeff:      0.349D-03-0.561D-03-0.190D-02 0.438D-02 0.124D-01-0.524D-01
 Coeff:     -0.563D-01 0.136D-01 0.108D+01
 Gap=     0.058 Goal=   None    Shift=    0.000
 Gap=     0.047 Goal=   None    Shift=    0.000
 RMSDP=8.90D-09 MaxDP=9.98D-07 DE= 1.36D-11 OVMax= 1.92D-07

 SCF Done:  E(UB3LYP) =  -1136.12968130     A.U. after   19 cycles
            NFock= 19  Conv=0.89D-08     -V/T= 2.0028
 <Sx>= 0.0000 <Sy>= 0.0000 <Sz>= 0.5000 <S**2>= 0.7608 S= 0.5054
 <L.S>= 0.000000000000E+00
 KE= 1.132961590792D+03 PE=-3.413120737081D+03 EE= 8.022273882460D+02
 Annihilation of the first spin contaminant:
 S**2 before annihilation     0.7608,   after     0.7501
 Leave Link  502 at Thu Dec  7 01:56:58 2023, MaxMem=  1879048192 cpu:             175.8 elap:              15.5
 (Enter /home/sekinelabo/g16/l601.exe)
 Copying SCF densities to generalized density rwf, IOpCl= 1 IROHF=0.

 **********************************************************************

            Population analysis using the SCF Density.

 **********************************************************************

 Orbital symmetries:
 Alpha Orbitals:
       Occupied  (A) (A) (A) (A) (A) (A) (A) (A) (A) (A) (A) (A)
                 (A) (A) (A) (A) (A) (A) (A) (A) (A) (A) (A) (A)
                 (A) (A) (A) (A) (A) (A) (A) (A) (A) (A) (A) (A)
                 (A) (A) (A)
       Virtual   (A) (A) (A) (A) (A) (A) (A) (A) (A) (A) (A) (A)
                 (A) (A) (A) (A) (A) (A) (A) (A) (A) (A) (A) (A)
                 (A) (A) (A) (A) (A) (A) (A) (A) (A) (A) (A) (A)
                 (A) (A) (A) (A) (A) (A) (A) (A) (A) (A) (A) (A)
                 (A) (A) (A) (A) (A) (A) (A) (A) (A) (A) (A) (A)
                 (A) (A) (A) (A) (A) (A) (A) (A) (A) (A) (A) (A)
                 (A) (A) (A) (A) (A) (A) (A) (A) (A) (A) (A) (A)
                 (A) (A) (A) (A) (A) (A) (A) (A) (A) (A) (A) (A)
                 (A) (A) (A) (A) (A) (A) (A) (A) (A) (A) (A) (A)
                 (A) (A) (A) (A) (A) (A) (A) (A) (A) (A) (A) (A)
                 (A) (A) (A) (A) (A) (A) (A) (A) (A) (A) (A) (A)
                 (A) (A) (A) (A) (A) (A) (A) (A) (A) (A) (A) (A)
                 (A) (A) (A) (A) (A) (A) (A) (A) (A) (A) (A) (A)
                 (A) (A) (A) (A) (A) (A) (A) (A) (A) (A) (A) (A)
                 (A) (A) (A)
 Beta  Orbitals:
       Occupied  (A) (A) (A) (A) (A) (A) (A) (A) (A) (A) (A) (A)
                 (A) (A) (A) (A) (A) (A) (A) (A) (A) (A) (A) (A)
                 (A) (A) (A) (A) (A) (A) (A) (A) (A) (A) (A) (A)
                 (A) (A)
       Virtual   (A) (A) (A) (A) (A) (A) (A) (A) (A) (A) (A) (A)
                 (A) (A) (A) (A) (A) (A) (A) (A) (A) (A) (A) (A)
                 (A) (A) (A) (A) (A) (A) (A) (A) (A) (A) (A) (A)
                 (A) (A) (A) (A) (A) (A) (A) (A) (A) (A) (A) (A)
                 (A) (A) (A) (A) (A) (A) (A) (A) (A) (A) (A) (A)
                 (A) (A) (A) (A) (A) (A) (A) (A) (A) (A) (A) (A)
                 (A) (A) (A) (A) (A) (A) (A) (A) (A) (A) (A) (A)
                 (A) (A) (A) (A) (A) (A) (A) (A) (A) (A) (A) (A)
                 (A) (A) (A) (A) (A) (A) (A) (A) (A) (A) (A) (A)
                 (A) (A) (A) (A) (A) (A) (A) (A) (A) (A) (A) (A)
                 (A) (A) (A) (A) (A) (A) (A) (A) (A) (A) (A) (A)
                 (A) (A) (A) (A) (A) (A) (A) (A) (A) (A) (A) (A)
                 (A) (A) (A) (A) (A) (A) (A) (A) (A) (A) (A) (A)
                 (A) (A) (A) (A) (A) (A) (A) (A) (A) (A) (A) (A)
                 (A) (A) (A) (A)
 The electronic state is 2-A.
 Alpha  occ. eigenvalues --  -38.44318 -38.44047 -38.43855 -38.43730 -38.43656
 Alpha  occ. eigenvalues --  -38.43014 -38.43000  -2.20161  -2.19861  -2.19736
 Alpha  occ. eigenvalues --   -2.19569  -2.19558  -2.19099  -2.18856  -1.13810
 Alpha  occ. eigenvalues --   -1.13789  -1.13770  -1.13545  -1.13516  -1.13492
 Alpha  occ. eigenvalues --   -1.13490  -1.13384  -1.13359  -1.13315  -1.13282
 Alpha  occ. eigenvalues --   -1.13228  -1.13196  -1.13178  -1.13168  -1.12763
 Alpha  occ. eigenvalues --   -1.12739  -1.12720  -1.12528  -1.12516  -1.12496
 Alpha  occ. eigenvalues --   -0.18593  -0.13126  -0.12141  -0.11335
 Alpha virt. eigenvalues --   -0.05585  -0.04989  -0.04388  -0.03202  -0.03173
 Alpha virt. eigenvalues --   -0.02959  -0.01507  -0.01031  -0.00327  -0.00070
 Alpha virt. eigenvalues --    0.00134   0.00343   0.00752   0.00810   0.00890
 Alpha virt. eigenvalues --    0.00941   0.01025   0.01130   0.01244   0.01318
 Alpha virt. eigenvalues --    0.01339   0.01417   0.01633   0.01730   0.02039
 Alpha virt. eigenvalues --    0.02341   0.02411   0.02579   0.02695   0.02772
 Alpha virt. eigenvalues --    0.02851   0.02946   0.03011   0.03114   0.03164
 Alpha virt. eigenvalues --    0.03189   0.03257   0.03320   0.03390   0.03446
 Alpha virt. eigenvalues --    0.04076   0.04376   0.04502   0.04606   0.04810
 Alpha virt. eigenvalues --    0.04980   0.05109   0.05350   0.05648   0.05690
 Alpha virt. eigenvalues --    0.05823   0.06191   0.07023   0.07475   0.07518
 Alpha virt. eigenvalues --    0.07643   0.07852   0.07956   0.08185   0.08871
 Alpha virt. eigenvalues --    0.09404   0.09755   0.10463   0.11199   0.11406
 Alpha virt. eigenvalues --    0.12104   0.12189   0.12525   0.12895   0.13371
 Alpha virt. eigenvalues --    0.13742   0.13848   0.14296   0.14588   0.14723
 Alpha virt. eigenvalues --    0.14935   0.15375   0.16696   0.17193   0.18038
 Alpha virt. eigenvalues --    0.25665   0.26753   0.27470   0.28476   0.29629
 Alpha virt. eigenvalues --    0.30578   0.30804   0.32101   0.32426   0.33262
 Alpha virt. eigenvalues --    0.34411   0.34941   0.36223   0.36460   0.37215
 Alpha virt. eigenvalues --    0.39280   0.40283   0.40607   0.41849   0.42015
 Alpha virt. eigenvalues --    0.43550   0.43860   0.44072   0.44261   0.44507
 Alpha virt. eigenvalues --    0.44873   0.45088   0.45747   0.46189   0.46549
 Alpha virt. eigenvalues --    0.46890   0.47586   0.48359   0.48496   0.48863
 Alpha virt. eigenvalues --    0.49588   0.50531   0.51134   0.51195   0.51968
 Alpha virt. eigenvalues --    0.52316   0.53715   0.54126   0.55217   0.56860
 Alpha virt. eigenvalues --    0.56921   0.57780   0.58761   0.59348   0.61575
 Alpha virt. eigenvalues --    0.62415   0.66413   0.66635   0.70693   0.73082
 Alpha virt. eigenvalues --    0.77270   2.04547   2.12483   2.15507   2.17501
 Alpha virt. eigenvalues --    2.20315   2.22660   2.32102   4.42572   4.43277
 Alpha virt. eigenvalues --    4.44052   4.44935   4.45617   4.46493   4.46839
 Alpha virt. eigenvalues --    4.47144   4.47565   4.47916   4.48281   4.49348
 Alpha virt. eigenvalues --    4.49535   4.50507   4.51144   4.53223   4.56760
 Alpha virt. eigenvalues --    4.60189   4.61622   4.68120   4.72843  96.24634
 Alpha virt. eigenvalues --   96.33715  96.37156  96.39752  96.43359  96.46758
 Alpha virt. eigenvalues --   96.58690
  Beta  occ. eigenvalues --  -38.44204 -38.44037 -38.43845 -38.43728 -38.43639
  Beta  occ. eigenvalues --  -38.43004 -38.42964  -2.19950  -2.19843  -2.19722
  Beta  occ. eigenvalues --   -2.19569  -2.19530  -2.19035  -2.18838  -1.13668
  Beta  occ. eigenvalues --   -1.13648  -1.13617  -1.13526  -1.13505  -1.13480
  Beta  occ. eigenvalues --   -1.13475  -1.13374  -1.13331  -1.13304  -1.13268
  Beta  occ. eigenvalues --   -1.13218  -1.13172  -1.13169  -1.13144  -1.12708
  Beta  occ. eigenvalues --   -1.12697  -1.12671  -1.12516  -1.12499  -1.12476
  Beta  occ. eigenvalues --   -0.17892  -0.12826  -0.11971
  Beta virt. eigenvalues --   -0.07314  -0.05540  -0.04913  -0.04244  -0.02590
  Beta virt. eigenvalues --   -0.02369  -0.01908  -0.01422  -0.00995  -0.00201
  Beta virt. eigenvalues --   -0.00006   0.00169   0.00400   0.00813   0.00932
  Beta virt. eigenvalues --    0.00946   0.00953   0.01126   0.01293   0.01364
  Beta virt. eigenvalues --    0.01435   0.01466   0.01574   0.01711   0.01791
  Beta virt. eigenvalues --    0.02178   0.02360   0.02450   0.02579   0.02702
  Beta virt. eigenvalues --    0.02853   0.02889   0.03006   0.03106   0.03143
  Beta virt. eigenvalues --    0.03187   0.03286   0.03430   0.03484   0.03494
  Beta virt. eigenvalues --    0.03551   0.04218   0.04520   0.04613   0.04743
  Beta virt. eigenvalues --    0.04991   0.05086   0.05248   0.05368   0.05774
  Beta virt. eigenvalues --    0.05872   0.05988   0.06216   0.07087   0.07541
  Beta virt. eigenvalues --    0.07562   0.07804   0.08000   0.08066   0.08339
  Beta virt. eigenvalues --    0.09009   0.09673   0.10017   0.10580   0.11618
  Beta virt. eigenvalues --    0.11808   0.12351   0.12573   0.12736   0.13068
  Beta virt. eigenvalues --    0.13503   0.13795   0.14050   0.14475   0.14674
  Beta virt. eigenvalues --    0.14873   0.15206   0.15502   0.17088   0.17560
  Beta virt. eigenvalues --    0.18221   0.25923   0.26932   0.27751   0.28659
  Beta virt. eigenvalues --    0.29912   0.31046   0.31191   0.32481   0.32740
  Beta virt. eigenvalues --    0.33445   0.34455   0.35292   0.36574   0.36793
  Beta virt. eigenvalues --    0.37878   0.39490   0.40606   0.41118   0.41958
  Beta virt. eigenvalues --    0.42292   0.43645   0.44168   0.44308   0.44423
  Beta virt. eigenvalues --    0.44726   0.45017   0.45167   0.45806   0.46257
  Beta virt. eigenvalues --    0.46700   0.47120   0.47674   0.48465   0.48631
  Beta virt. eigenvalues --    0.49044   0.49709   0.50712   0.51246   0.51502
  Beta virt. eigenvalues --    0.52142   0.52417   0.53881   0.54223   0.55538
  Beta virt. eigenvalues --    0.57020   0.57225   0.58110   0.58921   0.59467
  Beta virt. eigenvalues --    0.61716   0.62614   0.66506   0.66726   0.70669
  Beta virt. eigenvalues --    0.73200   0.77478   2.04725   2.12601   2.15588
  Beta virt. eigenvalues --    2.17683   2.20394   2.22726   2.32247   4.42627
  Beta virt. eigenvalues --    4.43321   4.44071   4.45004   4.45641   4.46529
  Beta virt. eigenvalues --    4.46895   4.47295   4.47683   4.47929   4.48355
  Beta virt. eigenvalues --    4.49407   4.49592   4.50523   4.51161   4.53250
  Beta virt. eigenvalues --    4.56775   4.60216   4.61704   4.68142   4.72893
  Beta virt. eigenvalues --   96.24687  96.33757  96.37185  96.39804  96.43384
  Beta virt. eigenvalues --   96.46780  96.58735
          Condensed to atoms (all electrons):
               1          2          3          4          5          6
     1  Na  11.539245   0.322308   0.243702  -0.204243  -0.493458  -0.318678
     2  Na   0.322308  10.798297  -0.056052  -0.019654  -0.027346   0.036623
     3  Na   0.243702  -0.056052  12.036462  -0.874052   0.265467  -0.418488
     4  Na  -0.204243  -0.019654  -0.874052  12.253520  -0.375688   0.241051
     5  Na  -0.493458  -0.027346   0.265467  -0.375688  11.389054  -0.335600
     6  Na  -0.318678   0.036623  -0.418488   0.241051  -0.335600  12.239407
     7  Na  -0.064937   0.036092  -0.413562   0.132379   0.336072  -0.055741
               7
     1  Na  -0.064937
     2  Na   0.036092
     3  Na  -0.413562
     4  Na   0.132379
     5  Na   0.336072
     6  Na  -0.055741
     7  Na  10.831622
          Atomic-Atomic Spin Densities.
               1          2          3          4          5          6
     1  Na   0.204399   0.072658   0.117908  -0.208045   0.120354  -0.267875
     2  Na   0.072658   0.106442   0.025585  -0.108150  -0.019405   0.098004
     3  Na   0.117908   0.025585   0.160697   0.051673   0.150522  -0.380513
     4  Na  -0.208045  -0.108150   0.051673   0.269696  -0.068854  -0.072508
     5  Na   0.120354  -0.019405   0.150522  -0.068854   0.075725  -0.162141
     6  Na  -0.267875   0.098004  -0.380513  -0.072508  -0.162141   1.485259
     7  Na   0.133124   0.001881   0.031025  -0.145581   0.014896  -0.079095
               7
     1  Na   0.133124
     2  Na   0.001881
     3  Na   0.031025
     4  Na  -0.145581
     5  Na   0.014896
     6  Na  -0.079095
     7  Na   0.086856
 Mulliken charges and spin densities:
               1          2
     1  Na  -0.023939   0.172523
     2  Na  -0.090269   0.177015
     3  Na   0.216522   0.156896
     4  Na  -0.153313  -0.281767
     5  Na   0.241499   0.111097
     6  Na  -0.388574   0.621131
     7  Na   0.198074   0.043105
 Sum of Mulliken charges =  -0.00000   1.00000
 Mulliken charges and spin densities with hydrogens summed into heavy atoms:
               1          2
     1  Na  -0.023939   0.172523
     2  Na  -0.090269   0.177015
     3  Na   0.216522   0.156896
     4  Na  -0.153313  -0.281767
     5  Na   0.241499   0.111097
     6  Na  -0.388574   0.621131
     7  Na   0.198074   0.043105
 Electronic spatial extent (au):  <R**2>=           2274.3810
 Charge=             -0.0000 electrons
 Dipole moment (field-independent basis, Debye):
    X=             -0.0229    Y=             -0.2959    Z=              0.3110  Tot=              0.4299
 Quadrupole moment (field-independent basis, Debye-Ang):
   XX=            -57.4168   YY=            -65.3373   ZZ=            -71.0913
   XY=             -0.7670   XZ=             -0.3199   YZ=             -0.7064
 Traceless Quadrupole moment (field-independent basis, Debye-Ang):
   XX=              7.1983   YY=             -0.7221   ZZ=             -6.4762
   XY=             -0.7670   XZ=             -0.3199   YZ=             -0.7064
 Octapole moment (field-independent basis, Debye-Ang**2):
  XXX=             -6.1497  YYY=             -9.7465  ZZZ=              6.9161  XYY=              0.2659
  XXY=             -0.4869  XXZ=            -11.7982  XZZ=              1.3739  YZZ=              0.7299
  YYZ=              2.2068  XYZ=              0.2747
 Hexadecapole moment (field-independent basis, Debye-Ang**3):
 XXXX=          -1524.4637 YYYY=          -1383.9253 ZZZZ=           -841.3091 XXXY=            -52.0331
 XXXZ=             10.6255 YYYX=             31.3488 YYYZ=             22.3050 ZZZX=             13.3848
 ZZZY=            -14.6053 XXYY=           -451.3296 XXZZ=           -445.3952 YYZZ=           -401.6533
 XXYZ=            -24.0150 YYXZ=            -34.1594 ZZXY=             -3.9847
 N-N= 3.418020767460D+02 E-N=-3.413120737042D+03  KE= 1.132961590792D+03
                          Isotropic Fermi Contact Couplings
        Atom                 a.u.       MegaHertz       Gauss      10(-4) cm-1
     1  Na(23)            -0.02213     -26.18229      -9.34249      -8.73347
     2  Na(23)             0.02003      23.69967       8.45663       7.90536
     3  Na(23)             0.00166       1.96236       0.70022       0.65457
     4  Na(23)             0.11325     133.97230      47.80465      44.68835
     5  Na(23)             0.04006      47.39375      16.91127      15.80885
     6  Na(23)             0.47680     564.06506     201.27244     188.15185
     7  Na(23)             0.03398      40.20332      14.34554      13.41038
 --------------------------------------------------------
       Center         ----  Spin Dipole Couplings  ----
                      3XX-RR        3YY-RR        3ZZ-RR
 --------------------------------------------------------
     1   Atom       -0.009382     -0.010001      0.019384
     2   Atom       -0.012196     -0.003485      0.015681
     3   Atom       -0.015879     -0.009714      0.025593
     4   Atom       -0.000411     -0.017228      0.017640
     5   Atom       -0.012718     -0.003653      0.016371
     6   Atom       -0.002690      0.010022     -0.007332
     7   Atom       -0.000970     -0.004622      0.005591
 --------------------------------------------------------
                        XY            XZ            YZ
 --------------------------------------------------------
     1   Atom        0.001111      0.011044     -0.002679
     2   Atom       -0.003590      0.007342     -0.011640
     3   Atom       -0.001407      0.000844     -0.016840
     4   Atom        0.002291     -0.011716     -0.002621
     5   Atom        0.002532      0.002243      0.017703
     6   Atom       -0.001313      0.000626      0.001341
     7   Atom       -0.002427     -0.004115      0.004189
 --------------------------------------------------------


 ---------------------------------------------------------------------------------
              Anisotropic Spin Dipole Couplings in Principal Axis System
 ---------------------------------------------------------------------------------

       Atom             a.u.   MegaHertz   Gauss  10(-4) cm-1        Axes

              Baa    -0.0141    -1.986    -0.709    -0.662  0.8431 -0.4371 -0.3134
     1 Na(23) Bbb    -0.0092    -1.301    -0.464    -0.434  0.4340  0.8970 -0.0836
              Bcc     0.0233     3.287     1.173     1.096  0.3176 -0.0655  0.9459
 
              Baa    -0.0141    -1.990    -0.710    -0.664  0.9740  0.1157 -0.1949
     2 Na(23) Bbb    -0.0090    -1.268    -0.452    -0.423 -0.0207  0.9017  0.4318
              Bcc     0.0231     3.258     1.162     1.087  0.2258 -0.4165  0.8806
 
              Baa    -0.0172    -2.431    -0.867    -0.811  0.6065  0.7439  0.2807
     3 Na(23) Bbb    -0.0152    -2.140    -0.764    -0.714  0.7946 -0.5551 -0.2458
              Bcc     0.0324     4.571     1.631     1.525  0.0271 -0.3721  0.9278
 
              Baa    -0.0176    -2.482    -0.886    -0.828 -0.1063  0.9936  0.0386
     4 Na(23) Bbb    -0.0061    -0.862    -0.308    -0.288  0.8906  0.0779  0.4480
              Bcc     0.0237     3.344     1.193     1.115 -0.4422 -0.0820  0.8932
 
              Baa    -0.0146    -2.068    -0.738    -0.690 -0.5328  0.7510 -0.3901
     5 Na(23) Bbb    -0.0123    -1.739    -0.620    -0.580  0.8424  0.4267 -0.3292
              Bcc     0.0270     3.807     1.358     1.270  0.0808  0.5040  0.8599
 
              Baa    -0.0075    -1.065    -0.380    -0.355 -0.1503 -0.0864  0.9849
     6 Na(23) Bbb    -0.0027    -0.382    -0.136    -0.127  0.9839  0.0849  0.1575
              Bcc     0.0102     1.447     0.516     0.483 -0.0972  0.9926  0.0723
 
              Baa    -0.0063    -0.895    -0.319    -0.298  0.2338  0.9398 -0.2494
     7 Na(23) Bbb    -0.0029    -0.412    -0.147    -0.137  0.8775 -0.0935  0.4704
              Bcc     0.0093     1.307     0.466     0.436 -0.4188  0.3288  0.8465
 

 ---------------------------------------------------------------------------------

 No NMR shielding tensors so no spin-rotation constants.
 Leave Link  601 at Thu Dec  7 01:56:58 2023, MaxMem=  1879048192 cpu:               2.3 elap:               0.2
 (Enter /home/sekinelabo/g16/l701.exe)
 ... and contract with generalized density number  0.
 Compute integral first derivatives.
 Leave Link  701 at Thu Dec  7 01:56:59 2023, MaxMem=  1879048192 cpu:               1.6 elap:               0.1
 (Enter /home/sekinelabo/g16/l702.exe)
 L702 exits ... SP integral derivatives will be done elsewhere.
 Leave Link  702 at Thu Dec  7 01:56:59 2023, MaxMem=  1879048192 cpu:               0.5 elap:               0.0
 (Enter /home/sekinelabo/g16/l703.exe)
 Integral derivatives from FoFJK, PRISM(SPDF).
 Compute integral first derivatives, UseDBF=F ICtDFT=           0.
 Calling FoFJK, ICntrl=      2127 FMM=F ISym2X=0 I1Cent= 0 IOpClX= 1 NMat=1 NMatS=1 NMatT=0.
 FoFJK:  IHMeth= 1 ICntrl=    2127 DoSepK=F KAlg= 0 I1Cent=           0 FoldK=F
 IRaf=         0 NMat=       1 IRICut=       1 DoRegI=T DoRafI=F ISym2E= 0 IDoP0=0 IntGTp=1.
 FoFCou: FMM=F IPFlag=           0 FMFlag=      100000 FMFlg1=         800
         NFxFlg=           0 DoJE=F BraDBF=F KetDBF=F FulRan=T
         wScrn=  0.000000 ICntrl=      2127 IOpCl=  1 I1Cent=           0 NGrid=           0
         NMat0=    1 NMatS0=      1 NMatT0=    0 NMatD0=    1 NMtDS0=    0 NMtDT0=    0
 Symmetry not used in FoFCou.
 Leave Link  703 at Thu Dec  7 01:57:01 2023, MaxMem=  1879048192 cpu:              33.2 elap:               2.2
 (Enter /home/sekinelabo/g16/l716.exe)
 Dipole        =-9.01857517D-03-1.16410060D-01 1.22365999D-01
 ***** Axes restored to original set *****
 -------------------------------------------------------------------
 Center     Atomic                   Forces (Hartrees/Bohr)
 Number     Number              X              Y              Z
 -------------------------------------------------------------------
      1       11           0.000132052   -0.002415982   -0.001574159
      2       11          -0.000396619   -0.001023317    0.000826803
      3       11          -0.000780595   -0.001008678   -0.006095427
      4       11          -0.002291854   -0.001316555    0.007613587
      5       11           0.004416372    0.003914427   -0.000690249
      6       11          -0.001927485    0.001477823    0.001611130
      7       11           0.000848129    0.000372281   -0.001691685
 -------------------------------------------------------------------
 Cartesian Forces:  Max     0.007613587 RMS     0.002772932
 Z-matrix is all fixed cartesians, so copy forces.
 Force constants in Cartesian coordinates: 
                1             2             3             4             5 
      1  0.510949D-01
      2  0.160524D-01  0.561960D-01
      3  0.434691D-02  0.760367D-02  0.505587D-01
      4 -0.162504D-02 -0.269753D-02 -0.359364D-02  0.762152D-01
      5 -0.711396D-02  0.100390D-02 -0.358124D-02  0.533927D-02  0.523128D-01
      6 -0.465465D-02 -0.188085D-02  0.387088D-02  0.184640D-01 -0.373506D-02
      7  0.269484D-02 -0.356421D-02  0.302177D-02  0.208712D-02  0.111913D-02
      8  0.552967D-03 -0.367925D-02  0.861088D-02  0.103417D-02  0.726707D-02
      9 -0.109750D-02  0.135082D-02  0.117021D-02 -0.410125D-02  0.191461D-02
     10 -0.303910D-01 -0.117268D-01  0.490638D-03 -0.293134D-01  0.637191D-02
     11  0.170256D-01 -0.422417D-01 -0.677496D-02  0.448184D-05 -0.152228D-01
     12  0.641550D-02 -0.829678D-02 -0.304371D-01 -0.953225D-02  0.147446D-02
     13  0.466961D-02 -0.850618D-03 -0.175460D-02 -0.165981D-01  0.117203D-01
     14 -0.503591D-02  0.670412D-03  0.259712D-02 -0.117648D-01 -0.239120D-01
     15 -0.330842D-02 -0.748063D-04  0.442705D-02 -0.145325D-02  0.131740D-01
     16 -0.165991D-01  0.652647D-02  0.688245D-02 -0.127769D-01 -0.631323D-02
     17 -0.130617D-01 -0.579330D-02  0.419405D-02  0.666868D-02 -0.115990D-01
     18 -0.414921D-02 -0.681033D-02 -0.907038D-02  0.122265D-01 -0.636291D-02
     19 -0.984416D-02 -0.373968D-02 -0.939352D-02 -0.179889D-01 -0.111234D-01
     20 -0.841936D-02 -0.615603D-02 -0.126495D-01  0.141570D-02 -0.985000D-02
     21  0.244737D-02  0.810828D-02 -0.205194D-01 -0.120101D-01 -0.288391D-02
                6             7             8             9            10 
      6  0.636239D-01
      7 -0.748568D-02  0.512994D-01
      8  0.258164D-02 -0.153250D-02  0.510659D-01
      9 -0.243390D-02  0.151639D-01 -0.604620D-02  0.755856D-01
     10  0.683934D-02 -0.346148D-01  0.593198D-02 -0.987322D-02  0.188662D+00
     11 -0.213226D-02 -0.161593D-02 -0.336202D-01  0.329873D-02 -0.118153D-01
     12 -0.165327D-01  0.219800D-01 -0.446270D-02 -0.500112D-01 -0.147031D-01
     13 -0.118638D-01 -0.116955D-01 -0.909795D-02 -0.545461D-02 -0.440639D-01
     14 -0.251682D-02  0.523205D-03 -0.166327D-01  0.669731D-02  0.662386D-02
     15 -0.165025D-01 -0.174071D-01 -0.150259D-01 -0.154392D-01  0.669911D-02
     16 -0.119846D-01 -0.146779D-01  0.481988D-02  0.561482D-02 -0.210664D-01
     17  0.402579D-03  0.635092D-02 -0.103993D-01 -0.880909D-02  0.539731D-02
     18 -0.163866D-01 -0.133750D-01  0.919540D-02 -0.101325D-01  0.490020D-02
     19  0.106854D-01  0.490682D-02 -0.170854D-02 -0.252148D-03 -0.292126D-01
     20  0.728078D-02 -0.128062D-02  0.599839D-02  0.159381D-02 -0.782946D-03
     21 -0.156390D-01 -0.189799D-02  0.514684D-02  0.126100D-02  0.564704D-02
               11            12            13            14            15 
     11  0.171391D+00
     12  0.711940D-02  0.169893D+00
     13 -0.190736D-01  0.203420D-02  0.565950D-01
     14 -0.327410D-01 -0.214996D-02  0.141846D-01  0.840220D-01
     15  0.816415D-02 -0.313778D-01  0.118900D-01 -0.449649D-02  0.541734D-01
     16  0.523563D-02  0.563296D-02  0.366437D-02 -0.290468D-02  0.292400D-03
     17 -0.160759D-01 -0.280492D-02  0.522764D-02 -0.101571D-01 -0.643508D-02
     18 -0.229869D-02 -0.165990D-01  0.227747D-02 -0.176469D-02  0.266134D-02
     19  0.102392D-01 -0.118273D-01  0.742851D-02 -0.162636D-02  0.328726D-02
     20 -0.314898D-01  0.912049D-02 -0.211042D-02 -0.124974D-02  0.469406D-02
     21 -0.737637D-02 -0.249352D-01  0.287140D-02  0.163353D-02  0.205774D-02
               16            17            18            19            20 
     16  0.590298D-01
     17 -0.918578D-02  0.505210D-01
     18 -0.936012D-02  0.936153D-02  0.555202D-01
     19  0.242608D-02 -0.139709D-02  0.748014D-02  0.422843D-01
     20  0.182170D-02  0.350357D-02 -0.132031D-02  0.935594D-02  0.392436D-01
     21  0.292204D-02  0.409092D-02 -0.599301D-02  0.201980D-04 -0.871929D-02
               21 
     21  0.637679D-01
 Leave Link  716 at Thu Dec  7 01:57:01 2023, MaxMem=  1879048192 cpu:               0.4 elap:               0.0
 (Enter /home/sekinelabo/g16/l103.exe)

 GradGradGradGradGradGradGradGradGradGradGradGradGradGradGradGradGradGrad
 Berny optimization.
 Search for a local minimum.
 Step number   1 out of a maximum of    2
 All quantities printed in internal units (Hartrees-Bohrs-Radians)
 Second derivative matrix not updated -- first step.
 ITU=  0
     Eigenvalues ---    0.03794   0.04512   0.05072   0.06206   0.06532
     Eigenvalues ---    0.06864   0.07327   0.08443   0.08681   0.09878
     Eigenvalues ---    0.11089   0.12622   0.20088   0.20520   0.23916
 Angle between quadratic step and forces=  27.40 degrees.
 Linear search not attempted -- first point.
 B after Tr=    -0.000000    0.000000    0.000000
         Rot=    1.000000    0.000000    0.000000    0.000000 Ang=   0.00 deg.
 Variable       Old X    -DE/DX   Delta X   Delta X   Delta X     New X
                                 (Linear)    (Quad)   (Total)
    X1       19.08434   0.00013   0.00000   0.00096   0.00096  19.08530
    Y1       18.11990  -0.00242   0.00000  -0.03484  -0.03484  18.08507
    Z1       21.91837  -0.00157   0.00000  -0.00496  -0.00496  21.91341
    X2       26.72602  -0.00040   0.00000  -0.00373  -0.00373  26.72229
    Y2       23.39557  -0.00102   0.00000  -0.00510  -0.00510  23.39046
    Z2       25.88301   0.00083   0.00000   0.02351   0.02351  25.90652
    X3       20.71121  -0.00078   0.00000  -0.01981  -0.01981  20.69140
    Y3       25.10558  -0.00101   0.00000  -0.00136  -0.00136  25.10421
    Z3       17.63562  -0.00610   0.00000  -0.04996  -0.04996  17.58567
    X4       20.45024  -0.00229   0.00000  -0.01062  -0.01062  20.43961
    Y4       23.64406  -0.00132   0.00000  -0.00438  -0.00438  23.63969
    Z4       23.04219   0.00761   0.00000   0.03246   0.03246  23.07464
    X5       24.28279   0.00442   0.00000   0.05263   0.05263  24.33542
    Y5       27.79636   0.00391   0.00000   0.04157   0.04157  27.83793
    Z5       22.09562  -0.00069   0.00000  -0.01015  -0.01015  22.08547
    X6       25.50318  -0.00193   0.00000  -0.02753  -0.02753  25.47565
    Y6       20.40583   0.00148   0.00000   0.01541   0.01541  20.42123
    Z6       19.55186   0.00161   0.00000   0.01719   0.01719  19.56906
    X7       21.36487   0.00085   0.00000   0.00810   0.00810  21.37297
    Y7       19.65542   0.00037   0.00000  -0.01129  -0.01129  19.64413
    Z7       27.99591  -0.00169   0.00000  -0.00810  -0.00810  27.98782
         Item               Value     Threshold  Converged?
 Maximum Force            0.007614     0.000450     NO 
 RMS     Force            0.002773     0.000300     NO 
 Maximum Displacement     0.052631     0.001800     NO 
 RMS     Displacement     0.023962     0.001200     NO 
 Predicted change in Energy=-6.194256D-04
 GradGradGradGradGradGradGradGradGradGradGradGradGradGradGradGradGradGrad

 Leave Link  103 at Thu Dec  7 01:57:01 2023, MaxMem=  1879048192 cpu:               0.2 elap:               0.0
 (Enter /home/sekinelabo/g16/l9999.exe)
 1\1\GINC-SEKINELABO-XA7R-R37\Force\UB3LYP\6-311+G(d)\Na7(2)\SEKINELABO
 \07-Dec-2023\0\\#P B3LYP/6-311+g(d) force\\DPGEN\\0,2\Na,10.099,9.5886
 4,11.5987\Na,14.1428,12.3804,13.6967\Na,10.9599,13.2853,9.33237\Na,10.
 8218,12.5119,12.1934\Na,12.8499,14.7092,11.6925\Na,13.4957,10.7983,10.
 3464\Na,11.3058,10.4012,14.8148\\Version=ES64L-G16RevB.01\State=2-A\HF
 =-1136.1296813\S2=0.760754\S2-1=0.\S2A=0.750079\RMSD=8.905e-09\RMSF=2.
 773e-03\Dipole=0.01244,-0.1265296,-0.1115418\Quadrupole=-3.3745999,1.0
 960989,2.278501,2.0978144,0.7133031,-3.593604\PG=C01 [X(Na7)]\\@


 Boundary, n.  In political geography, an imaginary
 line between two nations, separating the imaginary
 rights of one from the imaginary rights of another.
                               -- Ambrose Bierce
 Job cpu time:       0 days  0 hours  3 minutes 45.2 seconds.
 Elapsed time:       0 days  0 hours  0 minutes 18.8 seconds.
 File lengths (MBytes):  RWF=     32 Int=      0 D2E=      0 Chk=      4 Scr=      1
 Normal termination of Gaussian 16 at Thu Dec  7 01:57:01 2023.
