 Set GAUSS_MDEF to "14GB".
 Entering Gaussian System, Link 0=g16
 Initial command:
 /home/sekinelabo/g16/l1.exe "/home/sekinelabo/g16temp/Gau-61110.inp" -scrdir="/home/sekinelabo/g16temp/"
 Entering Link 1 = /home/sekinelabo/g16/l1.exe PID=     61112.
  
 Copyright (c) 1988-2017, Gaussian, Inc.  All Rights Reserved.
  
 This is part of the Gaussian(R) 16 program.  It is based on
 the Gaussian(R) 09 system (copyright 2009, Gaussian, Inc.),
 the Gaussian(R) 03 system (copyright 2003, Gaussian, Inc.),
 the Gaussian(R) 98 system (copyright 1998, Gaussian, Inc.),
 the Gaussian(R) 94 system (copyright 1995, Gaussian, Inc.),
 the Gaussian 92(TM) system (copyright 1992, Gaussian, Inc.),
 the Gaussian 90(TM) system (copyright 1990, Gaussian, Inc.),
 the Gaussian 88(TM) system (copyright 1988, Gaussian, Inc.),
 the Gaussian 86(TM) system (copyright 1986, Carnegie Mellon
 University), and the Gaussian 82(TM) system (copyright 1983,
 Carnegie Mellon University). Gaussian is a federally registered
 trademark of Gaussian, Inc.
  
 This software contains proprietary and confidential information,
 including trade secrets, belonging to Gaussian, Inc.
  
 This software is provided under written license and may be
 used, copied, transmitted, or stored only in accord with that
 written license.
  
 The following legend is applicable only to US Government
 contracts under FAR:
  
                    RESTRICTED RIGHTS LEGEND
  
 Use, reproduction and disclosure by the US Government is
 subject to restrictions as set forth in subparagraphs (a)
 and (c) of the Commercial Computer Software - Restricted
 Rights clause in FAR 52.227-19.
  
 Gaussian, Inc.
 340 Quinnipiac St., Bldg. 40, Wallingford CT 06492
  
  
 ---------------------------------------------------------------
 Warning -- This program may not be used in any manner that
 competes with the business of Gaussian, Inc. or will provide
 assistance to any competitor of Gaussian, Inc.  The licensee
 of this program is prohibited from giving any competitor of
 Gaussian, Inc. access to this program.  By using this program,
 the user acknowledges that Gaussian, Inc. is engaged in the
 business of creating and licensing software in the field of
 computational chemistry and represents and warrants to the
 licensee that it is not a competitor of Gaussian, Inc. and that
 it will not use this program in any manner prohibited above.
 ---------------------------------------------------------------
  

 Cite this work as:
 Gaussian 16, Revision B.01,
 M. J. Frisch, G. W. Trucks, H. B. Schlegel, G. E. Scuseria, 
 M. A. Robb, J. R. Cheeseman, G. Scalmani, V. Barone, 
 G. A. Petersson, H. Nakatsuji, X. Li, M. Caricato, A. V. Marenich, 
 J. Bloino, B. G. Janesko, R. Gomperts, B. Mennucci, H. P. Hratchian, 
 J. V. Ortiz, A. F. Izmaylov, J. L. Sonnenberg, D. Williams-Young, 
 F. Ding, F. Lipparini, F. Egidi, J. Goings, B. Peng, A. Petrone, 
 T. Henderson, D. Ranasinghe, V. G. Zakrzewski, J. Gao, N. Rega, 
 G. Zheng, W. Liang, M. Hada, M. Ehara, K. Toyota, R. Fukuda, 
 J. Hasegawa, M. Ishida, T. Nakajima, Y. Honda, O. Kitao, H. Nakai, 
 T. Vreven, K. Throssell, J. A. Montgomery, Jr., J. E. Peralta, 
 F. Ogliaro, M. J. Bearpark, J. J. Heyd, E. N. Brothers, K. N. Kudin, 
 V. N. Staroverov, T. A. Keith, R. Kobayashi, J. Normand, 
 K. Raghavachari, A. P. Rendell, J. C. Burant, S. S. Iyengar, 
 J. Tomasi, M. Cossi, J. M. Millam, M. Klene, C. Adamo, R. Cammi, 
 J. W. Ochterski, R. L. Martin, K. Morokuma, O. Farkas, 
 J. B. Foresman, and D. J. Fox, Gaussian, Inc., Wallingford CT, 2016.
 
 ******************************************
 Gaussian 16:  ES64L-G16RevB.01 20-Dec-2017
                28-Nov-2023 
 ******************************************
 %nproc=15
 Will use up to   15 processors via shared memory.
 -------------------------
 #P B3LYP/6-311+g(d) force
 -------------------------
 1/10=7,30=1,38=1/1,3;
 2/12=2,17=6,18=5,40=1/2;
 3/5=4,6=6,7=11,11=2,25=1,30=1,71=1,74=-5/1,2,3;
 4//1;
 5/5=2,38=5/2;
 6/7=2,8=2,9=2,10=2,28=1/1;
 7/29=1/1,2,3,16;
 1/10=7,30=1/3;
 99//99;
 Leave Link    1 at Tue Nov 28 20:14:09 2023, MaxMem=           0 cpu:               0.3 elap:               0.0
 (Enter /home/sekinelabo/g16/l101.exe)
 -----
 DPGEN
 -----
 Symbolic Z-matrix:
 Charge =  0 Multiplicity = 2
 Na                    15.4832   13.3952   14.8266 
 Na                    16.5332   13.3547   11.9239 
 Na                    17.3356   16.2218   13.0525 
 Na                    18.7415   17.9293   15.6466 
 Na                    15.9731   16.3356   16.6073 
 Na                    12.8191   14.2102   17.1717 
 Na                    10.5399   15.9789   18.1968 
 
 ITRead=  0  0  0  0  0  0  0
 MicOpt= -1 -1 -1 -1 -1 -1 -1
 NAtoms=      7 NQM=        7 NQMF=       0 NMMI=      0 NMMIF=      0
                NMic=       0 NMicF=      0.
                    Isotopes and Nuclear Properties:
 (Nuclear quadrupole moments (NQMom) in fm**2, nuclear magnetic moments (NMagM)
  in nuclear magnetons)

  Atom         1           2           3           4           5           6           7
 IAtWgt=          23          23          23          23          23          23          23
 AtmWgt=  22.9897697  22.9897697  22.9897697  22.9897697  22.9897697  22.9897697  22.9897697
 NucSpn=           3           3           3           3           3           3           3
 AtZEff=  -0.0000000  -0.0000000  -0.0000000  -0.0000000  -0.0000000  -0.0000000  -0.0000000
 NQMom=   10.4000000  10.4000000  10.4000000  10.4000000  10.4000000  10.4000000  10.4000000
 NMagM=    2.2175200   2.2175200   2.2175200   2.2175200   2.2175200   2.2175200   2.2175200
 AtZNuc=  11.0000000  11.0000000  11.0000000  11.0000000  11.0000000  11.0000000  11.0000000
 Leave Link  101 at Tue Nov 28 20:14:09 2023, MaxMem=  1879048192 cpu:               2.3 elap:               0.2
 (Enter /home/sekinelabo/g16/l103.exe)

 GradGradGradGradGradGradGradGradGradGradGradGradGradGradGradGradGradGrad
 Berny optimization.
 Initialization pass.
 Trust Radius=3.00D-01 FncErr=1.00D-07 GrdErr=1.00D-07 EigMax=2.50D+02 EigMin=1.00D-04
 Number of steps in this run=      2 maximum allowed number of steps=      2.
 GradGradGradGradGradGradGradGradGradGradGradGradGradGradGradGradGradGrad

 Leave Link  103 at Tue Nov 28 20:14:09 2023, MaxMem=  1879048192 cpu:               0.2 elap:               0.0
 (Enter /home/sekinelabo/g16/l202.exe)
                          Input orientation:                          
 ---------------------------------------------------------------------
 Center     Atomic      Atomic             Coordinates (Angstroms)
 Number     Number       Type             X           Y           Z
 ---------------------------------------------------------------------
      1         11           0       15.483200   13.395200   14.826600
      2         11           0       16.533200   13.354700   11.923900
      3         11           0       17.335600   16.221800   13.052500
      4         11           0       18.741500   17.929300   15.646600
      5         11           0       15.973100   16.335600   16.607300
      6         11           0       12.819100   14.210200   17.171700
      7         11           0       10.539900   15.978900   18.196800
 ---------------------------------------------------------------------
                    Distance matrix (angstroms):
                    1          2          3          4          5
     1  Na   0.000000
     2  Na   3.087039   0.000000
     3  Na   3.816868   3.183998   0.000000
     4  Na   5.643313   6.297781   3.409027   0.000000
     5  Na   3.472297   5.579759   3.808669   3.335695   0.000000
     6  Na   3.641586   6.485817   6.435302   7.157685   3.844943
     7  Na   6.516899   9.063959   8.526685   8.807600   5.672161
                    6          7
     6  Na   0.000000
     7  Na   3.061680   0.000000
 Stoichiometry    Na7(2)
 Framework group  C1[X(Na7)]
 Deg. of freedom    15
 Full point group                 C1      NOp   1
 Largest Abelian subgroup         C1      NOp   1
 Largest concise Abelian subgroup C1      NOp   1
                         Standard orientation:                         
 ---------------------------------------------------------------------
 Center     Atomic      Atomic             Coordinates (Angstroms)
 Number     Number       Type             X           Y           Z
 ---------------------------------------------------------------------
      1         11           0       -0.312758   -1.767962   -0.934419
      2         11           0       -2.844082   -2.979444    0.351861
      3         11           0       -2.990596    0.131951    1.011858
      4         11           0       -2.722263    3.288605   -0.247110
      5         11           0        0.168523    1.641601   -0.487103
      6         11           0        3.171178   -0.756421   -0.618003
      7         11           0        5.529998    0.441670    0.922915
 ---------------------------------------------------------------------
 Rotational constants (GHZ):           0.7364402           0.3197054           0.2402388
 Leave Link  202 at Tue Nov 28 20:14:09 2023, MaxMem=  1879048192 cpu:               0.0 elap:               0.0
 (Enter /home/sekinelabo/g16/l301.exe)
 Standard basis: 6-311+G(d) (5D, 7F)
 Ernie: Thresh=  0.10000D-02 Tol=  0.10000D-05 Strict=F.
 There are   217 symmetry adapted cartesian basis functions of A   symmetry.
 There are   210 symmetry adapted basis functions of A   symmetry.
   210 basis functions,   350 primitive gaussians,   217 cartesian basis functions
    39 alpha electrons       38 beta electrons
       nuclear repulsion energy       290.7217616454 Hartrees.
 IExCor=  402 DFT=T Ex+Corr=B3LYP ExCW=0 ScaHFX=  0.200000
 ScaDFX=  0.800000  0.720000  1.000000  0.810000 ScalE2=  1.000000  1.000000
 IRadAn=      5 IRanWt=     -1 IRanGd=            0 ICorTp=0 IEmpDi=  4
 NAtoms=    7 NActive=    7 NUniq=    7 SFac= 1.00D+00 NAtFMM=   60 NAOKFM=F Big=F
 Integral buffers will be    131072 words long.
 Raffenetti 2 integral format.
 Two-electron integral symmetry is turned on.
 Leave Link  301 at Tue Nov 28 20:14:09 2023, MaxMem=  1879048192 cpu:               0.5 elap:               0.0
 (Enter /home/sekinelabo/g16/l302.exe)
 NPDir=0 NMtPBC=     1 NCelOv=     1 NCel=       1 NClECP=     1 NCelD=      1
         NCelK=      1 NCelE2=     1 NClLst=     1 CellRange=     0.0.
 One-electron integrals computed using PRISM.
 One-electron integral symmetry used in STVInt
 NBasis=   210 RedAO= T EigKep=  4.88D-06  NBF=   210
 NBsUse=   210 1.00D-06 EigRej= -1.00D+00 NBFU=   210
 Precomputing XC quadrature grid using
 IXCGrd= 4 IRadAn=           5 IRanWt=          -1 IRanGd=           0 AccXCQ= 0.00D+00.
 Generated NRdTot=       0 NPtTot=           0 NUsed=           0 NTot=          32
 NSgBfM=   207   207   207   207   207 MxSgAt=     7 MxSgA2=     7.
 Leave Link  302 at Tue Nov 28 20:14:09 2023, MaxMem=  1879048192 cpu:               1.9 elap:               0.1
 (Enter /home/sekinelabo/g16/l303.exe)
 DipDrv:  MaxL=1.
 Leave Link  303 at Tue Nov 28 20:14:09 2023, MaxMem=  1879048192 cpu:               0.5 elap:               0.0
 (Enter /home/sekinelabo/g16/l401.exe)
 ExpMin= 7.60D-03 ExpMax= 3.62D+04 ExpMxC= 1.21D+03 IAcc=3 IRadAn=         5 AccDes= 0.00D+00
 Harris functional with IExCor=  402 and IRadAn=       5 diagonalized for initial guess.
 HarFok:  IExCor=  402 AccDes= 0.00D+00 IRadAn=         5 IDoV= 1 UseB2=F ITyADJ=14
 ICtDFT=  3500011 ScaDFX=  1.000000  1.000000  1.000000  1.000000
 FoFCou: FMM=F IPFlag=           0 FMFlag=      100000 FMFlg1=           0
         NFxFlg=           0 DoJE=T BraDBF=F KetDBF=T FulRan=T
         wScrn=  0.000000 ICntrl=       500 IOpCl=  0 I1Cent=   200000004 NGrid=           0
         NMat0=    1 NMatS0=      1 NMatT0=    0 NMatD0=    1 NMtDS0=    0 NMtDT0=    0
 Petite list used in FoFCou.
 Harris En= -1135.89311893273    
 JPrj=0 DoOrth=F DoCkMO=F.
 Initial guess <Sx>= 0.0000 <Sy>= 0.0000 <Sz>= 0.5000 <S**2>= 0.7500 S= 0.5000
 Leave Link  401 at Tue Nov 28 20:14:09 2023, MaxMem=  1879048192 cpu:               4.2 elap:               0.3
 (Enter /home/sekinelabo/g16/l502.exe)
 Keep R1 and R2 ints in memory in canonical form, NReq=506573307.
 FoFCou: FMM=F IPFlag=           0 FMFlag=           0 FMFlg1=           0
         NFxFlg=           0 DoJE=F BraDBF=F KetDBF=F FulRan=T
         wScrn=  0.000000 ICntrl=       600 IOpCl=  0 I1Cent=           0 NGrid=           0
         NMat0=    1 NMatS0=  22155 NMatT0=    0 NMatD0=    1 NMtDS0=    0 NMtDT0=    0
 Symmetry not used in FoFCou.
 Two-electron integral symmetry not used.
 UHF open shell SCF:
 Using DIIS extrapolation, IDIIS=  1040.
 NGot=  1879048192 LenX=  1388082593 LenY=  1388035063
 Requested convergence on RMS density matrix=1.00D-08 within 128 cycles.
 Requested convergence on MAX density matrix=1.00D-06.
 Requested convergence on             energy=1.00D-06.
 No special actions if energy rises.

 Cycle   1  Pass 1  IDiag  1:
 E= -1136.09915425485    
 DIIS: error= 1.04D-02 at cycle   1 NSaved=   1.
 NSaved= 1 IEnMin= 1 EnMin= -1136.09915425485     IErMin= 1 ErrMin= 1.04D-02
 ErrMax= 1.04D-02  0.00D+00 EMaxC= 1.00D-01 BMatC= 1.82D-01 BMatP= 1.82D-01
 IDIUse=3 WtCom= 8.96D-01 WtEn= 1.04D-01
 Coeff-Com:  0.100D+01
 Coeff-En:   0.100D+01
 Coeff:      0.100D+01
 Gap=     0.055 Goal=   None    Shift=    0.000
 Gap=     0.042 Goal=   None    Shift=    0.000
 GapD=    0.042 DampG=0.250 DampE=0.500 DampFc=0.2500 IDamp=-1.
 Damping current iteration by 2.50D-01
 RMSDP=1.24D-02 MaxDP=1.17D+00              OVMax= 1.67D-01

 Cycle   2  Pass 1  IDiag  1:
 E= -1136.10779546893     Delta-E=       -0.008641214082 Rises=F Damp=T
 DIIS: error= 7.50D-03 at cycle   2 NSaved=   2.
 NSaved= 2 IEnMin= 2 EnMin= -1136.10779546893     IErMin= 2 ErrMin= 7.50D-03
 ErrMax= 7.50D-03  0.00D+00 EMaxC= 1.00D-01 BMatC= 7.04D-02 BMatP= 1.82D-01
 IDIUse=3 WtCom= 9.25D-01 WtEn= 7.50D-02
 Coeff-Com: -0.130D+01 0.230D+01
 Coeff-En:   0.000D+00 0.100D+01
 Coeff:     -0.120D+01 0.220D+01
 Gap=     0.058 Goal=   None    Shift=    0.000
 Gap=     0.048 Goal=   None    Shift=    0.000
 RMSDP=6.35D-03 MaxDP=6.84D-01 DE=-8.64D-03 OVMax= 1.69D-01

 Cycle   3  Pass 1  IDiag  1:
 E= -1136.12387939079     Delta-E=       -0.016083921860 Rises=F Damp=F
 DIIS: error= 2.22D-03 at cycle   3 NSaved=   3.
 NSaved= 3 IEnMin= 3 EnMin= -1136.12387939079     IErMin= 3 ErrMin= 2.22D-03
 ErrMax= 2.22D-03  0.00D+00 EMaxC= 1.00D-01 BMatC= 1.48D-03 BMatP= 7.04D-02
 IDIUse=3 WtCom= 9.78D-01 WtEn= 2.22D-02
 Coeff-Com: -0.139D+00 0.241D+00 0.899D+00
 Coeff-En:   0.000D+00 0.000D+00 0.100D+01
 Coeff:     -0.136D+00 0.235D+00 0.901D+00
 Gap=     0.059 Goal=   None    Shift=    0.000
 Gap=     0.045 Goal=   None    Shift=    0.000
 RMSDP=2.61D-03 MaxDP=1.93D-01 DE=-1.61D-02 OVMax= 1.09D-01

 Cycle   4  Pass 1  IDiag  1:
 E= -1136.12315363067     Delta-E=        0.000725760121 Rises=F Damp=F
 DIIS: error= 2.82D-03 at cycle   4 NSaved=   4.
 NSaved= 4 IEnMin= 3 EnMin= -1136.12387939079     IErMin= 3 ErrMin= 2.22D-03
 ErrMax= 2.82D-03  0.00D+00 EMaxC= 1.00D-01 BMatC= 2.24D-03 BMatP= 1.48D-03
 IDIUse=3 WtCom= 1.58D-01 WtEn= 8.42D-01
 Coeff-Com: -0.405D-02 0.475D-02 0.552D+00 0.447D+00
 Coeff-En:   0.000D+00 0.000D+00 0.578D+00 0.422D+00
 Coeff:     -0.642D-03 0.753D-03 0.574D+00 0.426D+00
 Gap=     0.056 Goal=   None    Shift=    0.000
 Gap=     0.047 Goal=   None    Shift=    0.000
 RMSDP=1.45D-03 MaxDP=1.17D-01 DE= 7.26D-04 OVMax= 5.93D-02

 Cycle   5  Pass 1  IDiag  1:
 E= -1136.12556164811     Delta-E=       -0.002408017443 Rises=F Damp=F
 DIIS: error= 1.78D-04 at cycle   5 NSaved=   5.
 NSaved= 5 IEnMin= 5 EnMin= -1136.12556164811     IErMin= 5 ErrMin= 1.78D-04
 ErrMax= 1.78D-04  0.00D+00 EMaxC= 1.00D-01 BMatC= 1.49D-05 BMatP= 1.48D-03
 IDIUse=3 WtCom= 9.98D-01 WtEn= 1.78D-03
 Coeff-Com:  0.288D-02-0.484D-02 0.114D+00 0.522D-01 0.836D+00
 Coeff-En:   0.000D+00 0.000D+00 0.000D+00 0.000D+00 0.100D+01
 Coeff:      0.288D-02-0.483D-02 0.114D+00 0.521D-01 0.836D+00
 Gap=     0.056 Goal=   None    Shift=    0.000
 Gap=     0.048 Goal=   None    Shift=    0.000
 RMSDP=2.58D-04 MaxDP=1.34D-02 DE=-2.41D-03 OVMax= 1.04D-02

 Cycle   6  Pass 1  IDiag  1:
 E= -1136.12558499256     Delta-E=       -0.000023344449 Rises=F Damp=F
 DIIS: error= 1.23D-04 at cycle   6 NSaved=   6.
 NSaved= 6 IEnMin= 6 EnMin= -1136.12558499256     IErMin= 6 ErrMin= 1.23D-04
 ErrMax= 1.23D-04  0.00D+00 EMaxC= 1.00D-01 BMatC= 6.40D-06 BMatP= 1.49D-05
 IDIUse=3 WtCom= 9.99D-01 WtEn= 1.23D-03
 Coeff-Com:  0.174D-02-0.277D-02-0.791D-01-0.847D-01 0.463D+00 0.702D+00
 Coeff-En:   0.000D+00 0.000D+00 0.000D+00 0.000D+00 0.000D+00 0.100D+01
 Coeff:      0.173D-02-0.276D-02-0.790D-01-0.846D-01 0.463D+00 0.702D+00
 Gap=     0.056 Goal=   None    Shift=    0.000
 Gap=     0.048 Goal=   None    Shift=    0.000
 RMSDP=1.71D-04 MaxDP=1.36D-02 DE=-2.33D-05 OVMax= 5.61D-03

 Cycle   7  Pass 1  IDiag  1:
 E= -1136.12559743663     Delta-E=       -0.000012444071 Rises=F Damp=F
 DIIS: error= 5.00D-05 at cycle   7 NSaved=   7.
 NSaved= 7 IEnMin= 7 EnMin= -1136.12559743663     IErMin= 7 ErrMin= 5.00D-05
 ErrMax= 5.00D-05  0.00D+00 EMaxC= 1.00D-01 BMatC= 8.92D-07 BMatP= 6.40D-06
 IDIUse=1 WtCom= 1.00D+00 WtEn= 0.00D+00
 Coeff-Com:  0.589D-04-0.254D-04-0.638D-01-0.488D-01 0.165D-01 0.271D+00
 Coeff-Com:  0.825D+00
 Coeff:      0.589D-04-0.254D-04-0.638D-01-0.488D-01 0.165D-01 0.271D+00
 Coeff:      0.825D+00
 Gap=     0.056 Goal=   None    Shift=    0.000
 Gap=     0.049 Goal=   None    Shift=    0.000
 RMSDP=1.07D-04 MaxDP=9.63D-03 DE=-1.24D-05 OVMax= 2.33D-03

 Cycle   8  Pass 1  IDiag  1:
 E= -1136.12559998953     Delta-E=       -0.000002552897 Rises=F Damp=F
 DIIS: error= 1.33D-05 at cycle   8 NSaved=   8.
 NSaved= 8 IEnMin= 8 EnMin= -1136.12559998953     IErMin= 8 ErrMin= 1.33D-05
 ErrMax= 1.33D-05  0.00D+00 EMaxC= 1.00D-01 BMatC= 1.09D-07 BMatP= 8.92D-07
 IDIUse=1 WtCom= 1.00D+00 WtEn= 0.00D+00
 Coeff-Com:  0.369D-03-0.403D-03-0.516D-02-0.208D-03-0.627D-01-0.515D-01
 Coeff-Com:  0.169D+00 0.950D+00
 Coeff:      0.369D-03-0.403D-03-0.516D-02-0.208D-03-0.627D-01-0.515D-01
 Coeff:      0.169D+00 0.950D+00
 Gap=     0.056 Goal=   None    Shift=    0.000
 Gap=     0.049 Goal=   None    Shift=    0.000
 RMSDP=5.66D-05 MaxDP=4.06D-03 DE=-2.55D-06 OVMax= 1.15D-03

 Cycle   9  Pass 1  IDiag  1:
 E= -1136.12560044476     Delta-E=       -0.000000455232 Rises=F Damp=F
 DIIS: error= 8.92D-06 at cycle   9 NSaved=   9.
 NSaved= 9 IEnMin= 9 EnMin= -1136.12560044476     IErMin= 9 ErrMin= 8.92D-06
 ErrMax= 8.92D-06  0.00D+00 EMaxC= 1.00D-01 BMatC= 3.27D-08 BMatP= 1.09D-07
 IDIUse=1 WtCom= 1.00D+00 WtEn= 0.00D+00
 Coeff-Com:  0.210D-03-0.251D-03 0.680D-02 0.641D-02-0.249D-01-0.559D-01
 Coeff-Com: -0.601D-01 0.372D+00 0.756D+00
 Coeff:      0.210D-03-0.251D-03 0.680D-02 0.641D-02-0.249D-01-0.559D-01
 Coeff:     -0.601D-01 0.372D+00 0.756D+00
 Gap=     0.056 Goal=   None    Shift=    0.000
 Gap=     0.049 Goal=   None    Shift=    0.000
 RMSDP=2.37D-05 MaxDP=1.98D-03 DE=-4.55D-07 OVMax= 5.96D-04

 Cycle  10  Pass 1  IDiag  1:
 E= -1136.12560055201     Delta-E=       -0.000000107252 Rises=F Damp=F
 DIIS: error= 6.26D-06 at cycle  10 NSaved=  10.
 NSaved=10 IEnMin=10 EnMin= -1136.12560055201     IErMin=10 ErrMin= 6.26D-06
 ErrMax= 6.26D-06  0.00D+00 EMaxC= 1.00D-01 BMatC= 1.05D-08 BMatP= 3.27D-08
 IDIUse=1 WtCom= 1.00D+00 WtEn= 0.00D+00
 Coeff-Com: -0.105D-03 0.129D-03 0.429D-02 0.264D-02 0.673D-02-0.540D-02
 Coeff-Com: -0.703D-01-0.136D+00 0.316D+00 0.882D+00
 Coeff:     -0.105D-03 0.129D-03 0.429D-02 0.264D-02 0.673D-02-0.540D-02
 Coeff:     -0.703D-01-0.136D+00 0.316D+00 0.882D+00
 Gap=     0.056 Goal=   None    Shift=    0.000
 Gap=     0.049 Goal=   None    Shift=    0.000
 RMSDP=1.59D-05 MaxDP=1.09D-03 DE=-1.07D-07 OVMax= 4.71D-04

 Cycle  11  Pass 1  IDiag  1:
 E= -1136.12560060110     Delta-E=       -0.000000049082 Rises=F Damp=F
 DIIS: error= 3.05D-06 at cycle  11 NSaved=  11.
 NSaved=11 IEnMin=11 EnMin= -1136.12560060110     IErMin=11 ErrMin= 3.05D-06
 ErrMax= 3.05D-06  0.00D+00 EMaxC= 1.00D-01 BMatC= 2.24D-09 BMatP= 1.05D-08
 IDIUse=1 WtCom= 1.00D+00 WtEn= 0.00D+00
 Coeff-Com: -0.139D-03 0.173D-03-0.101D-02-0.131D-02 0.824D-02 0.158D-01
 Coeff-Com:  0.308D-02-0.144D+00-0.187D+00 0.202D+00 0.110D+01
 Coeff:     -0.139D-03 0.173D-03-0.101D-02-0.131D-02 0.824D-02 0.158D-01
 Coeff:      0.308D-02-0.144D+00-0.187D+00 0.202D+00 0.110D+01
 Gap=     0.056 Goal=   None    Shift=    0.000
 Gap=     0.049 Goal=   None    Shift=    0.000
 RMSDP=1.10D-05 MaxDP=7.95D-04 DE=-4.91D-08 OVMax= 3.54D-04

 Cycle  12  Pass 1  IDiag  1:
 E= -1136.12560061888     Delta-E=       -0.000000017787 Rises=F Damp=F
 DIIS: error= 1.28D-06 at cycle  12 NSaved=  12.
 NSaved=12 IEnMin=12 EnMin= -1136.12560061888     IErMin=12 ErrMin= 1.28D-06
 ErrMax= 1.28D-06  0.00D+00 EMaxC= 1.00D-01 BMatC= 4.30D-10 BMatP= 2.24D-09
 IDIUse=1 WtCom= 1.00D+00 WtEn= 0.00D+00
 Coeff-Com:  0.701D-04-0.923D-04-0.675D-03-0.302D-03-0.290D-02-0.131D-02
 Coeff-Com:  0.143D-01 0.490D-01-0.583D-01-0.209D+00-0.300D-01 0.124D+01
 Coeff:      0.701D-04-0.923D-04-0.675D-03-0.302D-03-0.290D-02-0.131D-02
 Coeff:      0.143D-01 0.490D-01-0.583D-01-0.209D+00-0.300D-01 0.124D+01
 Gap=     0.056 Goal=   None    Shift=    0.000
 Gap=     0.049 Goal=   None    Shift=    0.000
 RMSDP=3.93D-06 MaxDP=2.31D-04 DE=-1.78D-08 OVMax= 1.59D-04

 Cycle  13  Pass 1  IDiag  1:
 E= -1136.12560062267     Delta-E=       -0.000000003788 Rises=F Damp=F
 DIIS: error= 5.79D-07 at cycle  13 NSaved=  13.
 NSaved=13 IEnMin=13 EnMin= -1136.12560062267     IErMin=13 ErrMin= 5.79D-07
 ErrMax= 5.79D-07  0.00D+00 EMaxC= 1.00D-01 BMatC= 1.05D-10 BMatP= 4.30D-10
 IDIUse=1 WtCom= 1.00D+00 WtEn= 0.00D+00
 Coeff-Com:  0.485D-04-0.615D-04-0.129D-04 0.209D-03-0.299D-02-0.374D-02
 Coeff-Com:  0.541D-02 0.421D-01 0.334D-01-0.947D-01-0.309D+00 0.310D+00
 Coeff-Com:  0.102D+01
 Coeff:      0.485D-04-0.615D-04-0.129D-04 0.209D-03-0.299D-02-0.374D-02
 Coeff:      0.541D-02 0.421D-01 0.334D-01-0.947D-01-0.309D+00 0.310D+00
 Coeff:      0.102D+01
 Gap=     0.056 Goal=   None    Shift=    0.000
 Gap=     0.049 Goal=   None    Shift=    0.000
 RMSDP=1.82D-06 MaxDP=9.38D-05 DE=-3.79D-09 OVMax= 8.46D-05

 Cycle  14  Pass 1  IDiag  1:
 E= -1136.12560062346     Delta-E=       -0.000000000785 Rises=F Damp=F
 DIIS: error= 1.88D-07 at cycle  14 NSaved=  14.
 NSaved=14 IEnMin=14 EnMin= -1136.12560062346     IErMin=14 ErrMin= 1.88D-07
 ErrMax= 1.88D-07  0.00D+00 EMaxC= 1.00D-01 BMatC= 1.35D-11 BMatP= 1.05D-10
 IDIUse=1 WtCom= 1.00D+00 WtEn= 0.00D+00
 Coeff-Com: -0.194D-04 0.256D-04 0.867D-04-0.664D-05 0.606D-03 0.834D-03
 Coeff-Com: -0.232D-02-0.101D-01 0.309D-03 0.378D-01 0.507D-01-0.233D+00
 Coeff-Com: -0.120D+00 0.127D+01
 Coeff:     -0.194D-04 0.256D-04 0.867D-04-0.664D-05 0.606D-03 0.834D-03
 Coeff:     -0.232D-02-0.101D-01 0.309D-03 0.378D-01 0.507D-01-0.233D+00
 Coeff:     -0.120D+00 0.127D+01
 Gap=     0.056 Goal=   None    Shift=    0.000
 Gap=     0.049 Goal=   None    Shift=    0.000
 RMSDP=6.68D-07 MaxDP=3.39D-05 DE=-7.85D-10 OVMax= 3.00D-05

 Cycle  15  Pass 1  IDiag  1:
 E= -1136.12560062358     Delta-E=       -0.000000000127 Rises=F Damp=F
 DIIS: error= 8.82D-08 at cycle  15 NSaved=  15.
 NSaved=15 IEnMin=15 EnMin= -1136.12560062358     IErMin=15 ErrMin= 8.82D-08
 ErrMax= 8.82D-08  0.00D+00 EMaxC= 1.00D-01 BMatC= 2.62D-12 BMatP= 1.35D-11
 IDIUse=1 WtCom= 1.00D+00 WtEn= 0.00D+00
 Coeff-Com: -0.964D-05 0.125D-04 0.343D-04-0.151D-04 0.418D-03 0.608D-03
 Coeff-Com: -0.112D-02-0.710D-02-0.300D-02 0.183D-01 0.461D-01-0.806D-01
 Coeff-Com: -0.158D+00 0.251D+00 0.933D+00
 Coeff:     -0.964D-05 0.125D-04 0.343D-04-0.151D-04 0.418D-03 0.608D-03
 Coeff:     -0.112D-02-0.710D-02-0.300D-02 0.183D-01 0.461D-01-0.806D-01
 Coeff:     -0.158D+00 0.251D+00 0.933D+00
 Gap=     0.056 Goal=   None    Shift=    0.000
 Gap=     0.049 Goal=   None    Shift=    0.000
 RMSDP=2.17D-07 MaxDP=1.28D-05 DE=-1.27D-10 OVMax= 8.94D-06

 Cycle  16  Pass 1  IDiag  1:
 E= -1136.12560062360     Delta-E=       -0.000000000015 Rises=F Damp=F
 DIIS: error= 4.93D-08 at cycle  16 NSaved=  16.
 NSaved=16 IEnMin=16 EnMin= -1136.12560062360     IErMin=16 ErrMin= 4.93D-08
 ErrMax= 4.93D-08  0.00D+00 EMaxC= 1.00D-01 BMatC= 6.92D-13 BMatP= 2.62D-12
 IDIUse=1 WtCom= 1.00D+00 WtEn= 0.00D+00
 Coeff-Com:  0.446D-05-0.595D-05-0.195D-04-0.113D-05-0.518D-04-0.163D-03
 Coeff-Com:  0.368D-03 0.162D-02-0.419D-03-0.682D-02-0.663D-02 0.502D-01
 Coeff-Com:  0.464D-02-0.320D+00 0.198D+00 0.108D+01
 Coeff:      0.446D-05-0.595D-05-0.195D-04-0.113D-05-0.518D-04-0.163D-03
 Coeff:      0.368D-03 0.162D-02-0.419D-03-0.682D-02-0.663D-02 0.502D-01
 Coeff:      0.464D-02-0.320D+00 0.198D+00 0.108D+01
 Gap=     0.056 Goal=   None    Shift=    0.000
 Gap=     0.049 Goal=   None    Shift=    0.000
 RMSDP=1.44D-07 MaxDP=8.45D-06 DE=-1.50D-11 OVMax= 5.01D-06

 Cycle  17  Pass 1  IDiag  1:
 E= -1136.12560062360     Delta-E=        0.000000000000 Rises=F Damp=F
 DIIS: error= 1.30D-08 at cycle  17 NSaved=  17.
 NSaved=17 IEnMin=16 EnMin= -1136.12560062360     IErMin=17 ErrMin= 1.30D-08
 ErrMax= 1.30D-08  0.00D+00 EMaxC= 1.00D-01 BMatC= 9.52D-14 BMatP= 6.92D-13
 IDIUse=1 WtCom= 1.00D+00 WtEn= 0.00D+00
 Coeff-Com:  0.181D-05-0.236D-05-0.709D-05 0.240D-05-0.506D-04-0.127D-03
 Coeff-Com:  0.127D-03 0.132D-02 0.932D-03-0.394D-02-0.921D-02 0.178D-01
 Coeff-Com:  0.277D-01-0.486D-01-0.166D+00-0.136D-03 0.118D+01
 Coeff:      0.181D-05-0.236D-05-0.709D-05 0.240D-05-0.506D-04-0.127D-03
 Coeff:      0.127D-03 0.132D-02 0.932D-03-0.394D-02-0.921D-02 0.178D-01
 Coeff:      0.277D-01-0.486D-01-0.166D+00-0.136D-03 0.118D+01
 Gap=     0.056 Goal=   None    Shift=    0.000
 Gap=     0.049 Goal=   None    Shift=    0.000
 RMSDP=6.40D-08 MaxDP=3.84D-06 DE= 4.55D-13 OVMax= 1.88D-06

 Cycle  18  Pass 1  IDiag  1:
 E= -1136.12560062360     Delta-E=       -0.000000000005 Rises=F Damp=F
 DIIS: error= 5.26D-09 at cycle  18 NSaved=  18.
 NSaved=18 IEnMin=18 EnMin= -1136.12560062360     IErMin=18 ErrMin= 5.26D-09
 ErrMax= 5.26D-09  0.00D+00 EMaxC= 1.00D-01 BMatC= 1.61D-14 BMatP= 9.52D-14
 IDIUse=1 WtCom= 1.00D+00 WtEn= 0.00D+00
 Coeff-Com: -0.137D-07 0.338D-07 0.209D-06 0.903D-06-0.447D-05-0.141D-04
 Coeff-Com: -0.309D-04 0.199D-03 0.264D-03-0.379D-03-0.160D-02 0.312D-03
 Coeff-Com:  0.341D-02 0.250D-01-0.592D-01-0.111D+00 0.215D+00 0.928D+00
 Coeff:     -0.137D-07 0.338D-07 0.209D-06 0.903D-06-0.447D-05-0.141D-04
 Coeff:     -0.309D-04 0.199D-03 0.264D-03-0.379D-03-0.160D-02 0.312D-03
 Coeff:      0.341D-02 0.250D-01-0.592D-01-0.111D+00 0.215D+00 0.928D+00
 Gap=     0.056 Goal=   None    Shift=    0.000
 Gap=     0.049 Goal=   None    Shift=    0.000
 RMSDP=2.07D-08 MaxDP=1.37D-06 DE=-5.00D-12 OVMax= 5.09D-07

 Cycle  19  Pass 1  IDiag  1:
 E= -1136.12560062360     Delta-E=        0.000000000004 Rises=F Damp=F
 DIIS: error= 2.22D-09 at cycle  19 NSaved=  19.
 NSaved=19 IEnMin=18 EnMin= -1136.12560062360     IErMin=19 ErrMin= 2.22D-09
 ErrMax= 2.22D-09  0.00D+00 EMaxC= 1.00D-01 BMatC= 3.35D-15 BMatP= 1.61D-14
 IDIUse=1 WtCom= 1.00D+00 WtEn= 0.00D+00
 Large coefficients: NSaved= 19 BigCof=    0.00 CofMax=   10.00 Det=-8.48D-15
 Inversion failed.  Reducing to 18 matrices.
 Large coefficients: NSaved= 18 BigCof=    0.00 CofMax=   10.00 Det=-8.54D-15
 Inversion failed.  Reducing to 17 matrices.
 Large coefficients: NSaved= 17 BigCof=    0.00 CofMax=   10.00 Det=-8.54D-15
 Inversion failed.  Reducing to 16 matrices.
 Large coefficients: NSaved= 16 BigCof=    0.00 CofMax=   10.00 Det=-8.56D-15
 Inversion failed.  Reducing to 15 matrices.
 Coeff-Com: -0.123D-05 0.648D-05-0.677D-05-0.226D-04 0.322D-04 0.105D-03
 Coeff-Com:  0.120D-03-0.818D-04-0.295D-02 0.184D-02 0.243D-01 0.104D-01
 Coeff-Com: -0.220D+00 0.621D-01 0.112D+01
 Coeff:     -0.123D-05 0.648D-05-0.677D-05-0.226D-04 0.322D-04 0.105D-03
 Coeff:      0.120D-03-0.818D-04-0.295D-02 0.184D-02 0.243D-01 0.104D-01
 Coeff:     -0.220D+00 0.621D-01 0.112D+01
 Gap=     0.056 Goal=   None    Shift=    0.000
 Gap=     0.049 Goal=   None    Shift=    0.000
 RMSDP=1.25D-08 MaxDP=8.24D-07 DE= 3.64D-12 OVMax= 3.13D-07

 Cycle  20  Pass 1  IDiag  1:
 E= -1136.12560062360     Delta-E=       -0.000000000005 Rises=F Damp=F
 DIIS: error= 1.12D-09 at cycle  20 NSaved=  16.
 NSaved=16 IEnMin=16 EnMin= -1136.12560062360     IErMin=16 ErrMin= 1.12D-09
 ErrMax= 1.12D-09  0.00D+00 EMaxC= 1.00D-01 BMatC= 4.57D-16 BMatP= 3.35D-15
 IDIUse=1 WtCom= 1.00D+00 WtEn= 0.00D+00
 Large coefficients: NSaved= 16 BigCof=    0.00 CofMax=   10.00 Det=-9.06D-16
 Inversion failed.  Reducing to 15 matrices.
 Coeff-Com:  0.223D-05 0.149D-05-0.175D-04-0.272D-04 0.288D-04 0.283D-03
 Coeff-Com: -0.137D-03-0.990D-03-0.224D-02 0.113D-01 0.175D-01-0.631D-01
 Coeff-Com: -0.152D+00 0.762D-01 0.111D+01
 Coeff:      0.223D-05 0.149D-05-0.175D-04-0.272D-04 0.288D-04 0.283D-03
 Coeff:     -0.137D-03-0.990D-03-0.224D-02 0.113D-01 0.175D-01-0.631D-01
 Coeff:     -0.152D+00 0.762D-01 0.111D+01
 Gap=     0.056 Goal=   None    Shift=    0.000
 Gap=     0.049 Goal=   None    Shift=    0.000
 RMSDP=5.04D-09 MaxDP=3.05D-07 DE=-4.55D-12 OVMax= 1.19D-07

 SCF Done:  E(UB3LYP) =  -1136.12560062     A.U. after   20 cycles
            NFock= 20  Conv=0.50D-08     -V/T= 2.0028
 <Sx>= 0.0000 <Sy>= 0.0000 <Sz>= 0.5000 <S**2>= 0.7766 S= 0.5132
 <L.S>= 0.000000000000E+00
 KE= 1.132935332029D+03 PE=-3.310766727530D+03 EE= 7.509840332325D+02
 Annihilation of the first spin contaminant:
 S**2 before annihilation     0.7766,   after     0.7503
 Leave Link  502 at Tue Nov 28 20:14:25 2023, MaxMem=  1879048192 cpu:             176.9 elap:              16.0
 (Enter /home/sekinelabo/g16/l601.exe)
 Copying SCF densities to generalized density rwf, IOpCl= 1 IROHF=0.

 **********************************************************************

            Population analysis using the SCF Density.

 **********************************************************************

 Orbital symmetries:
 Alpha Orbitals:
       Occupied  (A) (A) (A) (A) (A) (A) (A) (A) (A) (A) (A) (A)
                 (A) (A) (A) (A) (A) (A) (A) (A) (A) (A) (A) (A)
                 (A) (A) (A) (A) (A) (A) (A) (A) (A) (A) (A) (A)
                 (A) (A) (A)
       Virtual   (A) (A) (A) (A) (A) (A) (A) (A) (A) (A) (A) (A)
                 (A) (A) (A) (A) (A) (A) (A) (A) (A) (A) (A) (A)
                 (A) (A) (A) (A) (A) (A) (A) (A) (A) (A) (A) (A)
                 (A) (A) (A) (A) (A) (A) (A) (A) (A) (A) (A) (A)
                 (A) (A) (A) (A) (A) (A) (A) (A) (A) (A) (A) (A)
                 (A) (A) (A) (A) (A) (A) (A) (A) (A) (A) (A) (A)
                 (A) (A) (A) (A) (A) (A) (A) (A) (A) (A) (A) (A)
                 (A) (A) (A) (A) (A) (A) (A) (A) (A) (A) (A) (A)
                 (A) (A) (A) (A) (A) (A) (A) (A) (A) (A) (A) (A)
                 (A) (A) (A) (A) (A) (A) (A) (A) (A) (A) (A) (A)
                 (A) (A) (A) (A) (A) (A) (A) (A) (A) (A) (A) (A)
                 (A) (A) (A) (A) (A) (A) (A) (A) (A) (A) (A) (A)
                 (A) (A) (A) (A) (A) (A) (A) (A) (A) (A) (A) (A)
                 (A) (A) (A) (A) (A) (A) (A) (A) (A) (A) (A) (A)
                 (A) (A) (A)
 Beta  Orbitals:
       Occupied  (A) (A) (A) (A) (A) (A) (A) (A) (A) (A) (A) (A)
                 (A) (A) (A) (A) (A) (A) (A) (A) (A) (A) (A) (A)
                 (A) (A) (A) (A) (A) (A) (A) (A) (A) (A) (A) (A)
                 (A) (A)
       Virtual   (A) (A) (A) (A) (A) (A) (A) (A) (A) (A) (A) (A)
                 (A) (A) (A) (A) (A) (A) (A) (A) (A) (A) (A) (A)
                 (A) (A) (A) (A) (A) (A) (A) (A) (A) (A) (A) (A)
                 (A) (A) (A) (A) (A) (A) (A) (A) (A) (A) (A) (A)
                 (A) (A) (A) (A) (A) (A) (A) (A) (A) (A) (A) (A)
                 (A) (A) (A) (A) (A) (A) (A) (A) (A) (A) (A) (A)
                 (A) (A) (A) (A) (A) (A) (A) (A) (A) (A) (A) (A)
                 (A) (A) (A) (A) (A) (A) (A) (A) (A) (A) (A) (A)
                 (A) (A) (A) (A) (A) (A) (A) (A) (A) (A) (A) (A)
                 (A) (A) (A) (A) (A) (A) (A) (A) (A) (A) (A) (A)
                 (A) (A) (A) (A) (A) (A) (A) (A) (A) (A) (A) (A)
                 (A) (A) (A) (A) (A) (A) (A) (A) (A) (A) (A) (A)
                 (A) (A) (A) (A) (A) (A) (A) (A) (A) (A) (A) (A)
                 (A) (A) (A) (A) (A) (A) (A) (A) (A) (A) (A) (A)
                 (A) (A) (A) (A)
 The electronic state is 2-A.
 Alpha  occ. eigenvalues --  -38.44358 -38.44331 -38.44326 -38.43831 -38.43768
 Alpha  occ. eigenvalues --  -38.43532 -38.43410  -2.20222  -2.20162  -2.20160
 Alpha  occ. eigenvalues --   -2.19719  -2.19587  -2.19404  -2.19247  -1.13915
 Alpha  occ. eigenvalues --   -1.13894  -1.13858  -1.13852  -1.13840  -1.13826
 Alpha  occ. eigenvalues --   -1.13785  -1.13782  -1.13749  -1.13401  -1.13389
 Alpha  occ. eigenvalues --   -1.13371  -1.13252  -1.13245  -1.13219  -1.13061
 Alpha  occ. eigenvalues --   -1.13041  -1.13035  -1.12931  -1.12922  -1.12898
 Alpha  occ. eigenvalues --   -0.17177  -0.14074  -0.12664  -0.11247
 Alpha virt. eigenvalues --   -0.05644  -0.05389  -0.04594  -0.04021  -0.02517
 Alpha virt. eigenvalues --   -0.02297  -0.01961  -0.01761  -0.01020  -0.00663
 Alpha virt. eigenvalues --   -0.00143   0.00095   0.00347   0.00417   0.00683
 Alpha virt. eigenvalues --    0.00845   0.00950   0.01032   0.01240   0.01357
 Alpha virt. eigenvalues --    0.01443   0.01492   0.01649   0.01845   0.01955
 Alpha virt. eigenvalues --    0.02026   0.02115   0.02150   0.02469   0.02565
 Alpha virt. eigenvalues --    0.02639   0.02753   0.02838   0.02922   0.03107
 Alpha virt. eigenvalues --    0.03292   0.03336   0.03386   0.03537   0.03618
 Alpha virt. eigenvalues --    0.03782   0.03962   0.04063   0.04314   0.04598
 Alpha virt. eigenvalues --    0.04727   0.04934   0.05111   0.05293   0.05675
 Alpha virt. eigenvalues --    0.05983   0.06569   0.06715   0.06966   0.07400
 Alpha virt. eigenvalues --    0.07690   0.07914   0.07999   0.08170   0.08397
 Alpha virt. eigenvalues --    0.08883   0.09151   0.09782   0.09947   0.10394
 Alpha virt. eigenvalues --    0.10511   0.11149   0.11238   0.11831   0.12095
 Alpha virt. eigenvalues --    0.12552   0.13089   0.13834   0.13987   0.14559
 Alpha virt. eigenvalues --    0.14750   0.15223   0.16440   0.16562   0.18094
 Alpha virt. eigenvalues --    0.26478   0.27017   0.28040   0.28559   0.29265
 Alpha virt. eigenvalues --    0.30532   0.31137   0.31390   0.32399   0.32728
 Alpha virt. eigenvalues --    0.33428   0.34234   0.34419   0.35982   0.36850
 Alpha virt. eigenvalues --    0.38143   0.38686   0.39139   0.39526   0.40910
 Alpha virt. eigenvalues --    0.41519   0.42575   0.42674   0.43091   0.43348
 Alpha virt. eigenvalues --    0.43567   0.43945   0.44273   0.44556   0.44752
 Alpha virt. eigenvalues --    0.44971   0.45558   0.45826   0.45878   0.46554
 Alpha virt. eigenvalues --    0.46905   0.47005   0.47178   0.48438   0.48786
 Alpha virt. eigenvalues --    0.49256   0.49544   0.50301   0.51765   0.52130
 Alpha virt. eigenvalues --    0.52476   0.53378   0.53811   0.55873   0.57451
 Alpha virt. eigenvalues --    0.58864   0.61496   0.64198   0.67736   0.69311
 Alpha virt. eigenvalues --    0.72956   2.02101   2.08903   2.12581   2.13892
 Alpha virt. eigenvalues --    2.18244   2.19098   2.20730   4.42254   4.42471
 Alpha virt. eigenvalues --    4.44136   4.44254   4.44547   4.44769   4.45222
 Alpha virt. eigenvalues --    4.45468   4.45730   4.46191   4.46505   4.47116
 Alpha virt. eigenvalues --    4.47651   4.48138   4.49070   4.50934   4.51174
 Alpha virt. eigenvalues --    4.56851   4.59265   4.64039   4.65226  96.21192
 Alpha virt. eigenvalues --   96.29732  96.34186  96.36130  96.40713  96.42021
 Alpha virt. eigenvalues --   96.44148
  Beta  occ. eigenvalues --  -38.44324 -38.44295 -38.44236 -38.43791 -38.43763
  Beta  occ. eigenvalues --  -38.43518 -38.43407  -2.20160  -2.20106  -2.19986
  Beta  occ. eigenvalues --   -2.19648  -2.19577  -2.19379  -2.19252  -1.13872
  Beta  occ. eigenvalues --   -1.13854  -1.13820  -1.13813  -1.13788  -1.13712
  Beta  occ. eigenvalues --   -1.13705  -1.13664  -1.13662  -1.13351  -1.13346
  Beta  occ. eigenvalues --   -1.13312  -1.13241  -1.13238  -1.13215  -1.13030
  Beta  occ. eigenvalues --   -1.13025  -1.13018  -1.12935  -1.12933  -1.12837
  Beta  occ. eigenvalues --   -0.16583  -0.13160  -0.12599
  Beta virt. eigenvalues --   -0.07739  -0.05483  -0.04977  -0.04156  -0.03774
  Beta virt. eigenvalues --   -0.02182  -0.02077  -0.01777  -0.01345  -0.00875
  Beta virt. eigenvalues --   -0.00312   0.00112   0.00239   0.00457   0.00534
  Beta virt. eigenvalues --    0.00758   0.00914   0.01018   0.01072   0.01301
  Beta virt. eigenvalues --    0.01396   0.01479   0.01584   0.01702   0.01926
  Beta virt. eigenvalues --    0.02061   0.02092   0.02263   0.02302   0.02525
  Beta virt. eigenvalues --    0.02625   0.02763   0.02826   0.02893   0.02977
  Beta virt. eigenvalues --    0.03150   0.03341   0.03358   0.03427   0.03576
  Beta virt. eigenvalues --    0.03654   0.03855   0.04034   0.04106   0.04387
  Beta virt. eigenvalues --    0.04679   0.04823   0.04999   0.05180   0.05368
  Beta virt. eigenvalues --    0.05737   0.06068   0.06739   0.06865   0.07082
  Beta virt. eigenvalues --    0.07562   0.07758   0.07997   0.08144   0.08359
  Beta virt. eigenvalues --    0.08686   0.09044   0.09250   0.09882   0.10136
  Beta virt. eigenvalues --    0.10437   0.10667   0.11327   0.11407   0.12067
  Beta virt. eigenvalues --    0.12244   0.12704   0.13224   0.13952   0.14151
  Beta virt. eigenvalues --    0.14668   0.14937   0.15335   0.16626   0.16694
  Beta virt. eigenvalues --    0.18354   0.26707   0.27367   0.28378   0.28831
  Beta virt. eigenvalues --    0.29586   0.30829   0.31365   0.31779   0.32616
  Beta virt. eigenvalues --    0.33005   0.33661   0.34603   0.34809   0.36763
  Beta virt. eigenvalues --    0.37225   0.38389   0.38875   0.39340   0.39596
  Beta virt. eigenvalues --    0.41192   0.41692   0.42599   0.42800   0.43196
  Beta virt. eigenvalues --    0.43501   0.43843   0.44105   0.44461   0.44602
  Beta virt. eigenvalues --    0.44841   0.45075   0.45666   0.45979   0.46005
  Beta virt. eigenvalues --    0.46510   0.47046   0.47147   0.47290   0.48501
  Beta virt. eigenvalues --    0.48791   0.49420   0.49691   0.50474   0.51870
  Beta virt. eigenvalues --    0.52299   0.52670   0.53574   0.53935   0.55957
  Beta virt. eigenvalues --    0.57603   0.59146   0.61639   0.64311   0.67945
  Beta virt. eigenvalues --    0.69515   0.73112   2.02213   2.09155   2.12666
  Beta virt. eigenvalues --    2.14031   2.18324   2.19196   2.20854   4.42335
  Beta virt. eigenvalues --    4.42530   4.44210   4.44344   4.44600   4.44861
  Beta virt. eigenvalues --    4.45261   4.45501   4.45767   4.46239   4.46559
  Beta virt. eigenvalues --    4.47121   4.47668   4.48170   4.49082   4.50974
  Beta virt. eigenvalues --    4.51217   4.56887   4.59324   4.64128   4.65265
  Beta virt. eigenvalues --   96.21231  96.29815  96.34215  96.36179  96.40743
  Beta virt. eigenvalues --   96.42054  96.44185
          Condensed to atoms (all electrons):
               1          2          3          4          5          6
     1  Na  12.694699  -1.554494   0.391995   0.700997  -0.143561  -0.156536
     2  Na  -1.554494  12.279704  -0.509586  -0.100977  -0.222933  -0.012350
     3  Na   0.391995  -0.509586  11.264795  -0.551298   0.493408   0.265645
     4  Na   0.700997  -0.100977  -0.551298  11.610315  -0.689028  -0.457772
     5  Na  -0.143561  -0.222933   0.493408  -0.689028  12.059586   0.186369
     6  Na  -0.156536  -0.012350   0.265645  -0.457772   0.186369  11.071883
     7  Na   0.032129  -0.346080   0.115064  -0.126107   0.137145   0.107215
               7
     1  Na   0.032129
     2  Na  -0.346080
     3  Na   0.115064
     4  Na  -0.126107
     5  Na   0.137145
     6  Na   0.107215
     7  Na  10.900530
          Atomic-Atomic Spin Densities.
               1          2          3          4          5          6
     1  Na  -0.088529   0.187139  -0.194466   0.284447   0.075145  -0.172766
     2  Na   0.187139  -0.125755   0.089018  -0.190327   0.025856   0.110150
     3  Na  -0.194466   0.089018   0.525994  -0.235386  -0.016801   0.123217
     4  Na   0.284447  -0.190327  -0.235386   0.339500   0.065046  -0.176982
     5  Na   0.075145   0.025856  -0.016801   0.065046   0.083081  -0.181351
     6  Na  -0.172766   0.110150   0.123217  -0.176982  -0.181351   0.211978
     7  Na  -0.052252   0.079472  -0.002154   0.014113  -0.047407   0.132633
               7
     1  Na  -0.052252
     2  Na   0.079472
     3  Na  -0.002154
     4  Na   0.014113
     5  Na  -0.047407
     6  Na   0.132633
     7  Na   0.221038
 Mulliken charges and spin densities:
               1          2
     1  Na  -0.965229   0.038718
     2  Na   1.466716   0.175554
     3  Na  -0.470023   0.289423
     4  Na   0.613871   0.100413
     5  Na  -0.820985   0.003568
     6  Na  -0.004454   0.046880
     7  Na   0.180105   0.345444
 Sum of Mulliken charges =  -0.00000   1.00000
 Mulliken charges and spin densities with hydrogens summed into heavy atoms:
               1          2
     1  Na  -0.965229   0.038718
     2  Na   1.466716   0.175554
     3  Na  -0.470023   0.289423
     4  Na   0.613871   0.100413
     5  Na  -0.820985   0.003568
     6  Na  -0.004454   0.046880
     7  Na   0.180105   0.345444
 Electronic spatial extent (au):  <R**2>=           3880.1898
 Charge=             -0.0000 electrons
 Dipole moment (field-independent basis, Debye):
    X=             -0.8679    Y=              0.4301    Z=              0.1298  Tot=              0.9773
 Quadrupole moment (field-independent basis, Debye-Ang):
   XX=            -64.5151   YY=            -62.4165   ZZ=            -69.7119
   XY=              0.7675   XZ=              1.3555   YZ=              0.4744
 Traceless Quadrupole moment (field-independent basis, Debye-Ang):
   XX=              1.0327   YY=              3.1313   ZZ=             -4.1641
   XY=              0.7675   XZ=              1.3555   YZ=              0.4744
 Octapole moment (field-independent basis, Debye-Ang**2):
  XXX=             -0.3528  YYY=              4.6962  ZZZ=              0.6919  XYY=            -32.4147
  XXY=             21.5472  XXZ=             23.7682  XZZ=             -1.6514  YZZ=             -0.7356
  YYZ=             -9.0412  XYZ=             11.6667
 Hexadecapole moment (field-independent basis, Debye-Ang**3):
 XXXX=          -4031.6044 YYYY=          -1663.9588 ZZZZ=           -471.9863 XXXY=             75.9432
 XXXZ=            132.9547 YYYX=            -21.6744 YYYZ=            -30.4055 ZZZX=              0.9749
 ZZZY=              7.7036 XXYY=           -898.7493 XXZZ=           -767.0740 YYZZ=           -392.6816
 XXYZ=             16.5944 YYXZ=             12.1847 ZZXY=              0.5012
 N-N= 2.907217616454D+02 E-N=-3.310766727405D+03  KE= 1.132935332029D+03
                          Isotropic Fermi Contact Couplings
        Atom                 a.u.       MegaHertz       Gauss      10(-4) cm-1
     1  Na(23)             0.13950     165.03653      58.88914      55.05026
     2  Na(23)             0.05107      60.42167      21.55995      20.15450
     3  Na(23)             0.12712     150.38080      53.65961      50.16164
     4  Na(23)             0.01668      19.73429       7.04169       6.58265
     5  Na(23)             0.10934     129.35263      46.15624      43.14739
     6  Na(23)            -0.09694    -114.68089     -40.92099     -38.25343
     7  Na(23)             0.41472     490.63138     175.06948     163.65701
 --------------------------------------------------------
       Center         ----  Spin Dipole Couplings  ----
                      3XX-RR        3YY-RR        3ZZ-RR
 --------------------------------------------------------
     1   Atom        0.006118      0.005004     -0.011122
     2   Atom       -0.002045      0.003997     -0.001952
     3   Atom        0.002470      0.005924     -0.008395
     4   Atom        0.000526     -0.000453     -0.000073
     5   Atom       -0.013576      0.017499     -0.003923
     6   Atom        0.067820     -0.039654     -0.028166
     7   Atom       -0.004834      0.003450      0.001384
 --------------------------------------------------------
                        XY            XZ            YZ
 --------------------------------------------------------
     1   Atom        0.019292     -0.005457     -0.004636
     2   Atom       -0.010066     -0.002374      0.007485
     3   Atom        0.006765     -0.001264     -0.003208
     4   Atom        0.004139     -0.003677     -0.002693
     5   Atom       -0.008563     -0.004297      0.011449
     6   Atom        0.015405      0.038502      0.005686
     7   Atom       -0.002044     -0.003956     -0.000229
 --------------------------------------------------------


 ---------------------------------------------------------------------------------
              Anisotropic Spin Dipole Couplings in Principal Axis System
 ---------------------------------------------------------------------------------

       Atom             a.u.   MegaHertz   Gauss  10(-4) cm-1        Axes

              Baa    -0.0139    -1.962    -0.700    -0.655  0.7022 -0.6405  0.3109
     1 Na(23) Bbb    -0.0123    -1.742    -0.621    -0.581 -0.0919  0.3515  0.9317
              Bcc     0.0262     3.704     1.322     1.235  0.7060  0.6828 -0.1879
 
              Baa    -0.0106    -1.497    -0.534    -0.499  0.6581  0.6493 -0.3813
     2 Na(23) Bbb    -0.0042    -0.596    -0.213    -0.199  0.5546 -0.0755  0.8287
              Bcc     0.0148     2.093     0.747     0.698 -0.5093  0.7568  0.4098
 
              Baa    -0.0091    -1.283    -0.458    -0.428 -0.0209  0.2180  0.9757
     3 Na(23) Bbb    -0.0026    -0.373    -0.133    -0.124  0.8022 -0.5788  0.1464
              Bcc     0.0117     1.656     0.591     0.552  0.5966  0.7858 -0.1628
 
              Baa    -0.0042    -0.598    -0.214    -0.200  0.7354 -0.6339  0.2393
     4 Na(23) Bbb    -0.0028    -0.402    -0.144    -0.134  0.2094  0.5485  0.8095
              Bcc     0.0071     1.001     0.357     0.334  0.6444  0.5453 -0.5361
 
              Baa    -0.0160    -2.259    -0.806    -0.753  0.9679  0.1919  0.1625
     5 Na(23) Bbb    -0.0089    -1.250    -0.446    -0.417 -0.0696 -0.4165  0.9065
              Bcc     0.0248     3.509     1.252     1.170 -0.2416  0.8887  0.3897
 
              Baa    -0.0420    -5.936    -2.118    -1.980  0.1016  0.7893 -0.6056
     6 Na(23) Bbb    -0.0415    -5.862    -2.092    -1.955 -0.3397  0.5997  0.7246
              Bcc     0.0835    11.797     4.210     3.935  0.9350  0.1321  0.3290
 
              Baa    -0.0071    -1.005    -0.358    -0.335  0.8897  0.1812  0.4190
     7 Na(23) Bbb     0.0028     0.400     0.143     0.134 -0.2566 -0.5608  0.7872
              Bcc     0.0043     0.604     0.216     0.201 -0.3776  0.8079  0.4524
 

 ---------------------------------------------------------------------------------

 No NMR shielding tensors so no spin-rotation constants.
 Leave Link  601 at Tue Nov 28 20:14:26 2023, MaxMem=  1879048192 cpu:               2.3 elap:               0.2
 (Enter /home/sekinelabo/g16/l701.exe)
 ... and contract with generalized density number  0.
 Compute integral first derivatives.
 Leave Link  701 at Tue Nov 28 20:14:26 2023, MaxMem=  1879048192 cpu:               1.5 elap:               0.1
 (Enter /home/sekinelabo/g16/l702.exe)
 L702 exits ... SP integral derivatives will be done elsewhere.
 Leave Link  702 at Tue Nov 28 20:14:26 2023, MaxMem=  1879048192 cpu:               0.4 elap:               0.0
 (Enter /home/sekinelabo/g16/l703.exe)
 Integral derivatives from FoFJK, PRISM(SPDF).
 Compute integral first derivatives, UseDBF=F ICtDFT=           0.
 Calling FoFJK, ICntrl=      2127 FMM=F ISym2X=0 I1Cent= 0 IOpClX= 1 NMat=1 NMatS=1 NMatT=0.
 FoFJK:  IHMeth= 1 ICntrl=    2127 DoSepK=F KAlg= 0 I1Cent=           0 FoldK=F
 IRaf=         0 NMat=       1 IRICut=       1 DoRegI=T DoRafI=F ISym2E= 0 IDoP0=0 IntGTp=1.
 FoFCou: FMM=F IPFlag=           0 FMFlag=      100000 FMFlg1=         800
         NFxFlg=           0 DoJE=F BraDBF=F KetDBF=F FulRan=T
         wScrn=  0.000000 ICntrl=      2127 IOpCl=  1 I1Cent=           0 NGrid=           0
         NMat0=    1 NMatS0=      1 NMatT0=    0 NMatD0=    1 NMtDS0=    0 NMtDT0=    0
 Symmetry not used in FoFCou.
 Leave Link  703 at Tue Nov 28 20:14:28 2023, MaxMem=  1879048192 cpu:              29.1 elap:               2.0
 (Enter /home/sekinelabo/g16/l716.exe)
 Dipole        =-3.41456126D-01 1.69223262D-01 5.10612891D-02
 ***** Axes restored to original set *****
 -------------------------------------------------------------------
 Center     Atomic                   Forces (Hartrees/Bohr)
 Number     Number              X              Y              Z
 -------------------------------------------------------------------
      1       11          -0.001613222    0.000456705    0.002864763
      2       11           0.000648778   -0.002580752   -0.005343868
      3       11           0.000285986    0.000909519    0.002826990
      4       11          -0.000301904    0.000553852   -0.000000087
      5       11          -0.001054446   -0.000230018    0.000000543
      6       11           0.004055945   -0.000819455   -0.001388390
      7       11          -0.002021137    0.001710150    0.001040049
 -------------------------------------------------------------------
 Cartesian Forces:  Max     0.005343868 RMS     0.002003102
 Z-matrix is all fixed cartesians, so copy forces.
 Force constants in Cartesian coordinates: 
                1             2             3             4             5 
      1  0.659132D-01
      2  0.183703D-02  0.870068D-01
      3 -0.127113D-01 -0.293842D-02  0.827416D-01
      4 -0.190157D-01  0.329032D-02  0.701034D-02  0.209297D-01
      5 -0.398088D-02 -0.208319D-01  0.120164D-01  0.645287D-02  0.441782D-01
      6  0.282945D-02 -0.913037D-02 -0.357965D-01 -0.717499D-02  0.905401D-02
      7 -0.129459D-01  0.468221D-03  0.220124D-02 -0.111477D-01 -0.222873D-02
      8 -0.161382D-02 -0.196077D-01  0.692878D-02 -0.700793D-02 -0.322483D-01
      9  0.928523D-03  0.163427D-02 -0.150284D-01 -0.537334D-02 -0.120677D-01
     10  0.136692D-02 -0.110891D-02 -0.192245D-02  0.135721D-02 -0.810221D-03
     11 -0.633452D-02 -0.132349D-02 -0.152203D-02 -0.290462D-02  0.281517D-02
     12 -0.156223D-02  0.292917D-04  0.579935D-02  0.113384D-02 -0.139737D-02
     13 -0.180881D-01 -0.375612D-02  0.605428D-02  0.433148D-02  0.192801D-02
     14 -0.343604D-02 -0.249140D-01 -0.107579D-01  0.206151D-02  0.440392D-02
     15  0.796410D-02  0.349557D-02 -0.215031D-01 -0.315598D-03 -0.545903D-02
     16 -0.176306D-01 -0.198828D-02 -0.649602D-03  0.361886D-02 -0.118952D-02
     17  0.140326D-01 -0.242147D-01 -0.180368D-02 -0.183382D-02  0.181829D-02
     18  0.791461D-03  0.108163D-01 -0.195700D-01  0.478343D-02 -0.199851D-02
     19  0.400191D-03  0.125775D-02  0.175178D-04 -0.738992D-04 -0.171532D-03
     20 -0.504375D-03  0.388496D-02 -0.192314D-02 -0.583190D-04 -0.135368D-03
     21  0.176003D-02 -0.390661D-02  0.335712D-02 -0.636838D-04 -0.147821D-03
                6             7             8             9            10 
      6  0.561816D-01
      7  0.238730D-02  0.477427D-01
      8  0.108722D-01  0.137982D-01  0.788458D-01
      9 -0.242498D-01  0.748584D-03 -0.653425D-02  0.838873D-01
     10  0.109020D-02 -0.112433D-01 -0.355661D-02  0.186257D-02  0.324232D-01
     11 -0.508356D-02 -0.369984D-02 -0.174336D-01  0.960478D-02  0.133700D-01
     12  0.273967D-02 -0.135015D-01 -0.645674D-02 -0.253970D-01  0.145579D-02
     13 -0.432410D-03 -0.127385D-01 -0.161546D-02  0.110538D-02 -0.263520D-01
     14 -0.500558D-02 -0.561955D-02 -0.143799D-01  0.495857D-02 -0.473465D-02
     15 -0.611815D-03  0.320377D-02 -0.676944D-02 -0.204817D-01 -0.442190D-02
     16  0.132478D-02  0.381944D-03  0.129737D-04  0.790767D-03  0.238079D-02
     17 -0.687532D-03 -0.266457D-02  0.481711D-02  0.246000D-02 -0.311837D-02
     18  0.175783D-02  0.497745D-02  0.200945D-02  0.131249D-02  0.171514D-02
     19 -0.243384D-04 -0.492642D-04 -0.173434D-04 -0.624854D-04  0.672548D-04
     20 -0.192071D-04 -0.537200D-04  0.665471D-05 -0.556515D-04 -0.412120D-04
     21 -0.209740D-04 -0.168455D-04 -0.500432D-04 -0.429088D-04  0.220641D-03
               11            12            13            14            15 
     11  0.331763D-01
     12  0.455226D-02  0.358029D-01
     13  0.307105D-02  0.111699D-01  0.702840D-01
     14 -0.224948D-01  0.364811D-02  0.472531D-02  0.782629D-01
     15 -0.768233D-02 -0.248067D-01 -0.981314D-02  0.146325D-01  0.873309D-01
     16 -0.341565D-02  0.125369D-02 -0.155056D-01  0.387814D-02  0.240630D-02
     17  0.520746D-02 -0.344619D-03 -0.194165D-02 -0.247818D-01  0.556593D-03
     18  0.414320D-03  0.569612D-02 -0.795015D-02 -0.768903D-02 -0.199831D-01
     19 -0.863986D-04  0.504786D-04 -0.193131D-02  0.312528D-02  0.976469D-03
     20  0.529428D-04 -0.309320D-04 -0.241114D-02  0.390364D-02  0.122617D-02
     21 -0.283445D-03  0.165604D-03 -0.133885D-03  0.213404D-03  0.554463D-04
               16            17            18            19            20 
     16  0.471990D-01
     17 -0.102840D-01  0.642866D-01
     18 -0.122925D-01 -0.168926D-02  0.435851D-01
     19 -0.204444D-01  0.580983D-02  0.797520D-02  0.220314D-01
     20  0.129864D-01 -0.271329D-01 -0.186326D-02 -0.991758D-02  0.194201D-01
     21  0.716659D-02  0.150850D-02 -0.127985D-01 -0.893285D-02  0.266601D-02
               21 
     21  0.928417D-02
 Leave Link  716 at Tue Nov 28 20:14:28 2023, MaxMem=  1879048192 cpu:               0.4 elap:               0.0
 (Enter /home/sekinelabo/g16/l103.exe)

 GradGradGradGradGradGradGradGradGradGradGradGradGradGradGradGradGradGrad
 Berny optimization.
 Search for a local minimum.
 Step number   1 out of a maximum of    2
 All quantities printed in internal units (Hartrees-Bohrs-Radians)
 Second derivative matrix not updated -- first step.
 ITU=  0
     Eigenvalues ---    0.00775   0.01226   0.02947   0.03325   0.04149
     Eigenvalues ---    0.05242   0.06430   0.07465   0.08745   0.09817
     Eigenvalues ---    0.10610   0.10925   0.12404   0.12757   0.13661
 Angle between quadratic step and forces=  37.73 degrees.
 Linear search not attempted -- first point.
 B after Tr=    -0.000000    0.000000    0.000000
         Rot=    1.000000    0.000000    0.000000    0.000000 Ang=   0.00 deg.
 Variable       Old X    -DE/DX   Delta X   Delta X   Delta X     New X
                                 (Linear)    (Quad)   (Total)
    X1       29.25901  -0.00161   0.00000  -0.00640  -0.00640  29.25260
    Y1       25.31326   0.00046   0.00000  -0.01785  -0.01785  25.29541
    Z1       28.01821   0.00286   0.00000   0.00343   0.00343  28.02164
    X2       31.24322   0.00065   0.00000   0.02581   0.02581  31.26903
    Y2       25.23673  -0.00258   0.00000  -0.04378  -0.04378  25.19294
    Z2       22.53291  -0.00534   0.00000  -0.07916  -0.07916  22.45374
    X3       32.75954   0.00029   0.00000   0.00205   0.00205  32.76159
    Y3       30.65476   0.00091   0.00000   0.00506   0.00506  30.65982
    Z3       24.66565   0.00283   0.00000   0.01872   0.01872  24.68437
    X4       35.41630  -0.00030   0.00000  -0.04414  -0.04414  35.37216
    Y4       33.88147   0.00055   0.00000   0.01887   0.01887  33.90034
    Z4       29.56779  -0.00000   0.00000   0.03154   0.03154  29.59933
    X5       30.18478  -0.00105   0.00000  -0.02636  -0.02636  30.15842
    Y5       30.86981  -0.00023   0.00000  -0.01559  -0.01559  30.85422
    Z5       31.38325   0.00000   0.00000   0.00741   0.00741  31.39066
    X6       24.22459   0.00406   0.00000   0.05406   0.05406  24.27865
    Y6       26.85339  -0.00082   0.00000   0.00191   0.00191  26.85529
    Z6       32.44981  -0.00139   0.00000  -0.00897  -0.00897  32.44084
    X7       19.91752  -0.00202   0.00000  -0.00501  -0.00501  19.91251
    Y7       30.19574   0.00171   0.00000   0.05138   0.05138  30.24712
    Z7       34.38697   0.00104   0.00000   0.02704   0.02704  34.41401
         Item               Value     Threshold  Converged?
 Maximum Force            0.005344     0.000450     NO 
 RMS     Force            0.002003     0.000300     NO 
 Maximum Displacement     0.079162     0.001800     NO 
 RMS     Displacement     0.031088     0.001200     NO 
 Predicted change in Energy=-5.171536D-04
 GradGradGradGradGradGradGradGradGradGradGradGradGradGradGradGradGradGrad

 Leave Link  103 at Tue Nov 28 20:14:28 2023, MaxMem=  1879048192 cpu:               0.2 elap:               0.0
 (Enter /home/sekinelabo/g16/l9999.exe)
 1\1\GINC-SEKINELABO-XA7R-R37\Force\UB3LYP\6-311+G(d)\Na7(2)\SEKINELABO
 \28-Nov-2023\0\\#P B3LYP/6-311+g(d) force\\DPGEN\\0,2\Na,15.4832,13.39
 52,14.8266\Na,16.5332,13.3547,11.9239\Na,17.3356,16.2218,13.0525\Na,18
 .7415,17.9293,15.6466\Na,15.9731,16.3356,16.6073\Na,12.8191,14.2102,17
 .1717\Na,10.5399,15.9789,18.1968\\Version=ES64L-G16RevB.01\State=2-A\H
 F=-1136.1256006\S2=0.776591\S2-1=0.\S2A=0.750339\RMSD=5.039e-09\RMSF=2
 .003e-03\Dipole=0.3078784,0.1821608,-0.140941\Quadrupole=0.4121456,0.5
 253669,-0.9375125,0.6198212,-0.9703606,2.6971144\PG=C01 [X(Na7)]\\@


 ON A TOMBSTONE, "HERE LIES LESTER MOORE,
 FOUR SLUGS FROM A 44, NO LES, NO MORE".
 Job cpu time:       0 days  0 hours  3 minutes 41.5 seconds.
 Elapsed time:       0 days  0 hours  0 minutes 19.0 seconds.
 File lengths (MBytes):  RWF=     32 Int=      0 D2E=      0 Chk=      4 Scr=      1
 Normal termination of Gaussian 16 at Tue Nov 28 20:14:28 2023.
