1.444239999999999924e+01 1.639369999999999905e+01 1.296080000000000076e+01 1.660500000000000043e+01 1.323690000000000033e+01 1.502919999999999945e+01 1.765579999999999927e+01 1.662000000000000099e+01 1.503609999999999935e+01 1.557629999999999981e+01 1.901630000000000109e+01 1.536079999999999934e+01 1.359849999999999959e+01 1.360919999999999952e+01 1.430460000000000065e+01 1.490900000000000070e+01 1.240990000000000038e+01 1.791910000000000025e+01 1.463850000000000051e+01 1.613939999999999841e+01 1.681490000000000151e+01
1.436839999999999939e+01 1.634069999999999823e+01 1.299239999999999995e+01 1.664010000000000034e+01 1.320570000000000022e+01 1.506170000000000009e+01 1.768349999999999866e+01 1.662650000000000006e+01 1.506819999999999915e+01 1.557080000000000020e+01 1.904119999999999990e+01 1.531359999999999921e+01 1.360110000000000063e+01 1.366980000000000040e+01 1.436519999999999975e+01 1.489119999999999955e+01 1.247059999999999924e+01 1.780999999999999872e+01 1.467050000000000054e+01 1.607100000000000151e+01 1.681439999999999912e+01
1.438049999999999962e+01 1.634580000000000055e+01 1.325430000000000064e+01 1.697990000000000066e+01 1.330320000000000036e+01 1.507440000000000069e+01 1.781520000000000081e+01 1.653539999999999921e+01 1.511170000000000080e+01 1.543159999999999954e+01 1.912280000000000157e+01 1.508019999999999960e+01 1.327880000000000038e+01 1.359549999999999947e+01 1.473279999999999923e+01 1.469860000000000078e+01 1.273809999999999931e+01 1.740840000000000032e+01 1.484089999999999954e+01 1.578459999999999930e+01 1.676379999999999981e+01
1.456189999999999962e+01 1.638109999999999999e+01 1.343769999999999953e+01 1.715340000000000131e+01 1.346170000000000044e+01 1.495429999999999993e+01 1.786110000000000042e+01 1.652980000000000160e+01 1.509029999999999916e+01 1.534960000000000058e+01 1.910340000000000060e+01 1.495950000000000024e+01 1.296160000000000068e+01 1.343989999999999974e+01 1.483730000000000082e+01 1.456770000000000032e+01 1.271209999999999951e+01 1.740899999999999892e+01 1.497020000000000017e+01 1.579739999999999966e+01 1.673730000000000118e+01
1.504640000000000022e+01 1.554429999999999978e+01 1.329570000000000007e+01 1.674020000000000152e+01 1.360580000000000034e+01 1.469100000000000072e+01 1.819729999999999848e+01 1.741029999999999944e+01 1.489559999999999995e+01 1.524150000000000027e+01 1.912120000000000175e+01 1.491310000000000002e+01 1.238069999999999915e+01 1.344880000000000031e+01 1.497930000000000028e+01 1.443340000000000067e+01 1.243280000000000030e+01 1.749340000000000117e+01 1.538589999999999947e+01 1.586209999999999987e+01 1.715739999999999910e+01
1.468069999999999986e+01 1.554989999999999917e+01 1.288170000000000037e+01 1.654899999999999949e+01 1.318210000000000015e+01 1.522049999999999947e+01 1.797380000000000067e+01 1.770009999999999906e+01 1.472600000000000087e+01 1.513100000000000023e+01 1.851910000000000167e+01 1.503829999999999956e+01 1.296729999999999983e+01 1.417220000000000013e+01 1.514840000000000053e+01 1.455640000000000001e+01 1.253260000000000041e+01 1.731129999999999924e+01 1.556729999999999947e+01 1.576950000000000074e+01 1.709939999999999927e+01
1.474339999999999939e+01 1.592670000000000030e+01 1.266520000000000046e+01 1.681800000000000139e+01 1.300510000000000055e+01 1.516690000000000005e+01 1.790510000000000090e+01 1.740419999999999945e+01 1.455030000000000001e+01 1.445410000000000039e+01 1.802130000000000010e+01 1.509490000000000087e+01 1.317109999999999914e+01 1.495689999999999920e+01 1.523119999999999941e+01 1.453560000000000052e+01 1.228739999999999988e+01 1.787800000000000011e+01 1.579819999999999958e+01 1.582390000000000008e+01 1.683899999999999864e+01
1.485120000000000040e+01 1.598990000000000045e+01 1.259099999999999930e+01 1.685290000000000177e+01 1.301789999999999914e+01 1.511689999999999934e+01 1.788230000000000075e+01 1.729449999999999932e+01 1.450469999999999970e+01 1.425919999999999987e+01 1.801389999999999958e+01 1.509759999999999991e+01 1.313400000000000034e+01 1.504269999999999996e+01 1.529139999999999944e+01 1.452820000000000000e+01 1.226449999999999996e+01 1.798329999999999984e+01 1.591760000000000019e+01 1.580209999999999937e+01 1.684059999999999846e+01
1.507019999999999982e+01 1.581099999999999994e+01 1.297470000000000034e+01 1.621920000000000073e+01 1.333990000000000009e+01 1.451110000000000078e+01 1.824129999999999896e+01 1.655320000000000036e+01 1.435730000000000040e+01 1.357659999999999911e+01 1.809919999999999973e+01 1.504809999999999981e+01 1.323809999999999931e+01 1.465440000000000076e+01 1.569500000000000028e+01 1.491999999999999993e+01 1.299690000000000012e+01 1.764740000000000109e+01 1.616019999999999968e+01 1.597090000000000032e+01 1.719190000000000040e+01
1.494740000000000002e+01 1.583159999999999989e+01 1.307339999999999947e+01 1.619170000000000087e+01 1.330710000000000015e+01 1.447209999999999930e+01 1.835810000000000031e+01 1.651060000000000016e+01 1.438739999999999952e+01 1.360730000000000040e+01 1.802080000000000126e+01 1.505250000000000021e+01 1.321589999999999954e+01 1.468309999999999960e+01 1.563589999999999947e+01 1.500140000000000029e+01 1.298189999999999955e+01 1.766410000000000124e+01 1.610369999999999990e+01 1.609039999999999893e+01 1.714010000000000034e+01
1.484909999999999997e+01 1.587809999999999988e+01 1.315440000000000076e+01 1.619259999999999877e+01 1.326609999999999978e+01 1.445379999999999932e+01 1.845100000000000051e+01 1.645690000000000097e+01 1.441339999999999932e+01 1.363679999999999914e+01 1.795749999999999957e+01 1.507130000000000081e+01 1.316130000000000067e+01 1.471289999999999942e+01 1.557719999999999949e+01 1.508970000000000056e+01 1.294589999999999996e+01 1.770179999999999865e+01 1.604500000000000171e+01 1.620810000000000173e+01 1.705359999999999943e+01
1.479589999999999961e+01 1.599450000000000038e+01 1.320010000000000083e+01 1.624699999999999989e+01 1.321630000000000038e+01 1.448499999999999943e+01 1.854570000000000007e+01 1.631250000000000000e+01 1.445379999999999932e+01 1.364959999999999951e+01 1.796470000000000056e+01 1.516980000000000040e+01 1.298429999999999929e+01 1.468479999999999919e+01 1.553500000000000014e+01 1.525859999999999950e+01 1.287369999999999948e+01 1.778249999999999886e+01 1.594449999999999967e+01 1.637900000000000134e+01 1.679939999999999856e+01
1.484510000000000041e+01 1.604189999999999827e+01 1.316680000000000028e+01 1.628340000000000032e+01 1.322610000000000063e+01 1.452870000000000061e+01 1.854729999999999990e+01 1.622200000000000131e+01 1.446540000000000070e+01 1.361580000000000013e+01 1.804129999999999967e+01 1.524600000000000044e+01 1.288770000000000060e+01 1.462579999999999991e+01 1.555080000000000062e+01 1.533280000000000065e+01 1.285510000000000019e+01 1.781090000000000018e+01 1.591319999999999979e+01 1.641329999999999956e+01 1.665690000000000026e+01
1.516779999999999973e+01 1.639099999999999824e+01 1.321180000000000021e+01 1.605539999999999878e+01 1.296149999999999913e+01 1.432109999999999950e+01 1.853109999999999857e+01 1.558159999999999989e+01 1.400539999999999985e+01 1.306290000000000084e+01 1.776620000000000132e+01 1.564669999999999916e+01 1.325539999999999985e+01 1.453810000000000002e+01 1.532980000000000054e+01 1.535069999999999979e+01 1.363799999999999990e+01 1.820880000000000010e+01 1.600219999999999843e+01 1.654899999999999949e+01 1.670189999999999841e+01
1.515859999999999985e+01 1.645660000000000167e+01 1.344630000000000081e+01 1.598269999999999946e+01 1.307300000000000040e+01 1.425079999999999991e+01 1.835750000000000171e+01 1.552510000000000012e+01 1.388180000000000014e+01 1.291399999999999970e+01 1.743110000000000070e+01 1.557160000000000011e+01 1.317960000000000065e+01 1.439809999999999945e+01 1.515349999999999930e+01 1.518360000000000021e+01 1.395669999999999966e+01 1.829050000000000153e+01 1.664939999999999998e+01 1.658490000000000109e+01 1.683089999999999975e+01
1.523550000000000004e+01 1.662040000000000006e+01 1.441970000000000063e+01 1.612229999999999919e+01 1.342709999999999937e+01 1.505550000000000033e+01 1.873140000000000072e+01 1.562040000000000006e+01 1.309709999999999930e+01 1.212470000000000070e+01 1.691349999999999909e+01 1.585120000000000040e+01 1.250430000000000064e+01 1.355480000000000018e+01 1.531220000000000070e+01 1.468929999999999936e+01 1.547450000000000081e+01 1.734130000000000038e+01 1.801790000000000092e+01 1.581479999999999997e+01 1.634860000000000113e+01
1.525179999999999936e+01 1.658010000000000161e+01 1.446850000000000058e+01 1.609209999999999852e+01 1.324740000000000073e+01 1.498259999999999970e+01 1.856400000000000006e+01 1.561120000000000019e+01 1.312540000000000084e+01 1.190629999999999988e+01 1.694780000000000086e+01 1.574310000000000009e+01 1.261500000000000021e+01 1.362410000000000032e+01 1.523780000000000001e+01 1.488860000000000028e+01 1.556090000000000018e+01 1.751030000000000086e+01 1.810760000000000147e+01 1.585410000000000075e+01 1.635780000000000101e+01
1.508580000000000076e+01 1.661499999999999844e+01 1.435650000000000048e+01 1.640980000000000061e+01 1.316329999999999956e+01 1.508339999999999925e+01 1.779380000000000095e+01 1.538339999999999996e+01 1.300730000000000075e+01 1.191610000000000014e+01 1.699950000000000117e+01 1.553369999999999962e+01 1.319209999999999994e+01 1.405729999999999968e+01 1.520739999999999981e+01 1.499370000000000047e+01 1.536350000000000016e+01 1.771420000000000172e+01 1.803419999999999845e+01 1.584360000000000035e+01 1.652299999999999969e+01
1.511129999999999995e+01 1.673979999999999890e+01 1.451479999999999926e+01 1.664699999999999847e+01 1.329579999999999984e+01 1.539020000000000010e+01 1.780059999999999931e+01 1.527040000000000042e+01 1.273399999999999999e+01 1.212860000000000049e+01 1.726599999999999824e+01 1.567089999999999961e+01 1.302389999999999937e+01 1.368730000000000047e+01 1.516089999999999982e+01 1.469439999999999991e+01 1.519449999999999967e+01 1.757700000000000173e+01 1.801980000000000004e+01 1.597160000000000046e+01 1.637780000000000058e+01
1.514690000000000047e+01 1.674449999999999861e+01 1.455160000000000053e+01 1.665549999999999997e+01 1.329889999999999972e+01 1.545289999999999964e+01 1.780890000000000128e+01 1.524699999999999989e+01 1.266719999999999935e+01 1.220429999999999993e+01 1.732369999999999877e+01 1.573029999999999973e+01 1.296240000000000059e+01 1.356900000000000084e+01 1.511420000000000030e+01 1.460699999999999932e+01 1.517249999999999943e+01 1.757410000000000139e+01 1.804029999999999845e+01 1.607000000000000028e+01 1.633500000000000085e+01
1.519030000000000058e+01 1.672869999999999990e+01 1.457900000000000063e+01 1.663939999999999841e+01 1.329410000000000025e+01 1.550420000000000087e+01 1.781429999999999936e+01 1.522369999999999912e+01 1.261239999999999917e+01 1.228480000000000061e+01 1.736970000000000169e+01 1.579979999999999940e+01 1.291150000000000020e+01 1.346209999999999951e+01 1.506000000000000050e+01 1.452069999999999972e+01 1.515779999999999994e+01 1.757779999999999987e+01 1.806459999999999866e+01 1.618949999999999889e+01 1.629220000000000113e+01
1.534420000000000073e+01 1.631879999999999953e+01 1.449690000000000012e+01 1.635510000000000019e+01 1.334789999999999921e+01 1.557590000000000074e+01 1.774650000000000105e+01 1.510239999999999938e+01 1.266920000000000002e+01 1.265140000000000065e+01 1.747860000000000014e+01 1.620700000000000074e+01 1.297579999999999956e+01 1.327800000000000047e+01 1.479410000000000025e+01 1.422400000000000020e+01 1.511860000000000070e+01 1.763360000000000127e+01 1.812849999999999895e+01 1.678119999999999834e+01 1.604889999999999972e+01
1.462749999999999950e+01 1.615009999999999835e+01 1.416830000000000034e+01 1.655720000000000169e+01 1.313819999999999943e+01 1.565099999999999980e+01 1.781540000000000035e+01 1.485870000000000068e+01 1.314869999999999983e+01 1.294170000000000087e+01 1.775649999999999906e+01 1.645710000000000051e+01 1.326050000000000040e+01 1.360779999999999923e+01 1.452229999999999954e+01 1.445519999999999960e+01 1.493520000000000003e+01 1.778089999999999904e+01 1.776810000000000045e+01 1.697909999999999897e+01 1.569730000000000025e+01
1.454390000000000072e+01 1.625710000000000122e+01 1.412320000000000064e+01 1.666519999999999868e+01 1.309029999999999916e+01 1.568919999999999959e+01 1.784450000000000003e+01 1.481930000000000014e+01 1.322129999999999939e+01 1.299540000000000006e+01 1.781050000000000111e+01 1.648730000000000118e+01 1.322000000000000064e+01 1.358089999999999975e+01 1.449489999999999945e+01 1.454390000000000072e+01 1.492859999999999943e+01 1.776239999999999952e+01 1.761260000000000048e+01 1.693860000000000099e+01 1.564710000000000001e+01
1.393329999999999913e+01 1.583169999999999966e+01 1.407799999999999940e+01 1.681190000000000140e+01 1.296240000000000059e+01 1.567810000000000059e+01 1.755180000000000007e+01 1.521090000000000053e+01 1.337889999999999979e+01 1.471790000000000020e+01 1.845050000000000168e+01 1.697990000000000066e+01 1.388519999999999932e+01 1.245880000000000010e+01 1.454969999999999963e+01 1.335989999999999966e+01 1.520710000000000051e+01 1.738319999999999865e+01 1.716550000000000153e+01 1.730399999999999849e+01 1.537780000000000058e+01
1.463790000000000013e+01 1.533680000000000021e+01 1.479690000000000083e+01 1.662849999999999895e+01 1.337630000000000052e+01 1.586050000000000004e+01 1.727840000000000131e+01 1.508220000000000027e+01 1.261439999999999984e+01 1.466849999999999987e+01 1.830379999999999896e+01 1.713169999999999860e+01 1.384009999999999962e+01 1.203640000000000043e+01 1.418490000000000073e+01 1.280300000000000082e+01 1.559409999999999918e+01 1.760810000000000031e+01 1.756919999999999860e+01 1.769579999999999842e+01 1.522889999999999944e+01
1.472180000000000000e+01 1.536289999999999978e+01 1.484210000000000029e+01 1.664099999999999824e+01 1.341649999999999920e+01 1.587420000000000009e+01 1.724520000000000053e+01 1.506129999999999924e+01 1.256610000000000049e+01 1.465409999999999968e+01 1.826150000000000162e+01 1.713009999999999877e+01 1.384600000000000009e+01 1.202410000000000068e+01 1.416430000000000078e+01 1.272860000000000014e+01 1.561560000000000059e+01 1.766090000000000160e+01 1.758879999999999910e+01 1.768359999999999843e+01 1.518790000000000084e+01
1.477239999999999931e+01 1.542500000000000071e+01 1.489059999999999917e+01 1.667830000000000013e+01 1.342989999999999995e+01 1.589080000000000048e+01 1.721209999999999951e+01 1.504359999999999964e+01 1.253439999999999976e+01 1.465010000000000012e+01 1.821109999999999829e+01 1.711489999999999867e+01 1.386389999999999922e+01 1.203270000000000017e+01 1.415160000000000018e+01 1.266089999999999982e+01 1.563119999999999976e+01 1.770120000000000005e+01 1.758759999999999835e+01 1.765200000000000102e+01 1.514199999999999946e+01
1.476520000000000010e+01 1.561129999999999995e+01 1.500440000000000040e+01 1.681790000000000163e+01 1.338439999999999941e+01 1.592399999999999949e+01 1.713279999999999959e+01 1.500999999999999979e+01 1.251960000000000051e+01 1.467060000000000031e+01 1.809860000000000113e+01 1.705389999999999873e+01 1.395040000000000013e+01 1.213669999999999938e+01 1.415329999999999977e+01 1.254879999999999995e+01 1.564540000000000042e+01 1.773410000000000153e+01 1.753979999999999961e+01 1.753920000000000101e+01 1.503609999999999935e+01
1.442609999999999992e+01 1.566869999999999941e+01 1.508990000000000009e+01 1.722589999999999932e+01 1.325409999999999933e+01 1.588289999999999935e+01 1.681419999999999959e+01 1.483699999999999974e+01 1.269500000000000028e+01 1.483559999999999945e+01 1.811649999999999849e+01 1.705529999999999902e+01 1.434759999999999991e+01 1.271480000000000032e+01 1.423060000000000080e+01 1.236139999999999972e+01 1.561400000000000077e+01 1.764720000000000155e+01 1.741460000000000008e+01 1.722040000000000148e+01 1.482469999999999999e+01
1.431729999999999947e+01 1.561769999999999925e+01 1.506819999999999915e+01 1.733539999999999992e+01 1.325949999999999918e+01 1.585350000000000037e+01 1.670589999999999975e+01 1.475200000000000067e+01 1.274300000000000033e+01 1.489400000000000013e+01 1.817500000000000071e+01 1.710190000000000055e+01 1.445659999999999989e+01 1.285950000000000060e+01 1.424189999999999934e+01 1.231969999999999921e+01 1.560859999999999914e+01 1.761380000000000123e+01 1.739669999999999916e+01 1.715319999999999823e+01 1.480320000000000036e+01
1.538589999999999947e+01 1.861120000000000019e+01 1.747370000000000090e+01 1.851670000000000016e+01 1.364860000000000007e+01 1.378320000000000078e+01 1.432670000000000066e+01 1.268459999999999965e+01 1.525399999999999956e+01 1.416559999999999953e+01 1.742239999999999966e+01 1.475150000000000006e+01 1.572649999999999970e+01 1.451960000000000051e+01 1.238390000000000057e+01 1.301849999999999952e+01 1.548729999999999940e+01 1.755659999999999954e+01 1.628559999999999874e+01 1.505189999999999984e+01 1.622269999999999968e+01
1.488969999999999949e+01 1.836189999999999856e+01 1.721379999999999910e+01 1.835529999999999973e+01 1.334060000000000024e+01 1.413049999999999962e+01 1.388630000000000031e+01 1.276980000000000004e+01 1.498610000000000042e+01 1.414920000000000044e+01 1.751089999999999947e+01 1.399029999999999951e+01 1.552580000000000027e+01 1.500569999999999915e+01 1.295659999999999989e+01 1.406390000000000029e+01 1.517060000000000031e+01 1.810910000000000153e+01 1.655539999999999878e+01 1.526600000000000001e+01 1.603920000000000101e+01
1.392099999999999937e+01 1.730150000000000077e+01 1.680750000000000099e+01 1.715690000000000026e+01 1.290889999999999915e+01 1.474750000000000050e+01 1.407699999999999996e+01 1.414320000000000022e+01 1.560229999999999961e+01 1.420420000000000016e+01 1.794600000000000151e+01 1.348629999999999995e+01 1.558820000000000050e+01 1.463530000000000086e+01 1.231429999999999936e+01 1.521340000000000003e+01 1.400990000000000002e+01 1.860140000000000171e+01 1.726480000000000103e+01 1.648059999999999903e+01 1.586619999999999919e+01
1.379930000000000057e+01 1.709659999999999869e+01 1.680330000000000013e+01 1.688260000000000005e+01 1.294940000000000069e+01 1.497910000000000075e+01 1.428190000000000026e+01 1.458140000000000036e+01 1.543849999999999945e+01 1.443369999999999997e+01 1.764049999999999940e+01 1.356470000000000020e+01 1.556969999999999921e+01 1.479550000000000054e+01 1.247400000000000020e+01 1.553839999999999932e+01 1.399399999999999977e+01 1.853819999999999979e+01 1.691989999999999839e+01 1.636820000000000164e+01 1.562770000000000081e+01
1.363269999999999982e+01 1.726099999999999923e+01 1.736949999999999861e+01 1.686319999999999908e+01 1.275510000000000055e+01 1.540269999999999939e+01 1.360289999999999999e+01 1.440949999999999953e+01 1.512700000000000067e+01 1.446799999999999997e+01 1.765350000000000108e+01 1.369139999999999979e+01 1.590869999999999962e+01 1.472409999999999997e+01 1.233980000000000032e+01 1.597550000000000026e+01 1.431589999999999918e+01 1.799599999999999866e+01 1.697449999999999903e+01 1.630649999999999977e+01 1.549920000000000009e+01
1.372369999999999912e+01 1.725900000000000034e+01 1.747840000000000060e+01 1.688639999999999830e+01 1.265770000000000017e+01 1.539250000000000007e+01 1.339179999999999993e+01 1.432429999999999914e+01 1.507649999999999935e+01 1.436299999999999955e+01 1.774589999999999890e+01 1.376970000000000027e+01 1.608210000000000051e+01 1.462429999999999986e+01 1.232770000000000010e+01 1.599080000000000013e+01 1.452749999999999986e+01 1.787849999999999895e+01 1.698760000000000048e+01 1.628679999999999950e+01 1.550229999999999997e+01
1.387850000000000072e+01 1.719219999999999970e+01 1.745939999999999870e+01 1.686769999999999925e+01 1.259389999999999965e+01 1.528659999999999997e+01 1.345149999999999935e+01 1.437989999999999924e+01 1.505680000000000085e+01 1.424799999999999933e+01 1.773839999999999861e+01 1.387739999999999974e+01 1.618909999999999982e+01 1.456329999999999991e+01 1.243440000000000012e+01 1.589809999999999945e+01 1.469960000000000022e+01 1.789280000000000115e+01 1.689249999999999829e+01 1.625819999999999865e+01 1.541810000000000080e+01
1.423029999999999973e+01 1.751829999999999998e+01 1.711609999999999943e+01 1.666359999999999886e+01 1.264039999999999964e+01 1.545159999999999911e+01 1.399370000000000047e+01 1.441549999999999976e+01 1.536229999999999940e+01 1.360849999999999937e+01 1.757829999999999870e+01 1.354429999999999978e+01 1.594430000000000014e+01 1.472300000000000075e+01 1.217660000000000053e+01 1.574890000000000079e+01 1.402100000000000080e+01 1.836189999999999856e+01 1.723610000000000042e+01 1.652899999999999991e+01 1.541259999999999941e+01
1.428580000000000005e+01 1.754060000000000130e+01 1.709570000000000078e+01 1.670410000000000039e+01 1.268069999999999986e+01 1.551149999999999984e+01 1.396289999999999942e+01 1.442290000000000028e+01 1.542409999999999926e+01 1.359999999999999964e+01 1.750860000000000127e+01 1.344780000000000086e+01 1.585449999999999982e+01 1.479940000000000033e+01 1.214390000000000036e+01 1.574920000000000009e+01 1.396460000000000079e+01 1.831729999999999947e+01 1.726889999999999858e+01 1.650870000000000104e+01 1.548520000000000074e+01
1.435030000000000072e+01 1.755079999999999885e+01 1.706429999999999936e+01 1.676589999999999847e+01 1.273140000000000072e+01 1.554649999999999999e+01 1.393459999999999965e+01 1.445550000000000068e+01 1.547349999999999959e+01 1.362930000000000064e+01 1.740970000000000084e+01 1.336880000000000024e+01 1.575259999999999927e+01 1.489259999999999984e+01 1.216029999999999944e+01 1.574729999999999919e+01 1.393699999999999939e+01 1.826670000000000016e+01 1.724549999999999983e+01 1.644839999999999947e+01 1.554529999999999923e+01
1.453079999999999927e+01 1.771300000000000097e+01 1.697939999999999827e+01 1.741789999999999949e+01 1.285689999999999955e+01 1.492479999999999940e+01 1.350060000000000038e+01 1.451999999999999957e+01 1.550029999999999930e+01 1.367730000000000068e+01 1.749620000000000175e+01 1.367849999999999966e+01 1.585529999999999973e+01 1.454700000000000060e+01 1.264090000000000025e+01 1.563429999999999964e+01 1.442009999999999970e+01 1.828930000000000078e+01 1.680930000000000035e+01 1.587229999999999919e+01 1.541220000000000034e+01
1.446380000000000088e+01 1.778150000000000119e+01 1.706309999999999860e+01 1.750580000000000069e+01 1.270509999999999984e+01 1.478630000000000067e+01 1.339220000000000077e+01 1.438109999999999999e+01 1.545620000000000083e+01 1.366590000000000060e+01 1.770810000000000173e+01 1.390830000000000055e+01 1.597579999999999956e+01 1.422700000000000031e+01 1.260210000000000008e+01 1.562059999999999960e+01 1.461180000000000057e+01 1.828849999999999909e+01 1.680140000000000100e+01 1.601089999999999947e+01 1.532119999999999926e+01
1.442849999999999966e+01 1.778999999999999915e+01 1.711840000000000117e+01 1.753519999999999968e+01 1.262349999999999994e+01 1.477360000000000007e+01 1.339739999999999931e+01 1.433339999999999925e+01 1.542689999999999984e+01 1.368640000000000079e+01 1.777400000000000091e+01 1.400229999999999997e+01 1.598140000000000072e+01 1.410989999999999966e+01 1.255589999999999939e+01 1.561940000000000062e+01 1.470270000000000010e+01 1.826429999999999865e+01 1.677720000000000056e+01 1.609189999999999898e+01 1.528420000000000023e+01
1.439380000000000059e+01 1.778010000000000090e+01 1.718669999999999831e+01 1.755539999999999878e+01 1.254899999999999949e+01 1.479400000000000048e+01 1.344280000000000008e+01 1.431029999999999980e+01 1.539320000000000022e+01 1.371599999999999930e+01 1.781380000000000052e+01 1.407610000000000028e+01 1.595770000000000088e+01 1.402040000000000042e+01 1.250569999999999915e+01 1.562180000000000035e+01 1.478819999999999979e+01 1.822459999999999880e+01 1.673799999999999955e+01 1.616369999999999862e+01 1.524530000000000030e+01
1.397659999999999947e+01 1.736520000000000152e+01 1.761240000000000094e+01 1.682339999999999947e+01 1.293609999999999971e+01 1.562959999999999994e+01 1.391119999999999912e+01 1.439589999999999925e+01 1.530189999999999984e+01 1.386359999999999992e+01 1.750440000000000040e+01 1.398670000000000080e+01 1.540750000000000064e+01 1.401040000000000063e+01 1.235229999999999961e+01 1.633820000000000050e+01 1.469769999999999932e+01 1.792109999999999914e+01 1.710500000000000043e+01 1.651569999999999894e+01 1.462149999999999928e+01
1.410899999999999999e+01 1.701160000000000139e+01 1.723750000000000071e+01 1.680819999999999936e+01 1.285120000000000040e+01 1.536420000000000030e+01 1.365370000000000061e+01 1.459769999999999968e+01 1.560970000000000013e+01 1.382479999999999976e+01 1.733569999999999922e+01 1.388359999999999950e+01 1.541670000000000051e+01 1.426870000000000083e+01 1.234179999999999922e+01 1.651569999999999894e+01 1.500350000000000072e+01 1.828099999999999881e+01 1.709740000000000038e+01 1.635709999999999908e+01 1.470759999999999934e+01
1.417060000000000031e+01 1.697159999999999869e+01 1.714590000000000103e+01 1.680570000000000164e+01 1.283009999999999984e+01 1.526909999999999989e+01 1.364039999999999964e+01 1.460580000000000034e+01 1.567360000000000042e+01 1.381859999999999999e+01 1.729729999999999990e+01 1.381939999999999991e+01 1.541499999999999915e+01 1.436350000000000016e+01 1.237589999999999968e+01 1.656299999999999883e+01 1.508910000000000018e+01 1.835320000000000107e+01 1.701219999999999999e+01 1.626810000000000045e+01 1.478839999999999932e+01
1.441119999999999912e+01 1.797739999999999938e+01 1.708930000000000149e+01 1.689920000000000044e+01 1.261229999999999940e+01 1.508099999999999952e+01 1.390770000000000017e+01 1.392159999999999975e+01 1.577710000000000079e+01 1.369170000000000087e+01 1.729380000000000095e+01 1.365290000000000070e+01 1.534290000000000020e+01 1.450719999999999921e+01 1.246209999999999951e+01 1.655679999999999907e+01 1.488339999999999996e+01 1.812730000000000175e+01 1.661599999999999966e+01 1.622980000000000089e+01 1.523569999999999958e+01
1.460629999999999917e+01 1.783269999999999911e+01 1.708180000000000121e+01 1.719350000000000023e+01 1.295979999999999954e+01 1.521690000000000076e+01 1.385689999999999955e+01 1.471020000000000039e+01 1.586200000000000010e+01 1.332659999999999911e+01 1.696389999999999887e+01 1.401839999999999975e+01 1.532000000000000028e+01 1.415169999999999995e+01 1.267300000000000004e+01 1.610320000000000107e+01 1.428529999999999944e+01 1.796140000000000114e+01 1.701910000000000167e+01 1.652189999999999870e+01 1.461190000000000033e+01
1.468629999999999924e+01 1.774520000000000053e+01 1.716009999999999991e+01 1.722599999999999909e+01 1.305419999999999980e+01 1.520860000000000056e+01 1.381349999999999945e+01 1.476960000000000051e+01 1.584229999999999983e+01 1.321879999999999988e+01 1.696189999999999998e+01 1.390320000000000000e+01 1.527989999999999959e+01 1.411139999999999972e+01 1.271380000000000088e+01 1.610600000000000165e+01 1.428289999999999971e+01 1.801069999999999993e+01 1.709499999999999886e+01 1.650029999999999930e+01 1.458680000000000021e+01
1.477759999999999962e+01 1.764669999999999916e+01 1.723400000000000176e+01 1.725850000000000151e+01 1.314300000000000068e+01 1.519669999999999987e+01 1.378749999999999964e+01 1.479800000000000004e+01 1.582000000000000028e+01 1.312609999999999921e+01 1.698489999999999966e+01 1.376050000000000040e+01 1.522519999999999918e+01 1.407990000000000030e+01 1.274859999999999971e+01 1.612490000000000023e+01 1.430429999999999957e+01 1.807710000000000150e+01 1.712569999999999837e+01 1.646869999999999834e+01 1.458869999999999933e+01
1.487819999999999965e+01 1.754260000000000019e+01 1.729980000000000118e+01 1.729210000000000136e+01 1.322020000000000017e+01 1.518640000000000079e+01 1.378309999999999924e+01 1.480000000000000071e+01 1.579759999999999920e+01 1.305509999999999948e+01 1.702459999999999951e+01 1.360289999999999999e+01 1.515719999999999956e+01 1.405899999999999928e+01 1.277239999999999931e+01 1.615439999999999898e+01 1.434720000000000084e+01 1.815200000000000102e+01 1.710539999999999949e+01 1.643199999999999861e+01 1.461449999999999960e+01
1.498220000000000063e+01 1.744000000000000128e+01 1.735750000000000171e+01 1.732529999999999859e+01 1.327779999999999916e+01 1.518340000000000067e+01 1.379850000000000065e+01 1.478470000000000084e+01 1.577469999999999928e+01 1.301089999999999947e+01 1.706810000000000116e+01 1.344379999999999953e+01 1.507789999999999964e+01 1.404969999999999963e+01 1.278289999999999971e+01 1.619239999999999924e+01 1.440540000000000020e+01 1.822650000000000148e+01 1.703819999999999979e+01 1.639979999999999905e+01 1.465680000000000049e+01
1.527669999999999995e+01 1.727919999999999945e+01 1.755330000000000013e+01 1.738390000000000057e+01 1.326350000000000051e+01 1.523789999999999978e+01 1.389100000000000001e+01 1.465099999999999980e+01 1.573980000000000068e+01 1.314320000000000022e+01 1.710739999999999839e+01 1.296589999999999954e+01 1.475680000000000014e+01 1.409680000000000000e+01 1.268110000000000070e+01 1.646180000000000021e+01 1.456569999999999965e+01 1.846030000000000015e+01 1.651200000000000045e+01 1.646189999999999998e+01 1.478720000000000034e+01
1.523199999999999932e+01 1.765660000000000096e+01 1.791400000000000148e+01 1.703049999999999997e+01 1.317140000000000022e+01 1.527989999999999959e+01 1.375830000000000020e+01 1.425440000000000040e+01 1.608449999999999847e+01 1.366840000000000011e+01 1.702629999999999910e+01 1.273090000000000011e+01 1.466680000000000028e+01 1.400130000000000052e+01 1.246000000000000085e+01 1.699020000000000152e+01 1.442689999999999984e+01 1.843090000000000117e+01 1.607920000000000016e+01 1.688860000000000028e+01 1.452529999999999966e+01
1.617680000000000007e+01 1.723140000000000072e+01 1.884469999999999956e+01 1.536359999999999992e+01 1.269420000000000037e+01 1.574000000000000021e+01 1.535180000000000078e+01 1.435599999999999987e+01 1.861049999999999827e+01 1.602179999999999893e+01 1.712450000000000117e+01 1.145669999999999966e+01 1.482460000000000022e+01 1.406600000000000072e+01 1.217890000000000050e+01 1.634789999999999921e+01 1.646039999999999992e+01 1.542670000000000030e+01 1.333890000000000065e+01 1.549300000000000033e+01 1.516810000000000080e+01