-3.091558142404709361e+04
-3.091560088236517549e+04
-3.091561782961652716e+04
-3.091562565969291609e+04
-3.091527918745217539e+04
-3.091536881087391521e+04
-3.091551963977828564e+04
-3.091554517113354086e+04
-3.091574970415768985e+04
-3.091576465001158795e+04
-3.091574655852144133e+04
-3.091574459358723834e+04
-3.091579259964274388e+04
-3.091580544777086834e+04
-3.091564978666853131e+04
-3.091546499904258962e+04
-3.091553635219537318e+04
-3.091566892035477576e+04
-3.091568257883798287e+04
-3.091566604302279302e+04
-3.091564657926243672e+04
-3.091558497023495511e+04
-3.091559292112990079e+04
-3.091560384024285668e+04
-3.091557722886768170e+04
-3.091538872144522975e+04
-3.091536896652304495e+04
-3.091538664684914329e+04
-3.091547437499783337e+04
-3.091558594249778616e+04
-3.091551700489975337e+04
-3.091547113548230118e+04
-3.091551849907697397e+04
-3.091575334640173969e+04
-3.091571151161652597e+04
-3.091593946330390827e+04
-3.091585574284818358e+04
-3.091588413929030139e+04
-3.091580895123685332e+04
-3.091578249306177531e+04
-3.091578918543010877e+04
-3.091585532052746566e+04
-3.091574355873821696e+04
-3.091569725774817925e+04
-3.091566540709269611e+04
-3.091579583317177094e+04
-3.091586347877317894e+04
-3.091582243910467150e+04
-3.091589200419726694e+04
-3.091583088388627948e+04
-3.091584408576242640e+04
-3.091585941039882164e+04
-3.091586112145079096e+04
-3.091583595717713251e+04
-3.091563043692388965e+04
-3.091547557556419633e+04
-3.091532754616724196e+04
-3.091536635422996551e+04
-3.091539765630390684e+04
-3.091547364654902412e+04
-3.091539383473682028e+04
-3.091562015918330508e+04
-3.091559790543951749e+04
-3.091558441784381284e+04
-3.091537194970731798e+04
-3.091535879245784236e+04
-3.091535328487326478e+04
-3.091553811549320017e+04
-3.091589058974940781e+04
-3.091587871987061590e+04
-3.091585553549742326e+04
-3.091587463435308746e+04
-3.091592760648657350e+04
-3.091595868406658337e+04
-3.091597561825647063e+04
-3.091588694505633975e+04
-3.091580397345796155e+04
-3.091577288145592320e+04
-3.091570984655180291e+04
-3.091588382690358776e+04
-3.091589277101413245e+04
-3.091594042114470358e+04
-3.091592743832021006e+04
-3.091577200252814873e+04
-3.091569871872751173e+04
-3.091555196309554958e+04
-3.091554694014576307e+04
-3.091555464423343801e+04
-3.091556611845867155e+04
-3.091565103675961655e+04
-3.091569311807999475e+04
-3.091550003996099986e+04
-3.091530259523085260e+04
-3.091536631123597908e+04
-3.091563494013619857e+04
-3.091548754530877341e+04
-3.091556924259792868e+04
-3.091532931980539797e+04
-3.091539661002610592e+04
-3.091546044603344490e+04
-3.091548869662252764e+04
-3.091550692879553753e+04
-3.091566789693453393e+04
-3.091561451200431475e+04
-3.091563250444501682e+04
-3.091565854791856691e+04
-3.091551595236333378e+04
-3.091567074161285564e+04
-3.091552320011605843e+04
-3.091555307903450012e+04
-3.091556675656568041e+04
-3.091559572145365746e+04
-3.091578600768442266e+04
-3.091578400465428422e+04
-3.091580135517838062e+04
-3.091589518411986137e+04
-3.091588388867343747e+04
-3.091562067211793328e+04
-3.091561812349949832e+04
-3.091567164503087770e+04
-3.091572208187951401e+04
-3.091578142229373043e+04
-3.091581442834467089e+04
-3.091574830331552585e+04
-3.091575733178136943e+04
-3.091571614734828472e+04
-3.091566482368057041e+04
-3.091562286589989526e+04
-3.091560894564314731e+04
-3.091560088182094842e+04
-3.091550207455634518e+04
-3.091560413222102943e+04
-3.091567288287684278e+04
-3.091569790537917288e+04
-3.091565421151205373e+04
-3.091571274728557546e+04
-3.091573646881153400e+04
-3.091572560466557479e+04
-3.091581305525812058e+04
-3.091597926213320170e+04
-3.091588140590655166e+04
-3.091583489647729584e+04
-3.091571194863138953e+04
-3.091574678383172068e+04
-3.091565257583562561e+04
-3.091569382938562558e+04
-3.091579663754034482e+04
-3.091580680425847459e+04
-3.091581479760318689e+04
-3.091586351278741131e+04
-3.091593506458331831e+04
-3.091596656965419970e+04
-3.091594879953052805e+04
-3.091593655739997121e+04
-3.091585315422901112e+04
-3.091555385483112332e+04
-3.091552157287516457e+04
-3.091554171066155322e+04
-3.091555515363059021e+04
-3.091551976141318301e+04
-3.091535200893136425e+04
-3.091523851051144811e+04
-3.091552206295222641e+04
-3.091555059273013831e+04
-3.091556688391497300e+04
-3.091552859178013023e+04
-3.091550302831543377e+04
-3.091548085103564517e+04
-3.091545025863466071e+04
-3.091551568052158473e+04
-3.091553784773316511e+04
-3.091558127465658617e+04
-3.091558889112359975e+04
-3.091561484806493900e+04
-3.091558330598656903e+04
-3.091554994265012283e+04
-3.091558088471742303e+04
-3.091560995627403099e+04
-3.091561564644700775e+04
-3.091563634805332185e+04
-3.091564308232719122e+04
-3.091564355199571946e+04
-3.091560244620354206e+04
-3.091554781390337303e+04
-3.091554854289640934e+04
-3.091558505894406699e+04
-3.091559708937004325e+04
-3.091554227284879380e+04
-3.091547581611284841e+04
-3.091542106979697564e+04
-3.091541283399881286e+04
-3.091546084304756369e+04
-3.091549012168282570e+04
-3.091560712656197938e+04
-3.091566719025483326e+04
-3.091571395356633002e+04
-3.091574930496665547e+04
-3.091584704881027938e+04
-3.091584188871510560e+04
-3.091554922236472703e+04
-3.091560097161851809e+04
-3.091563564627167216e+04
-3.091559381992198541e+04
-3.091556370399237130e+04
-3.091551779321361028e+04
-3.091561782689538813e+04
-3.091560793691705840e+04
-3.091555432041794120e+04
-3.091549387304453558e+04
-3.091549730902627562e+04
-3.091543200197139959e+04
-3.091518038671831164e+04
-3.091517362278403380e+04
-3.091540781295382112e+04
-3.091541299917192737e+04
-3.091543805133467322e+04
-3.091550484685237825e+04
-3.091553592062279131e+04
-3.091555674604091109e+04
-3.091555044714922042e+04
-3.091551217379023728e+04
-3.091546973491225071e+04
-3.091519371349472931e+04
-3.091563537878374700e+04
-3.091564002975387848e+04
-3.091569263099617820e+04
-3.091563521252217106e+04
-3.091557633633420846e+04
-3.091558044606987460e+04
-3.091558966664810214e+04
-3.091560451726214887e+04
-3.091559359978187422e+04
-3.091557589170015854e+04
-3.091564438847372730e+04
-3.091573228097919127e+04
-3.091572812961010641e+04
-3.091571177556697148e+04
-3.091569315454324897e+04
-3.091569091477405163e+04
-3.091557225326570187e+04
-3.091557182033254867e+04
-3.091557893855907605e+04
-3.091557626694517603e+04
-3.091556856693920781e+04
-3.091556995363145325e+04
-3.091558007789982003e+04
-3.091559051782026654e+04
-3.091559872069265111e+04
-3.091549051325467371e+04
-3.091556755413141218e+04
-3.091558639202988343e+04
-3.091551660108278156e+04
-3.091549524150514844e+04
-3.091551631590745092e+04
-3.091554111065048710e+04
-3.091550802949611534e+04
-3.091539893442271932e+04
-3.091525850217269544e+04
-3.091561109452631717e+04
-3.091561153779979577e+04
-3.091527515717375718e+04
-3.091550824011224540e+04
-3.091552361672238112e+04
-3.091561265074549738e+04
-3.091557315287413439e+04
-3.091542384236511862e+04
-3.091527364748605032e+04
-3.091544246012347139e+04
-3.091548690366428491e+04
-3.091551003905698963e+04
-3.091535825231182753e+04
-3.091553227075955147e+04
-3.091560509495987935e+04
-3.091562092600016695e+04
-3.091519307647617461e+04
-3.091517241786385057e+04
-3.091564623884799585e+04
-3.091554611210327494e+04
-3.091534211296652938e+04
-3.091547738893097267e+04
-3.091546009010850685e+04
-3.091540014451306342e+04
-3.091538468218705748e+04
-3.091543407139732517e+04
-3.091557868113936274e+04
-3.091559583519725493e+04
-3.091560481005666225e+04
-3.091560940769248555e+04
-3.091559514375592698e+04
-3.091554926699140196e+04
-3.091550559924720801e+04
-3.091549762685526730e+04
-3.091554520351508836e+04
-3.091557331260497085e+04
-3.091552044060937624e+04
-3.091555983181211195e+04
-3.091546867666143953e+04
-3.091560676791590595e+04
-3.091561688510930981e+04
-3.091558156200882149e+04
-3.091556078285005788e+04
-3.091560425984243557e+04
-3.091561854663655322e+04
-3.091556445176127090e+04
-3.091559404795340379e+04
-3.091563193844817943e+04
-3.091563699922179512e+04
-3.091561854582021260e+04
-3.091560484216609984e+04
-3.091560690941510984e+04
-3.091561320857891405e+04
-3.091560808603545229e+04
-3.091543321124539943e+04
-3.091550813099458173e+04
-3.091548776517677834e+04
-3.091550437800019063e+04
-3.091554741661713342e+04
-3.091555466192083622e+04
-3.091549573920140028e+04
