2.383340836633241269e-02 -6.368797891972388658e-02 6.198364591528855022e-03 1.455871858803235719e-01 9.167418203337690530e-02 3.897489324507397157e-02 8.313873589711652523e-02 -1.195193858380098478e-01 8.225113959040766115e-03 -7.384697399241432758e-02 8.496848732412662364e-02 5.436181565188002995e-02 -2.289478594206679207e-01 -6.602439197757824750e-03 -5.100102358782979128e-02 5.858824679982674657e-03 1.839805983863752603e-01 -5.701421731437639889e-02 4.437662716725958301e-02 -1.708134637883872153e-01 2.550534546825767310e-04
3.597971208078041411e-02 2.372531918049717442e-02 -2.936210337311707594e-02 1.690427963169074399e-01 1.085283302914849951e-01 -2.302165960915113219e-03 6.634881380128637707e-02 -1.084076941211855188e-01 1.873876703111541572e-02 -6.253123951184393070e-02 2.021684293865493379e-02 5.773798291410569411e-02 -2.546997222804071037e-01 -8.110638152424969050e-02 -4.085904921947403068e-02 -7.647438453011720476e-03 1.391342306327194300e-01 1.760187654128132773e-02 5.350707804628854203e-02 -1.020906473979213136e-01 -2.155530793299622119e-02
-2.153237369090177725e-02 -3.378429833194615366e-04 3.715912862041742277e-03 1.261750982976731494e-01 8.404885506938000739e-02 -5.483083632933159757e-02 6.702475687826268957e-02 -3.497811305047653779e-02 1.626850233162019377e-02 -3.588884928754974835e-02 -1.388259553381988587e-01 5.312722323384092699e-02 -2.150309910788750500e-01 3.647315824028323633e-02 -2.255192416496163976e-01 3.626099078987591456e-02 -2.017278451124121519e-01 2.871409276319391024e-01 4.299131666944736724e-02 2.553476917526762424e-01 -7.990243665842647336e-02
-6.886972923724578310e-02 -1.654941080182986968e-01 -9.841535796918586543e-02 -1.168628189880478903e-02 -4.222744185708654507e-02 -6.659054894049258426e-03 1.119458408959616152e-01 3.514708596420374614e-02 -9.791841510909464821e-03 -4.668810052238791392e-02 1.038946877911932527e-02 1.174749987013535557e-01 -6.940693557617096110e-02 1.606680441415105354e-01 -1.877460306993967154e-01 8.757100958117096379e-02 -1.242143234427333653e-01 2.028210782669588319e-01 -2.865854664590598410e-03 1.257312230112175022e-01 -1.768384331683859126e-02
-9.352434802117512436e-02 1.538607908489945109e-01 -1.782876098740037163e-01 1.911893037596789635e-01 -1.650239046332951653e-01 4.108762030940629750e-02 -2.957964957178241816e-01 -1.934277063569234401e-01 4.748982197641131442e-03 2.147287835883167004e-02 -6.827318183245292826e-02 1.430041011647852911e-01 2.170845313435421642e-01 1.151433678957745205e-01 3.261598895888403061e-03 -6.807458980785935712e-03 1.411631397270653454e-01 6.688982537320480037e-02 -3.361841074226752657e-02 1.655749435083714652e-02 -8.070446664485472765e-02
4.050284855806551843e-02 3.952917171040128824e-02 -6.262960992692614970e-02 2.716881849787632919e-01 1.138281456759325239e-01 -3.397170605686362088e-01 1.685414311590132386e-01 -2.533742670691372934e-01 8.647602807633006372e-02 -3.323335715879804919e-01 -2.823549729677824610e-02 1.442296432989485615e-02 -1.722916425400616847e-01 1.871094769261072432e-01 -1.832455199318011874e-01 -4.976314015747220626e-02 -1.418983210257743766e-01 4.659504200687600295e-01 7.365588958967229927e-02 8.304129107924888842e-02 1.874277795237857397e-02
1.005219143854210184e-01 -9.848734886365272112e-02 -1.061106189449505521e-01 -4.215786779979106835e-02 1.318203157093591760e-01 1.414996457366304167e-02 -2.564932725719138774e-04 -1.511644233188058906e-01 6.737648381980075596e-02 -9.787979713641992152e-02 2.328113536163667063e-01 -1.127588237827623074e-02 -3.015770560111079024e-01 -2.097436198347567837e-01 5.504038125429763090e-02 8.454451237778431993e-02 2.231989236988821401e-01 -2.025806286794395450e-01 2.568047874566854460e-01 -1.284352524294601061e-01 1.834003003549049271e-01
9.225489144138707132e-02 -1.047346672634190262e-01 4.091602487023779551e-03 -4.734635440815235935e-02 1.437424706316778600e-01 2.565431519773659144e-02 -5.979512272349610941e-03 -1.595072423902999526e-01 2.379371053024068733e-02 -4.354451527135767830e-02 2.046489784995398076e-01 2.187258208932515297e-02 -2.317412603921843728e-01 -2.331880716826982836e-01 4.797241807967662919e-02 8.934676783733092043e-02 2.437476446610293002e-01 -2.476772162134351640e-01 1.470100344873935261e-01 -9.470906103376219853e-02 1.242925878294323244e-01
-2.302849874412548487e-02 2.181916998783749451e-01 -4.707525726841717273e-02 2.555575452100471989e-01 -6.047852200025648217e-02 8.089251714561565554e-02 -8.620256552149098417e-02 -1.377097879415577208e-01 3.618879420713915721e-03 -5.416029256944031312e-03 -9.916905121218637376e-02 3.278568178155590040e-02 -2.357339782434511588e-01 2.446702593956895377e-01 -1.224237042090727257e-01 8.409096974264311519e-02 -2.552541550119368785e-01 2.237297537014402704e-01 1.073255681332137106e-02 8.974960831394045158e-02 -1.715278705718358276e-01
1.057345693654962032e-01 1.886322386102836923e-01 -1.413793695208032941e-01 2.513803764027428000e-01 -3.435379772924646025e-02 9.807638370038192221e-02 -1.433398358433382314e-01 -1.416814741672267342e-01 -1.152260545802764359e-02 -5.570362308060729239e-02 3.549773304232481386e-02 7.000883087598135102e-02 -2.131075486449230949e-01 9.209044366959777406e-02 2.140788086554159045e-02 4.119108150916866995e-02 -1.562219379213049819e-01 1.427242622735791222e-01 1.384492886939347502e-02 1.603679449557187178e-02 -1.793153827366530395e-01
2.369480018344997385e-01 9.667317832308794379e-02 -2.484794518881333070e-01 2.040012147155405020e-01 1.716638305182432295e-02 1.093273777979996142e-01 -1.776137751017939637e-01 -1.280268069474956305e-01 -1.651131733424340831e-02 -1.183768389207533606e-01 2.009287976058975189e-01 1.187670809908312058e-01 -1.759420436881385941e-01 -7.236648124770342361e-02 1.525877861465505803e-01 -5.729446758212237804e-03 -5.061098720602186934e-02 4.406866040514386546e-02 3.671283649679039224e-02 -6.376403215752138309e-02 -1.597601875402160088e-01
2.903314612305751830e-01 -5.172859442055233875e-02 -2.390256076267457674e-01 8.629404537953136445e-02 1.009823989996715271e-01 1.038812152095144603e-01 -1.808528511321277343e-01 -9.135875907147712749e-02 -3.303024513447330723e-02 -2.269031123295393026e-01 2.994027767320063815e-01 1.137456132576330214e-01 -2.136427495232166851e-02 -1.385451908497781215e-01 1.677417665876888841e-01 -6.432062461588514135e-02 6.705447883326400016e-02 -7.366612258110008526e-02 1.168152535756322857e-01 -1.858071616452018349e-01 -3.964661971251721984e-02
2.059584928698919293e-01 -4.579927008605961386e-02 -1.191399938241695100e-01 4.319870186757938935e-02 1.069593915907148113e-01 8.115379267046285428e-02 -1.465171539706329185e-01 -7.482476460547665686e-02 -5.309847829812165687e-02 -2.327363802419862571e-01 1.983055522556602390e-01 4.439930429901664533e-02 8.871062544058129495e-02 -6.143065300164813475e-02 1.058882699251829235e-01 -8.262112136589983002e-02 8.852483751078933649e-02 -8.647823922523155404e-02 1.240067839783988990e-01 -2.117350936639799397e-01 2.727529303079281181e-02
1.027627338198369017e-01 3.300150019875404406e-02 -9.584610578979871343e-03 8.337239777172894550e-02 1.194841617217885787e-01 1.305817123700569182e-01 -1.442391049593642061e-01 -1.429060392821079363e-02 7.115271476699222900e-04 -5.508779240051080162e-02 1.431622240222749920e-01 -5.312136111814862172e-02 -5.786268142773578343e-03 -1.179338892315122816e-01 1.548210979591149172e-01 -4.187998294714900815e-02 -6.892145983712696933e-02 -1.337835074014703252e-01 6.085801685823177126e-02 -9.450198436803503022e-02 -8.962485837824288315e-02
5.669462916501103594e-02 7.643340114233856952e-02 -1.524222585113443051e-01 1.639509317733341687e-01 2.930173386589986564e-02 1.326909427338008318e-01 3.250054641739967554e-02 2.745938403235806088e-05 -1.484318546531139364e-02 -5.749573355422471499e-02 2.215603595187490282e-01 6.014304443204093048e-02 -9.045846151410161240e-02 -1.385699248642342229e-01 1.636868794568432095e-01 -1.324838146460062017e-02 -3.185005726382415109e-02 -1.180311797831774812e-01 -9.194347940075042747e-02 -1.569029203608939549e-01 -7.122419144078431796e-02
9.519098865015031968e-03 2.119784228872779175e-01 -1.455143722327771061e-01 -7.117127813335118180e-02 -3.431552428442383174e-01 2.553768994870028036e-02 -1.415474682593834133e-01 4.838677709940086141e-02 -3.707865308481697597e-02 -5.390205094657420787e-02 2.476301135996268610e-01 -8.299603965986972198e-02 2.439400146154582227e-01 -9.545581229765340292e-02 -2.289423572594479622e-02 1.890095223193575050e-02 -1.279686485891799175e-01 1.858397632359818363e-01 -5.739268373100216147e-03 5.858433872269853959e-02 7.710579609665900447e-02
-5.878257079281978131e-02 1.282950244514521609e-01 -8.996866632138961206e-02 -6.976179926382508611e-02 -1.954056561824003002e-01 6.578342816938417825e-02 -9.831750177477840968e-02 4.201954243827975277e-02 -5.404572420310305852e-02 1.225813642679551563e-01 1.514011190953994113e-01 -1.003578779901715540e-02 2.572949426038697585e-01 -5.600490497395108069e-02 8.859559427563674927e-03 -1.200402913815450390e-01 -1.066018539555519118e-01 2.805310322343972443e-02 -3.297414365885664028e-02 3.629667770470448862e-02 5.135408750312225185e-02
3.231655825996938153e-02 1.027970837609110677e-01 -8.729672427325224637e-02 -2.167188175996504970e-02 -1.714910523715227827e-02 1.259137199286909925e-01 6.159227255972622717e-02 6.460786828480788446e-02 -1.839202288791580431e-01 2.562320484691341452e-02 9.951836131655306117e-02 -1.534557906455509720e-02 -8.829971169937797515e-02 -1.881056252172586540e-01 -2.688510238278245257e-02 2.246573563766457102e-02 -7.233393107899090124e-02 1.509159518887602802e-01 -3.202612642286309375e-02 1.066534817112981329e-02 3.661801420436405080e-02
7.714348847211914550e-02 3.747573428986916005e-02 -1.557332225920099733e-01 -2.003191889959656802e-01 -1.578380306579509340e-01 4.162333540837466483e-02 -3.942283087486025267e-02 1.067468127637676706e-01 3.338685717242163148e-02 1.134519932523431890e-02 -1.326694483095957298e-02 -2.357490963312892235e-02 7.167562577115899058e-02 -3.636105813318484328e-03 9.529280434375344069e-03 7.489644696753866571e-02 -7.069454414577816537e-02 8.644352932968503433e-02 4.681259334774809551e-03 1.012130783943703399e-01 8.325129880282219202e-03
6.356703421701957735e-02 4.140299184923860315e-02 -1.497537103196603658e-01 -2.041555837621044367e-01 -1.436672915690274666e-01 2.753559153635797702e-02 -5.028419996720982083e-02 9.789198416641181622e-02 9.478531995982958369e-02 -6.179904069304854126e-04 -5.820566661780287795e-03 -1.833494953522383022e-02 1.323344849620549657e-01 1.869294996899401040e-02 5.251720324736926931e-02 6.540671010305260102e-02 -7.690710122793047165e-02 1.240038014984852846e-02 -6.250455145882373269e-03 6.840708489616127708e-02 -1.914983503852116936e-02
4.156399434250698799e-02 4.455120508634170806e-02 -1.304229724477574681e-01 -1.942127670610844792e-01 -1.147552855525306725e-01 3.901597947698755547e-03 -5.607185650580525510e-02 7.852879896993136821e-02 1.416933526648137542e-01 -1.070304054658996126e-02 1.263820721192653387e-02 -8.446794491931208099e-03 1.832861947871749497e-01 2.466330911333283749e-02 8.477143796155735267e-02 5.344172059852613649e-02 -7.211908968107481888e-02 -5.373462069487128234e-02 -1.730429703679583001e-02 2.649285485207304031e-02 -3.776194951744239747e-02
-2.195811241415852599e-01 9.598679656641394276e-02 -2.930528198855573280e-02 5.832856535907130283e-03 -1.289779095075377635e-01 -2.625579912100717284e-02 3.493049621599346455e-03 -5.155936439648774704e-03 7.127350520349412522e-02 -3.439344414327070998e-02 1.328014487568074664e-01 -6.531708143944138512e-02 1.706158487830757020e-01 4.061618279478334398e-02 4.774312708079969658e-02 1.158680590927183701e-01 -6.007007651829202738e-02 -1.987462907959998415e-02 -4.183529717051207714e-02 -7.520050565252617281e-02 2.173615934431045657e-02
2.801585307775986688e-01 2.866013044558425316e-01 -2.072299034882440702e-02 -1.362413793827037534e-01 -2.144680737062117440e-02 5.120969433764873541e-02 -1.149853993044872361e-02 7.963709879024863381e-02 -5.304762187338756679e-02 8.009578363213745722e-02 1.326776758403919350e-02 2.213678867201851128e-02 -1.036432853033014967e-01 -3.723538240427806678e-01 1.152995881367675918e-01 1.887513835406263302e-02 1.676559945791383788e-02 -1.374244983111990726e-01 -1.277462481473448097e-01 -2.471138874642320269e-03 2.254903938697621832e-02
2.328885895617161528e-01 1.734985698857985648e-01 -4.009080353137772085e-02 -1.987079299336624860e-01 -2.123289156991965687e-02 6.586822315865263622e-02 -1.118255132580670171e-02 7.751326455934141879e-02 -1.139420455553925710e-01 9.329515986643313608e-02 8.424168782241623146e-03 3.430227281763518349e-02 -6.248603951453224510e-03 -2.896512501219983826e-01 1.459332049723717772e-01 -7.265732446134953205e-03 -2.466767998906832602e-03 -1.627064663183395710e-01 -1.027789317710919303e-01 5.391490646344328924e-02 7.063556303438281447e-02
8.294708585163225456e-02 5.933037007764507820e-02 -2.302474493319970911e-03 6.957673124297779343e-02 7.936322485886970757e-02 1.453827317400377128e-01 1.086507148120786394e-02 -2.214451740876020591e-01 -3.196997866738569005e-01 -1.935394979316169550e-01 -5.853157968146783380e-02 7.973140686200021199e-02 -1.150889119263170668e-01 9.331845406299990597e-02 4.089766719214874696e-02 1.064353493010635754e-01 -3.518786366371247365e-02 -1.016212667659974062e-01 3.880412055898509183e-02 8.315256843326765401e-02 1.576117735610551018e-01
-1.841000518491227589e-01 3.087525941508893479e-01 -1.482989286086876246e-01 1.749976774189358764e-01 -1.764849064544861679e-01 1.232285624092121917e-01 -6.490241388731228522e-02 8.203634961455905095e-02 1.888290308625155747e-02 3.634167201374627343e-02 -1.035453776868265757e-01 -4.189258135368070790e-02 1.250774428453234888e-01 1.351144647739600801e-01 1.355091805639083713e-01 -4.108592338117958431e-02 -4.508589174396054888e-02 -5.687275520674903856e-02 -4.632840316039101014e-02 -2.007872326541352004e-01 -3.055648373438970070e-02
-2.519925561160484273e-01 3.100102750772253390e-01 -1.347653089357958300e-01 2.084592508554005963e-01 -2.114848224615726857e-01 1.512344087526411862e-01 -6.136426711253619576e-02 7.464633003133380740e-02 4.353752187018089179e-03 3.292313296792012678e-02 -1.007261628374369888e-01 -3.923534601684156020e-02 1.376677761124295574e-01 1.729536502367519102e-01 1.274554563557661890e-01 -1.754860327937585521e-02 -4.077523124948762012e-02 -8.046190875256889474e-02 -4.814473342778979870e-02 -2.046240902188812549e-01 -2.858105359021916037e-02
-2.614899548685884478e-01 2.429547678026118263e-01 -1.178722341726081702e-01 1.889944042315194472e-01 -1.999231362322630157e-01 1.454731831567285527e-01 -6.856196816339997502e-02 6.367928859032039035e-02 2.163480644931462145e-03 2.729920429216930663e-02 -7.700356902651606106e-02 -2.138813479163068423e-02 1.471248085420006624e-01 2.015945591135135384e-01 1.166881896468982827e-01 6.688982537320480861e-04 -4.077672248944443079e-02 -9.518019001598029827e-02 -3.403544370950052633e-02 -1.905251877582222197e-01 -2.988434589040664044e-02
-1.714636444095578860e-01 -6.483505097891829883e-02 -1.378167972639759431e-01 5.469071119545861753e-02 -7.154434523289192327e-02 7.326539040925708623e-02 -1.118856770770143144e-01 3.116372692921763263e-02 2.251571788725156148e-02 2.549192430864635414e-02 5.045980632764146545e-02 7.509565605694194790e-02 1.470828481349399919e-01 2.095628198455100621e-01 9.425875798887201062e-02 1.366340897120204775e-02 -5.175661944732692921e-02 -1.057096296627701715e-01 4.242048029839266821e-02 -1.030503888652994499e-01 -2.160909541557645697e-02
-2.759817219247666376e-02 5.988331156921800763e-02 -1.052095500565629060e-01 3.813342253289137007e-02 5.885595008310849641e-02 9.133474496596569181e-02 -1.161831735222133011e-01 -4.691507752822841187e-02 -4.468515957211754291e-02 2.386097059449972593e-02 3.006961959952384605e-02 7.720174967456983062e-02 -7.903468926976346676e-02 -1.825318844793647199e-01 -4.804014094254294848e-02 6.716606471968762648e-02 -2.329239679441398592e-02 -5.897483790311375956e-02 9.365557713737469869e-02 1.039304775501567607e-01 8.837319383380164151e-02
-1.444800687675582701e-02 3.409990641328884964e-01 2.560973226523461689e-03 6.110489420418560580e-02 5.533682947329865431e-02 1.081941382749563446e-01 -2.138751772682096625e-02 1.444178480659119232e-02 -1.236624618145774207e-01 1.305842834734307137e-02 -6.352034297975106547e-02 -1.278918240203702830e-03 -1.779250842982956493e-01 -4.587657288009678314e-01 -6.406284579162631332e-02 6.958537015031381057e-02 -1.201245207280712650e-02 -3.295640304557730799e-02 7.001196762209740965e-02 1.235208454407476369e-01 1.112055688125724168e-01
4.077065468548222299e-02 -3.871197221406751793e-02 1.544204686314068486e-03 1.226899676744651682e-02 2.196056524677714519e-02 1.016551024863968367e-01 -1.557925122358101711e-01 8.857985912298899089e-02 1.027172767121878189e-01 6.571380269002122590e-03 -7.432072550007370881e-02 -1.756072346068002221e-01 -1.057216624265596427e-01 1.450903458643673094e-01 8.817588736089498891e-02 1.642724739612636264e-01 -1.999922989130186735e-01 -1.347535847044112334e-01 3.763066897917533710e-02 5.739427781509393034e-02 1.626839948748524250e-02
2.720664457071191727e-02 -8.119570165545607343e-02 -5.376984481109257225e-02 -2.878926154143079952e-02 -6.230107433781990195e-02 -9.708332073327911524e-03 1.087663630418329030e-01 9.300349389970742620e-02 1.703297363996374436e-01 -8.285036094270928353e-02 2.019990965183497689e-01 4.426205880092232842e-02 8.491624250357067416e-02 -1.013761377703377570e-01 -2.804941111899492134e-01 -6.007712134153628258e-02 -1.093967975890926536e-01 1.756531545130565752e-02 -4.917250629043912885e-02 5.926712093464919784e-02 1.118151774225042694e-01
4.842570360448044536e-02 -2.362653738887515384e-02 5.804872646786513740e-02 -4.224168576977748064e-03 6.334355391176746397e-02 6.216742838444894170e-02 -1.111703961184186233e-02 2.547726901941560138e-02 -1.606683012518479170e-01 7.335661315696008489e-02 -1.560985763814292659e-01 7.978560572112025628e-02 -1.942699998221856378e-02 6.979620062696674510e-02 1.127012310671888368e-01 4.446862124597472654e-02 1.157302479518818317e-01 -9.317010139833070692e-02 -1.314827298363770713e-01 -9.462220916179467367e-02 -5.886458899044451354e-02
-8.802866598171026069e-02 2.945570696254423138e-01 3.229155170855564361e-01 1.718505954673172353e-01 -1.274141130135152122e-01 4.965561661437920687e-02 -3.416684766072953239e-01 -3.527664386321034962e-01 -9.953702752704696177e-02 -5.458961541080016577e-02 1.040500852791066966e-01 3.328519574502093042e-02 9.843983487330459914e-02 -1.138038230380162136e-01 -1.358954631347905340e-01 -2.294864027333474651e-03 1.238403821680455208e-01 -2.109678249951656703e-01 2.162911402644499270e-01 7.153683761104037697e-02 4.054398621204657882e-02
1.213737684353411034e-01 -1.060041238432070931e-01 -1.335037199323316492e-01 7.591542665664953449e-03 -2.460669341704140034e-02 -1.842163685657542127e-01 8.759034427854206495e-02 6.237537922532319923e-02 2.311272809065170394e-02 -3.913533009560011405e-02 -5.086850891994330881e-02 5.696917158326714192e-02 -1.291948592102203953e-02 1.534815016792891521e-02 1.193211023458211339e-01 -1.327706983604566016e-01 1.031777099043708346e-01 1.451219704358652496e-01 -3.173014100246936142e-02 5.780868825688564383e-04 -2.680493537958686390e-02
1.000095449050869140e-01 -9.714482152598080678e-02 -1.757607294782170537e-01 -3.477319611158338070e-02 4.518755317136124300e-02 -1.289688078015944483e-01 1.848681946930841036e-01 1.104183998036448178e-01 1.028261372290351951e-02 1.683687044343602779e-02 -1.522837788836305661e-01 4.028785289394700569e-02 -8.900491393274831409e-02 9.148633722088589382e-02 1.835594002316766615e-01 -1.380530302419621935e-01 -4.392807247266359433e-02 2.304882588739887439e-01 -3.988346975531317784e-02 4.626438268638298490e-02 -1.598886398647718643e-01
-8.493331462997282671e-03 2.187448470582177562e-02 -1.433359277662100140e-01 -6.305188794504174021e-02 1.025893900303741918e-01 6.698238509466219234e-04 1.431941057041103138e-01 6.195330689547751124e-02 2.321243547948830151e-03 1.127264278802522432e-02 -1.107338227655446095e-01 -3.559456079538272921e-02 -1.118056129179536701e-01 1.007719798995584115e-01 1.074199276270327713e-01 -1.011060690719520899e-02 -2.370612846491501058e-01 2.133628077878755580e-01 3.899469074105235689e-02 6.060594588346282507e-02 -1.448432628301435654e-01
3.892583659270155289e-02 -7.645278726177714979e-02 -4.604337064036973654e-02 1.006687243880659555e-01 2.243740207848511289e-02 -1.393587908013885490e-01 -5.848283156150027584e-02 1.505563059488308764e-01 -7.406742039568534053e-02 1.408557900297593424e-01 -1.752979308709301243e-01 1.276708119743570347e-01 -3.763288012807682048e-02 2.950392543521677957e-02 2.408454345947329267e-01 -4.681958674892487682e-02 1.497361239725834570e-01 -7.369841563947522600e-02 -1.375150525720248706e-01 -1.004830393024089275e-01 -3.534824909217113009e-02
2.051493666381519129e-02 -6.211929732929109826e-02 -4.000168908844124738e-02 1.073875831465901654e-01 -3.395501959596755343e-03 -2.090706592376941064e-01 -4.391022901524930383e-02 1.472093464209317526e-01 -1.027152198294887658e-01 1.420386518479172799e-01 -1.704756208050677568e-01 1.510839992052729341e-01 -2.890691523181663364e-02 9.638603749830013112e-03 2.418107810674659797e-01 -5.888664905739186134e-02 1.772839539610008008e-01 1.138998794600619901e-03 -1.382373783538648204e-01 -9.814153545987443217e-02 -4.224621091171540388e-02
-8.373466623709966902e-03 -3.457964344960248737e-02 -9.159195814748227402e-03 1.067859449571171571e-01 -3.225181787701669051e-02 -2.639772402724183675e-01 -4.010545882060847361e-02 1.138978739994304240e-01 -1.159203553353417987e-01 1.102857308695558980e-01 -1.205544606342408009e-01 1.648869162455382231e-01 8.827729167795828752e-03 -3.945316989467127777e-02 2.035693207708068886e-01 -6.998065158300433020e-02 1.945849085634106801e-01 7.131993933042524159e-02 -1.074398279671461148e-01 -8.164369070730981282e-02 -5.071933350219448577e-02
-2.519681306339971607e-05 -5.392169417635015588e-02 6.763246287169791260e-02 -1.278979946684674456e-02 -1.446743927605513014e-01 1.097032216891840745e-01 3.073820932085103222e-02 -2.849193914728268343e-02 -6.457171857137203493e-03 9.321622699285697644e-02 -9.622956014696967819e-02 -3.261578327061412375e-02 -1.548504085375764228e-01 5.253689789921271031e-02 -1.616330306597712763e-01 -6.781747947047772097e-03 1.436866262663985712e-02 -5.667040937122969080e-02 5.049271645082632071e-02 2.564120257053013052e-01 8.004065917580283074e-02
4.713033030268431317e-02 -1.079212413628594797e-01 7.235696816522030339e-02 1.038530359165374360e-02 -7.538166559624527065e-03 2.340822500140441187e-01 1.054068051074021073e-01 5.945069771553967986e-02 -9.247693192874982884e-03 7.105511568292215141e-02 -1.365055859653971082e-01 -1.362252328535161761e-01 -2.207773042752195214e-01 1.646921294539379077e-01 -1.616161642216390470e-01 1.883163528497766234e-02 -2.459738602282818612e-02 -4.979003389876232588e-02 -3.203188569442044081e-02 5.241955274123172304e-02 5.043985456546064977e-02
5.885276191492495867e-02 -1.029951101427624000e-01 8.053559657526246363e-02 -1.255150960616144978e-02 6.703195596770936127e-02 2.272879036604646685e-01 1.104091438314990931e-01 7.190239708872958602e-02 -9.150196952939868705e-03 4.910493769377523299e-02 -1.275034845667890604e-01 -1.877987383185599490e-01 -1.977335845991210761e-01 1.741298786082053907e-01 -1.042131446550741414e-01 3.363594566727695634e-02 -6.209651735339907774e-02 -2.536804854809588533e-02 -4.171764348012624996e-02 -2.046917102376126507e-02 1.870667966101019139e-02
6.007213340099108040e-02 -8.087590781782079408e-02 7.293022137344638833e-02 -4.995520157949628198e-02 1.356651951166315262e-01 1.899869015558800223e-01 9.707375622872851939e-02 6.813804463912515041e-02 -1.219906275567871241e-02 2.944160188943547446e-02 -1.120917253013919423e-01 -2.248942578415091265e-01 -1.589725557326811256e-01 1.649671346708013187e-01 -3.042268351481629274e-02 5.313647920598666557e-02 -1.146445738412541493e-01 1.343370659578529795e-02 -3.079621341296433223e-02 -6.115821888815856089e-02 -8.834928257242516056e-03
5.206726015695141430e-02 -9.512244303420437641e-02 -1.781686192098635158e-01 1.473628927144160772e-01 -2.279782449163342828e-01 -3.313795893921596680e-01 -9.105305488033037242e-02 7.096353298074681293e-02 9.227905981310094430e-02 2.476785017651220860e-02 -2.963541166175374594e-02 5.119992414482823356e-03 8.124429550922119408e-03 1.159775366743754643e-01 8.874574671266763359e-02 -6.870049921318119313e-02 2.549249509359534094e-01 2.702287752817176814e-01 -7.256892992735770875e-02 -8.912986955671577116e-02 5.317468580212157681e-02
2.588406899522081514e-02 3.374880682097399220e-01 1.664432051177092420e-01 -2.634023415580330138e-02 7.554842736107099388e-02 -6.772903351441844633e-03 3.429085711865544062e-02 -3.740429361152430299e-01 -1.420015765372668326e-01 5.837690210249903838e-03 6.320836529637219314e-02 -1.272980019851536748e-01 -6.685280148462185296e-03 4.667545069378873507e-02 1.643748038755415142e-01 3.437416086796708792e-02 -8.532720766684147307e-02 -1.357861912414033423e-01 -6.736126288782776084e-02 -6.355016777888733426e-02 8.104061269994747296e-02
3.821528646431368581e-02 4.655152351117078924e-01 2.453326784689195406e-01 -3.200828296544880325e-02 6.066410424177854505e-02 3.100467847451335648e-02 -8.514003134122764133e-03 -4.879225552807193722e-01 -1.995481150941581794e-01 -1.848402210883769853e-02 8.046915926408305941e-02 -1.224279208186057899e-01 -6.799334294124675764e-03 1.430253384786530149e-03 1.185155242367370021e-01 3.948587432958622356e-02 -1.066394949089445737e-01 -1.588043027278985830e-01 -1.189551829136595990e-02 -1.351675323475956536e-02 8.592750888256009412e-02
2.720366209079828901e-02 -1.626228026145555838e-01 -2.084588909009282842e-02 1.487774109465548472e-02 1.114970805130957171e-01 4.231161978154528852e-02 -8.050042388110865976e-02 1.091396358296435470e-01 1.519105575178873735e-02 8.564139649912183225e-03 -5.387428303013698516e-02 6.882792309638752215e-02 7.391099446642234415e-03 -1.232705228162728726e-02 3.574923837435151769e-02 -6.960357356220042702e-02 -3.122106253445373555e-02 1.299435645126757050e-02 9.206730373923342758e-02 3.940848411803435369e-02 -1.542283557873153077e-01
7.989858000336574895e-02 -8.917800061187361460e-02 2.290606280146435109e-02 -3.912345159801307835e-03 5.227567379643296638e-03 -3.892974466982975640e-02 -3.024743710885697753e-02 -2.644776284110304521e-01 6.144319998611235539e-02 9.421808313349823785e-03 1.945188826287710671e-01 -2.701830096416638072e-01 -6.327413412067442455e-02 8.075470600477908933e-02 -5.341513538964087066e-02 1.068649806748282610e-01 1.182909640680678970e-01 2.182867278590711613e-01 -9.875145260221113164e-02 -4.513649105835725039e-02 5.989189905448655954e-02
5.498736510272953654e-02 -7.749063884965182170e-02 -3.488056538847394972e-02 1.408635547619482842e-02 -3.245663197177488940e-02 -2.458345064254210260e-02 1.009307198218578269e-02 -2.444876082120135963e-01 8.514357946388351195e-02 5.400386664017732541e-02 1.689443230576902766e-01 -1.830955217609727126e-01 -6.668979353072189420e-02 8.967005837555458436e-02 -6.190147345146137375e-02 6.317895187377574329e-02 1.217213816114810776e-01 1.580221730815836723e-01 -1.296598689664087978e-01 -2.590088401128557566e-02 6.129536154211792653e-02
3.358755750178173127e-02 -4.642178563492802001e-02 -5.971495572030052074e-02 2.453058875717643861e-02 -7.611864666731597839e-02 -8.454404957917703925e-03 1.734841717069051867e-02 -1.848172354242150761e-01 7.233979319468321345e-02 9.059781531696245449e-02 9.168667759577366072e-02 -7.969571994717164487e-02 -6.096188943453394876e-02 8.972045200168138335e-02 -6.793415614158150595e-02 2.664275017876652912e-02 1.148131353784415387e-01 9.020525925384817456e-02 -1.317452394908437407e-01 1.113740275056248653e-02 5.325418431843997186e-02
7.998445485605120212e-03 7.867319213540490200e-03 -6.126543389884669955e-02 2.588185784631933176e-02 -1.283452123893090435e-01 -2.571103373816297610e-06 9.759908407006666732e-04 -1.143522908097187041e-01 4.748241719869471938e-02 1.209907254547099575e-01 2.333584844143148269e-03 2.082274915972847848e-02 -4.149863689474457551e-02 8.079748916491939770e-02 -6.927575788203885199e-02 2.511762307948617844e-03 8.663682488132855297e-02 3.044068123843301360e-02 -1.168601964626065914e-01 6.506233651716365751e-02 3.179791528740315981e-02
-3.094472034383595818e-02 8.960485519399459531e-02 -4.810040760562520751e-02 1.960291487505507607e-02 -1.779591771290324198e-01 -6.248655373520701009e-03 -2.522447813570198247e-02 -5.824803840140337086e-02 3.697076958725164370e-02 1.417106304794857885e-01 -6.789939482396750714e-02 1.009112308582842954e-01 -7.580538343225019099e-03 6.348738143449873805e-02 -6.688550591953679181e-02 -8.102678016379634071e-03 3.114032988851590453e-02 -1.170592512858074571e-02 -8.946118193746574465e-02 1.198740438373940703e-01 -4.941506418272495656e-03
-2.036339068875571423e-01 3.124920068977677934e-01 7.207563803405732383e-02 -6.798516683251802639e-02 -7.443807065805468914e-02 -9.014308997426931369e-02 -6.003289836350664960e-02 -3.500377266214722838e-02 1.306880532055979260e-01 9.457464374937907259e-02 -6.017235501050244295e-02 2.238879279809974365e-01 1.382673059971360474e-01 -6.298519352352494050e-02 -7.174715386701855345e-03 -3.580066044182784318e-02 -1.502349180271038143e-01 -1.138708774140053531e-01 1.346106827788945137e-01 7.034225156149785663e-02 -2.154628850236087190e-01
-3.933983565795345916e-02 -1.302049943037253410e-01 -1.299134311811345477e-01 -1.510682640526251654e-02 -3.565405612745284336e-02 -6.553274559043709147e-02 5.579793115235886364e-02 6.780632088183537187e-02 -1.494474404857713649e-02 -2.048445366221522679e-01 1.483853176820478514e-01 -1.028827015032591531e-02 1.069368173030927072e-01 -1.211250398949581392e-01 2.127104674398709039e-01 -1.242016736141341865e-01 1.266158368380127519e-01 -2.227677496630931508e-01 2.207581238440508853e-01 -5.582338507575965170e-02 2.307364217716295074e-01