ITEM: TIMESTEP
1990
ITEM: NUMBER OF ATOMS
7
ITEM: BOX BOUNDS xy xz yz ff ff ff
0.0000000000000000e+00 2.4632591066900002e+01 0.0000000000000000e+00
0.0000000000000000e+00 2.4632591066900002e+01 0.0000000000000000e+00
0.0000000000000000e+00 2.4632591066900002e+01 0.0000000000000000e+00
ITEM: ATOMS id type x y z fx fy fz
4 1 11.4573 9.80969 11.7626 0.00334405 0.0093094 -0.0639056
5 1 12.569 11.4616 14.3644 0.0714224 -0.0556702 0.176246
7 1 8.5614 12.1849 12.6782 -0.14939 -0.155073 -0.028299
1 1 10.9341 13.9067 12.9879 0.118439 0.333921 -0.0795401
3 1 13.4725 16.0775 10.5978 -0.0616437 -0.246409 0.10823
6 1 15.2605 9.83918 12.7322 -0.0165596 -0.0245495 -0.0220882
2 1 13.9593 12.9345 11.091 0.0343876 0.138471 -0.0906438
