
7 atoms
1 atom types
   0.0000000000    0.0000000000 xlo xhi
   0.0000000000    0.0000000000 ylo yhi
   0.0000000000    0.0000000000 zlo zhi
   0.0000000000    0.0000000000    0.0000000000 xy xz yz

Atoms # atomic

     1      1    4.5047090000    0.8671610000    1.9249930000
     2      1    5.5235900000    3.5690450000    2.7433730000
     3      1    8.6960340000    0.0000000000    0.5722100000
     4      1    6.6774710000    2.2030730000    0.3459140000
     5      1    4.5376330000    4.2814580000    0.0000000000
     6      1    2.3424190000    2.2613630000    0.3747500000
     7      1    0.0000000000    0.4909560000    0.9751290000
