
7 atoms
1 atom types
   0.0000000000    0.0000000000 xlo xhi
   0.0000000000    0.0000000000 ylo yhi
   0.0000000000    0.0000000000 zlo zhi
   0.0000000000    0.0000000000    0.0000000000 xy xz yz

Atoms # atomic

     1      1    2.9045770000    2.4151100000    1.8896650000
     2      1    5.0294270000    4.1568790000    3.0991660000
     3      1    4.1548530000    0.0000000000    0.6222000000
     4      1    5.6052370000    2.6211900000    0.5973840000
     5      1    4.8384520000    5.5222170000    0.4334660000
     6      1    2.0161830000    4.5767480000    0.0000000000
     7      1    0.0000000000    3.1091660000    1.6577940000
