
7 atoms
1 atom types
   0.0000000000    0.0000000000 xlo xhi
   0.0000000000    0.0000000000 ylo yhi
   0.0000000000    0.0000000000 zlo zhi
   0.0000000000    0.0000000000    0.0000000000 xy xz yz

Atoms # atomic

     1      1    4.8957070000    0.9427910000    1.1592820000
     2      1    7.7138660000    0.0000000000    0.7677620000
     3      1    7.1886970000    2.7248580000    1.8925150000
     4      1    5.0823330000    3.7079710000    0.0000000000
     5      1    2.4182090000    4.4036710000    1.2013930000
     6      1    2.1442270000    1.5788840000    2.1838230000
     7      1    0.0000000000    0.2132520000    0.5910660000
