
7 atoms
1 atom types
   0.0000000000    0.0000000000 xlo xhi
   0.0000000000    0.0000000000 ylo yhi
   0.0000000000    0.0000000000 zlo zhi
   0.0000000000    0.0000000000    0.0000000000 xy xz yz

Atoms # atomic

     1      1    2.7454540000    0.6157390000    1.3420280000
     2      1    3.1107020000    4.0022800000    2.5539150000
     3      1    0.0000000000    0.0000000000    1.9496410000
     4      1    0.8529360000    2.7412820000    1.3480900000
     5      1    3.5355150000    3.1072940000    0.0000000000
     6      1    4.4218680000    1.6934410000    3.2177280000
     7      1    5.6786930000    0.1406770000    1.1734540000
