
7 atoms
1 atom types
   0.0000000000    0.0000000000 xlo xhi
   0.0000000000    0.0000000000 ylo yhi
   0.0000000000    0.0000000000 zlo zhi
   0.0000000000    0.0000000000    0.0000000000 xy xz yz

Atoms # atomic

     1      1    2.9373360000    0.4405350000    2.6783560000
     2      1    4.8453150000    2.7476010000    2.5103240000
     3      1    7.7492010000    2.0087680000    2.6890280000
     4      1    5.7429960000    0.0000000000    1.7127510000
     5      1    3.7827490000    1.4957040000    0.0000000000
     6      1    1.9678460000    3.1203850000    1.7505000000
     7      1    0.0000000000    1.0583010000    2.6845570000
