
7 atoms
1 atom types
   0.0000000000    0.0000000000 xlo xhi
   0.0000000000    0.0000000000 ylo yhi
   0.0000000000    0.0000000000 zlo zhi
   0.0000000000    0.0000000000    0.0000000000 xy xz yz

Atoms # atomic

     1      1    2.7070340000    3.5334310000    1.2686500000
     2      1    2.3476810000    1.0827330000    2.9669050000
     3      1    4.9233450000    1.7944050000    1.8832600000
     4      1    2.8441620000    0.5923930000    0.2948120000
     5      1    0.1457920000    0.0000000000    1.7008030000
     6      1    0.0000000000    2.9407550000    2.6718320000
     7      1    0.5033940000    2.4557250000    0.0000000000
