
7 atoms
1 atom types
   0.0000000000    0.0000000000 xlo xhi
   0.0000000000    0.0000000000 ylo yhi
   0.0000000000    0.0000000000 zlo zhi
   0.0000000000    0.0000000000    0.0000000000 xy xz yz

Atoms # atomic

     1      1    4.5666610000    1.3524620000    0.0000000000
     2      1    6.9194910000    0.4587660000    1.6257610000
     3      1    4.8455180000    4.2742760000    0.6254620000
     4      1    4.8484760000    2.2586340000    2.8429740000
     5      1    1.8864110000    1.8695170000    3.1754110000
     6      1    2.0139150000    0.0000000000    0.8310840000
     7      1    0.0000000000    2.2173500000    0.8710720000
