
7 atoms
1 atom types
   0.0000000000    0.0000000000 xlo xhi
   0.0000000000    0.0000000000 ylo yhi
   0.0000000000    0.0000000000 zlo zhi
   0.0000000000    0.0000000000    0.0000000000 xy xz yz

Atoms # atomic

     1      1    4.3420770000    2.2200160000    0.0000000000
     2      1    6.4595020000    2.8770580000    2.0229130000
     3      1    6.3833330000    0.1607530000    0.7743660000
     4      1    5.1755800000    0.5932980000    3.4889600000
     5      1    2.5389120000    1.2716190000    2.2109590000
     6      1    0.0364900000    0.0000000000    1.1598780000
     7      1    0.0000000000    2.8566130000    2.0554520000
