
7 atoms
1 atom types
   0.0000000000    0.0000000000 xlo xhi
   0.0000000000    0.0000000000 ylo yhi
   0.0000000000    0.0000000000 zlo zhi
   0.0000000000    0.0000000000    0.0000000000 xy xz yz

Atoms # atomic

     1      1    3.0850930000    1.3308010000    1.5754380000
     2      1    0.0000000000    5.4280420000    0.9268250000
     3      1    0.4755000000    0.0000000000    0.9310600000
     4      1    0.4990130000    2.7384200000    2.1534830000
     5      1    2.7289450000    4.1922350000    0.7655620000
     6      1    4.7523610000    3.4704430000    2.8642680000
     7      1    5.2279430000    2.7193200000    0.0000000000
