
7 atoms
1 atom types
   0.0000000000    0.0000000000 xlo xhi
   0.0000000000    0.0000000000 ylo yhi
   0.0000000000    0.0000000000 zlo zhi
   0.0000000000    0.0000000000    0.0000000000 xy xz yz

Atoms # atomic

     1      1    4.4635260000    1.3210810000    0.0000000000
     2      1    7.0651810000    0.0000000000    0.7010370000
     3      1    8.6239980000    1.3342250000    2.8899310000
     4      1    6.6717120000    2.9196360000    1.2561860000
     5      1    3.8572330000    3.9599240000    1.2789230000
     6      1    2.8528620000    1.4243730000    2.5324420000
     7      1    0.0000000000    0.7761120000    1.8649980000
