
7 atoms
1 atom types
   0.0000000000    0.0000000000 xlo xhi
   0.0000000000    0.0000000000 ylo yhi
   0.0000000000    0.0000000000 zlo zhi
   0.0000000000    0.0000000000    0.0000000000 xy xz yz

Atoms # atomic

     1      1    7.3981450000    3.8214420000    0.4443020000
     2      1    0.0000000000    2.9358140000    1.9079640000
     3      1    2.8988060000    0.0000000000    0.0000000000
     4      1    2.8809520000    2.1309030000    2.1106010000
     5      1    5.8333810000    2.3843760000    2.5642710000
     6      1    8.0015270000    0.3084560000    2.6173430000
     7      1    9.8242120000    2.2264270000    1.2023290000
