
7 atoms
1 atom types
   0.0000000000    0.0000000000 xlo xhi
   0.0000000000    0.0000000000 ylo yhi
   0.0000000000    0.0000000000 zlo zhi
   0.0000000000    0.0000000000    0.0000000000 xy xz yz

Atoms # atomic

     1      1    4.4565580000    1.7219620000    3.6971480000
     2      1    5.9224290000    0.0632490000    1.6720840000
     3      1    5.6796680000    4.0392830000    2.2348240000
     4      1    4.7477020000    2.2628120000    0.0000000000
     5      1    0.7401390000    4.5145290000    1.8315990000
     6      1    2.2619830000    1.9429190000    1.6571480000
     7      1    0.0000000000    0.0000000000    1.8956550000
