
7 atoms
1 atom types
   0.0000000000    0.0000000000 xlo xhi
   0.0000000000    0.0000000000 ylo yhi
   0.0000000000    0.0000000000 zlo zhi
   0.0000000000    0.0000000000    0.0000000000 xy xz yz

Atoms # atomic

     1      1    1.9438950000    3.2017350000    0.0000000000
     2      1    1.8049970000    0.0000000000    2.3677430000
     3      1    0.0000000000    2.3808590000    2.1296580000
     4      1    1.9510460000    3.5702560000    4.0674140000
     5      1    6.0872250000    0.2731290000    2.1396350000
     6      1    3.8164140000    2.2269410000    2.1373740000
     7      1    5.7254550000    4.5382230000    2.1423100000
