
7 atoms
1 atom types
   0.0000000000    0.0000000000 xlo xhi
   0.0000000000    0.0000000000 ylo yhi
   0.0000000000    0.0000000000 zlo zhi
   0.0000000000    0.0000000000    0.0000000000 xy xz yz

Atoms # atomic

     1      1    1.9994950000    2.9843040000    0.0023580000
     2      1    3.2410880000    3.8459660000    2.5866320000
     3      1    4.9814080000    3.0674300000    0.3024440000
     4      1    5.5788610000    0.7979220000    2.1695180000
     5      1    0.0000000000    2.0822770000    2.0618050000
     6      1    2.6549870000    0.9061570000    2.8446300000
     7      1    2.2973400000    0.0000000000    0.0000000000
