
7 atoms
1 atom types
   0.0000000000    0.0000000000 xlo xhi
   0.0000000000    0.0000000000 ylo yhi
   0.0000000000    0.0000000000 zlo zhi
   0.0000000000    0.0000000000    0.0000000000 xy xz yz

Atoms # atomic

     1      1    6.5005910000    3.6802920000    2.1985940000
     2      1    5.0640460000    0.0000000000    3.4589380000
     3      1    7.8022270000    1.0485880000    2.8207600000
     4      1    7.0285680000    0.3693410000    0.0000000000
     5      1    4.5513710000    1.7103340000    1.0433700000
     6      1    1.9282710000    2.8442260000    1.9365530000
     7      1    0.0000000000    0.5613700000    1.8070600000
