
7 atoms
1 atom types
   0.0000000000    0.0000000000 xlo xhi
   0.0000000000    0.0000000000 ylo yhi
   0.0000000000    0.0000000000 zlo zhi
   0.0000000000    0.0000000000    0.0000000000 xy xz yz

Atoms # atomic

     1      1    2.9674610000    0.0000000000    0.0842440000
     2      1    7.2610640000    0.7750430000    1.9156960000
     3      1    8.9922960000    3.0293170000    0.9569170000
     4      1    6.5045480000    4.5775090000    0.3011170000
     5      1    4.7907700000    2.2039970000    0.9785680000
     6      1    2.0297360000    2.8428920000    0.0000000000
     7      1    0.0000000000    3.5566080000    2.0893320000
