
7 atoms
1 atom types
   0.0000000000    0.0000000000 xlo xhi
   0.0000000000    0.0000000000 ylo yhi
   0.0000000000    0.0000000000 zlo zhi
   0.0000000000    0.0000000000    0.0000000000 xy xz yz

Atoms # atomic

     1      1    4.3281500000    2.6355580000    0.0000000000
     2      1    2.2892340000    4.7811930000    0.5004040000
     3      1    7.0873680000    3.0650700000    1.0990290000
     4      1    4.7743910000    4.6479990000    2.1711540000
     5      1    0.0000000000    2.9352690000    1.0959150000
     6      1    2.6388560000    2.5552310000    2.4741340000
     7      1    3.6667390000    0.0000000000    1.2790210000
