
7 atoms
1 atom types
   0.0000000000    0.0000000000 xlo xhi
   0.0000000000    0.0000000000 ylo yhi
   0.0000000000    0.0000000000 zlo zhi
   0.0000000000    0.0000000000    0.0000000000 xy xz yz

Atoms # atomic

     1      1    4.2970340000    0.0490550000    2.0463780000
     2      1    0.0000000000    4.2278850000    1.8960360000
     3      1    0.0397980000    0.0000000000    1.8826760000
     4      1    2.1561960000    2.1350960000    1.7763960000
     5      1    4.5673180000    2.2201980000    0.0000000000
     6      1    4.2972830000    4.1851290000    2.2457050000
     7      1    3.8315610000    2.0150370000    4.2607370000
