
7 atoms
1 atom types
   0.0000000000    0.0000000000 xlo xhi
   0.0000000000    0.0000000000 ylo yhi
   0.0000000000    0.0000000000 zlo zhi
   0.0000000000    0.0000000000    0.0000000000 xy xz yz

Atoms # atomic

     1      1    1.3401300000    0.0000000000    0.0000000000
     2      1    4.7880590000    2.0840410000    3.6091160000
     3      1    5.3236580000    2.0329900000    0.6644450000
     4      1    2.4971180000    2.2153200000    1.6678650000
     5      1    0.1072840000    0.6858020000    2.6414310000
     6      1    0.0000000000    3.6772160000    2.4679790000
     7      1    1.8315010000    4.8653710000    0.4206750000
