
7 atoms
1 atom types
   0.0000000000    0.0000000000 xlo xhi
   0.0000000000    0.0000000000 ylo yhi
   0.0000000000    0.0000000000 zlo zhi
   0.0000000000    0.0000000000    0.0000000000 xy xz yz

Atoms # atomic

     1      1    0.0000000000    2.2835170000    0.7241410000
     2      1    1.4808730000    4.7713470000    1.5037600000
     3      1    5.6912360000    1.6531030000    0.0000000000
     4      1    2.9689060000    2.1911080000    1.1473370000
     5      1    3.8426850000    4.1490880000    3.2448450000
     6      1    3.2725790000    1.3024580000    3.9997610000
     7      1    1.2320900000    0.0000000000    2.2301950000
