
7 atoms
1 atom types
   0.0000000000    0.0000000000 xlo xhi
   0.0000000000    0.0000000000 ylo yhi
   0.0000000000    0.0000000000 zlo zhi
   0.0000000000    0.0000000000    0.0000000000 xy xz yz

Atoms # atomic

     1      1    5.4183850000    4.3633890000    0.0000000000
     2      1    6.1341540000    4.9044350000    2.8612940000
     3      1    8.3687820000    0.3345890000    1.2027710000
     4      1    5.7887350000    0.0000000000    2.6938000000
     5      1    4.3578460000    2.5888120000    2.1728290000
     6      1    1.4173010000    2.8794280000    2.6995370000
     7      1    0.0000000000    0.9123760000    0.9325490000
