
7 atoms
1 atom types
   0.0000000000    0.0000000000 xlo xhi
   0.0000000000    0.0000000000 ylo yhi
   0.0000000000    0.0000000000 zlo zhi
   0.0000000000    0.0000000000    0.0000000000 xy xz yz

Atoms # atomic

     1      1    2.7693680000    2.5779490000    0.8239220000
     2      1    1.6015080000    2.6120500000    3.5919050000
     3      1    0.0000000000    3.6321240000    1.2679330000
     4      1    0.3933150000    0.9414370000    0.0000000000
     5      1    2.1785980000    0.0000000000    2.2247220000
     6      1    4.9999280000    0.6780810000    1.4627570000
     7      1    5.5818520000    3.5920650000    1.0610670000
