 Set GAUSS_MDEF to "14GB".
 Entering Gaussian System, Link 0=g16
 Initial command:
 /home/sekinelabo/g16/l1.exe "/home/sekinelabo/g16temp/Gau-181161.inp" -scrdir="/home/sekinelabo/g16temp/"
 Entering Link 1 = /home/sekinelabo/g16/l1.exe PID=    181163.
  
 Copyright (c) 1988-2017, Gaussian, Inc.  All Rights Reserved.
  
 This is part of the Gaussian(R) 16 program.  It is based on
 the Gaussian(R) 09 system (copyright 2009, Gaussian, Inc.),
 the Gaussian(R) 03 system (copyright 2003, Gaussian, Inc.),
 the Gaussian(R) 98 system (copyright 1998, Gaussian, Inc.),
 the Gaussian(R) 94 system (copyright 1995, Gaussian, Inc.),
 the Gaussian 92(TM) system (copyright 1992, Gaussian, Inc.),
 the Gaussian 90(TM) system (copyright 1990, Gaussian, Inc.),
 the Gaussian 88(TM) system (copyright 1988, Gaussian, Inc.),
 the Gaussian 86(TM) system (copyright 1986, Carnegie Mellon
 University), and the Gaussian 82(TM) system (copyright 1983,
 Carnegie Mellon University). Gaussian is a federally registered
 trademark of Gaussian, Inc.
  
 This software contains proprietary and confidential information,
 including trade secrets, belonging to Gaussian, Inc.
  
 This software is provided under written license and may be
 used, copied, transmitted, or stored only in accord with that
 written license.
  
 The following legend is applicable only to US Government
 contracts under FAR:
  
                    RESTRICTED RIGHTS LEGEND
  
 Use, reproduction and disclosure by the US Government is
 subject to restrictions as set forth in subparagraphs (a)
 and (c) of the Commercial Computer Software - Restricted
 Rights clause in FAR 52.227-19.
  
 Gaussian, Inc.
 340 Quinnipiac St., Bldg. 40, Wallingford CT 06492
  
  
 ---------------------------------------------------------------
 Warning -- This program may not be used in any manner that
 competes with the business of Gaussian, Inc. or will provide
 assistance to any competitor of Gaussian, Inc.  The licensee
 of this program is prohibited from giving any competitor of
 Gaussian, Inc. access to this program.  By using this program,
 the user acknowledges that Gaussian, Inc. is engaged in the
 business of creating and licensing software in the field of
 computational chemistry and represents and warrants to the
 licensee that it is not a competitor of Gaussian, Inc. and that
 it will not use this program in any manner prohibited above.
 ---------------------------------------------------------------
  

 Cite this work as:
 Gaussian 16, Revision B.01,
 M. J. Frisch, G. W. Trucks, H. B. Schlegel, G. E. Scuseria, 
 M. A. Robb, J. R. Cheeseman, G. Scalmani, V. Barone, 
 G. A. Petersson, H. Nakatsuji, X. Li, M. Caricato, A. V. Marenich, 
 J. Bloino, B. G. Janesko, R. Gomperts, B. Mennucci, H. P. Hratchian, 
 J. V. Ortiz, A. F. Izmaylov, J. L. Sonnenberg, D. Williams-Young, 
 F. Ding, F. Lipparini, F. Egidi, J. Goings, B. Peng, A. Petrone, 
 T. Henderson, D. Ranasinghe, V. G. Zakrzewski, J. Gao, N. Rega, 
 G. Zheng, W. Liang, M. Hada, M. Ehara, K. Toyota, R. Fukuda, 
 J. Hasegawa, M. Ishida, T. Nakajima, Y. Honda, O. Kitao, H. Nakai, 
 T. Vreven, K. Throssell, J. A. Montgomery, Jr., J. E. Peralta, 
 F. Ogliaro, M. J. Bearpark, J. J. Heyd, E. N. Brothers, K. N. Kudin, 
 V. N. Staroverov, T. A. Keith, R. Kobayashi, J. Normand, 
 K. Raghavachari, A. P. Rendell, J. C. Burant, S. S. Iyengar, 
 J. Tomasi, M. Cossi, J. M. Millam, M. Klene, C. Adamo, R. Cammi, 
 J. W. Ochterski, R. L. Martin, K. Morokuma, O. Farkas, 
 J. B. Foresman, and D. J. Fox, Gaussian, Inc., Wallingford CT, 2016.
 
 ******************************************
 Gaussian 16:  ES64L-G16RevB.01 20-Dec-2017
                28-Nov-2023 
 ******************************************
 %nproc=15
 Will use up to   15 processors via shared memory.
 -------------------------
 #P B3LYP/6-311+g(d) force
 -------------------------
 1/10=7,30=1,38=1/1,3;
 2/12=2,17=6,18=5,40=1/2;
 3/5=4,6=6,7=11,11=2,25=1,30=1,71=1,74=-5/1,2,3;
 4//1;
 5/5=2,38=5/2;
 6/7=2,8=2,9=2,10=2,28=1/1;
 7/29=1/1,2,3,16;
 1/10=7,30=1/3;
 99//99;
 Leave Link    1 at Tue Nov 28 23:07:07 2023, MaxMem=           0 cpu:               0.3 elap:               0.0
 (Enter /home/sekinelabo/g16/l101.exe)
 -----
 DPGEN
 -----
 Symbolic Z-matrix:
 Charge =  0 Multiplicity = 2
 Na                    12.9767   16.448    14.1085 
 Na                    12.4258   13.491    12.0105 
 Na                    15.1472   10.6576   11.8266 
 Na                    15.1216   13.3684   13.6283 
 Na                    15.8974   16.7025   15.6955 
 Na                    18.0673   18.959    18.6982 
 Na                    17.7895   17.799    21.4578 
 
 ITRead=  0  0  0  0  0  0  0
 MicOpt= -1 -1 -1 -1 -1 -1 -1
 NAtoms=      7 NQM=        7 NQMF=       0 NMMI=      0 NMMIF=      0
                NMic=       0 NMicF=      0.
                    Isotopes and Nuclear Properties:
 (Nuclear quadrupole moments (NQMom) in fm**2, nuclear magnetic moments (NMagM)
  in nuclear magnetons)

  Atom         1           2           3           4           5           6           7
 IAtWgt=          23          23          23          23          23          23          23
 AtmWgt=  22.9897697  22.9897697  22.9897697  22.9897697  22.9897697  22.9897697  22.9897697
 NucSpn=           3           3           3           3           3           3           3
 AtZEff=  -0.0000000  -0.0000000  -0.0000000  -0.0000000  -0.0000000  -0.0000000  -0.0000000
 NQMom=   10.4000000  10.4000000  10.4000000  10.4000000  10.4000000  10.4000000  10.4000000
 NMagM=    2.2175200   2.2175200   2.2175200   2.2175200   2.2175200   2.2175200   2.2175200
 AtZNuc=  11.0000000  11.0000000  11.0000000  11.0000000  11.0000000  11.0000000  11.0000000
 Leave Link  101 at Tue Nov 28 23:07:07 2023, MaxMem=  1879048192 cpu:               2.3 elap:               0.2
 (Enter /home/sekinelabo/g16/l103.exe)

 GradGradGradGradGradGradGradGradGradGradGradGradGradGradGradGradGradGrad
 Berny optimization.
 Initialization pass.
 Trust Radius=3.00D-01 FncErr=1.00D-07 GrdErr=1.00D-07 EigMax=2.50D+02 EigMin=1.00D-04
 Number of steps in this run=      2 maximum allowed number of steps=      2.
 GradGradGradGradGradGradGradGradGradGradGradGradGradGradGradGradGradGrad

 Leave Link  103 at Tue Nov 28 23:07:07 2023, MaxMem=  1879048192 cpu:               0.2 elap:               0.0
 (Enter /home/sekinelabo/g16/l202.exe)
                          Input orientation:                          
 ---------------------------------------------------------------------
 Center     Atomic      Atomic             Coordinates (Angstroms)
 Number     Number       Type             X           Y           Z
 ---------------------------------------------------------------------
      1         11           0       12.976700   16.448000   14.108500
      2         11           0       12.425800   13.491000   12.010500
      3         11           0       15.147200   10.657600   11.826600
      4         11           0       15.121600   13.368400   13.628300
      5         11           0       15.897400   16.702500   15.695500
      6         11           0       18.067300   18.959000   18.698200
      7         11           0       17.789500   17.799000   21.457800
 ---------------------------------------------------------------------
                    Distance matrix (angstroms):
                    1          2          3          4          5
     1  Na   0.000000
     2  Na   3.667280   0.000000
     3  Na   6.591424   3.932937   0.000000
     4  Na   3.783533   3.146370   3.255029   0.000000
     5  Na   3.333741   5.995412   7.216093   3.998925   0.000000
     6  Na   7.299635  10.317503  11.165085   8.101595   4.337795
     7  Na   8.888220  11.686728  12.277677   9.383442   6.163315
                    6          7
     6  Na   0.000000
     7  Na   3.006354   0.000000
 Stoichiometry    Na7(2)
 Framework group  C1[X(Na7)]
 Deg. of freedom    15
 Full point group                 C1      NOp   1
 Largest Abelian subgroup         C1      NOp   1
 Largest concise Abelian subgroup C1      NOp   1
                         Standard orientation:                         
 ---------------------------------------------------------------------
 Center     Atomic      Atomic             Coordinates (Angstroms)
 Number     Number       Type             X           Y           Z
 ---------------------------------------------------------------------
      1         11           0       -1.186011    2.622372    0.280017
      2         11           0       -4.596442    1.298750    0.536789
      3         11           0       -5.300722   -2.508871   -0.151690
      4         11           0       -2.461736   -0.916866   -0.121790
      5         11           0        1.219553    0.533442   -0.701546
      6         11           0        5.512993    0.090758   -1.133827
      7         11           0        6.812364   -1.119586    1.292047
 ---------------------------------------------------------------------
 Rotational constants (GHZ):           1.0420135           0.1583409           0.1444094
 Leave Link  202 at Tue Nov 28 23:07:07 2023, MaxMem=  1879048192 cpu:               0.0 elap:               0.0
 (Enter /home/sekinelabo/g16/l301.exe)
 Standard basis: 6-311+G(d) (5D, 7F)
 Ernie: Thresh=  0.10000D-02 Tol=  0.10000D-05 Strict=F.
 There are   217 symmetry adapted cartesian basis functions of A   symmetry.
 There are   210 symmetry adapted basis functions of A   symmetry.
   210 basis functions,   350 primitive gaussians,   217 cartesian basis functions
    39 alpha electrons       38 beta electrons
       nuclear repulsion energy       254.9581187639 Hartrees.
 IExCor=  402 DFT=T Ex+Corr=B3LYP ExCW=0 ScaHFX=  0.200000
 ScaDFX=  0.800000  0.720000  1.000000  0.810000 ScalE2=  1.000000  1.000000
 IRadAn=      5 IRanWt=     -1 IRanGd=            0 ICorTp=0 IEmpDi=  4
 NAtoms=    7 NActive=    7 NUniq=    7 SFac= 1.00D+00 NAtFMM=   60 NAOKFM=F Big=F
 Integral buffers will be    131072 words long.
 Raffenetti 2 integral format.
 Two-electron integral symmetry is turned on.
 Leave Link  301 at Tue Nov 28 23:07:07 2023, MaxMem=  1879048192 cpu:               0.5 elap:               0.0
 (Enter /home/sekinelabo/g16/l302.exe)
 NPDir=0 NMtPBC=     1 NCelOv=     1 NCel=       1 NClECP=     1 NCelD=      1
         NCelK=      1 NCelE2=     1 NClLst=     1 CellRange=     0.0.
 One-electron integrals computed using PRISM.
 One-electron integral symmetry used in STVInt
 NBasis=   210 RedAO= T EigKep=  3.34D-06  NBF=   210
 NBsUse=   210 1.00D-06 EigRej= -1.00D+00 NBFU=   210
 Precomputing XC quadrature grid using
 IXCGrd= 4 IRadAn=           5 IRanWt=          -1 IRanGd=           0 AccXCQ= 0.00D+00.
 Generated NRdTot=       0 NPtTot=           0 NUsed=           0 NTot=          32
 NSgBfM=   200   200   200   200   200 MxSgAt=     7 MxSgA2=     7.
 Leave Link  302 at Tue Nov 28 23:07:08 2023, MaxMem=  1879048192 cpu:               2.0 elap:               0.1
 (Enter /home/sekinelabo/g16/l303.exe)
 DipDrv:  MaxL=1.
 Leave Link  303 at Tue Nov 28 23:07:08 2023, MaxMem=  1879048192 cpu:               0.5 elap:               0.0
 (Enter /home/sekinelabo/g16/l401.exe)
 ExpMin= 7.60D-03 ExpMax= 3.62D+04 ExpMxC= 1.21D+03 IAcc=3 IRadAn=         5 AccDes= 0.00D+00
 Harris functional with IExCor=  402 and IRadAn=       5 diagonalized for initial guess.
 HarFok:  IExCor=  402 AccDes= 0.00D+00 IRadAn=         5 IDoV= 1 UseB2=F ITyADJ=14
 ICtDFT=  3500011 ScaDFX=  1.000000  1.000000  1.000000  1.000000
 FoFCou: FMM=F IPFlag=           0 FMFlag=      100000 FMFlg1=           0
         NFxFlg=           0 DoJE=T BraDBF=F KetDBF=T FulRan=T
         wScrn=  0.000000 ICntrl=       500 IOpCl=  0 I1Cent=   200000004 NGrid=           0
         NMat0=    1 NMatS0=      1 NMatT0=    0 NMatD0=    1 NMtDS0=    0 NMtDT0=    0
 Petite list used in FoFCou.
 Harris En= -1135.88549100781    
 JPrj=0 DoOrth=F DoCkMO=F.
 Initial guess <Sx>= 0.0000 <Sy>= 0.0000 <Sz>= 0.5000 <S**2>= 0.7500 S= 0.5000
 Leave Link  401 at Tue Nov 28 23:07:08 2023, MaxMem=  1879048192 cpu:               3.9 elap:               0.3
 (Enter /home/sekinelabo/g16/l502.exe)
 Keep R1 and R2 ints in memory in canonical form, NReq=506573293.
 FoFCou: FMM=F IPFlag=           0 FMFlag=           0 FMFlg1=           0
         NFxFlg=           0 DoJE=F BraDBF=F KetDBF=F FulRan=T
         wScrn=  0.000000 ICntrl=       600 IOpCl=  0 I1Cent=           0 NGrid=           0
         NMat0=    1 NMatS0=  22155 NMatT0=    0 NMatD0=    1 NMtDS0=    0 NMtDT0=    0
 Symmetry not used in FoFCou.
 Two-electron integral symmetry not used.
 UHF open shell SCF:
 Using DIIS extrapolation, IDIIS=  1040.
 NGot=  1879048192 LenX=  1388082607 LenY=  1388035077
 Requested convergence on RMS density matrix=1.00D-08 within 128 cycles.
 Requested convergence on MAX density matrix=1.00D-06.
 Requested convergence on             energy=1.00D-06.
 No special actions if energy rises.

 Cycle   1  Pass 1  IDiag  1:
 E= -1136.09047077281    
 DIIS: error= 9.95D-03 at cycle   1 NSaved=   1.
 NSaved= 1 IEnMin= 1 EnMin= -1136.09047077281     IErMin= 1 ErrMin= 9.95D-03
 ErrMax= 9.95D-03  0.00D+00 EMaxC= 1.00D-01 BMatC= 1.82D-01 BMatP= 1.82D-01
 IDIUse=3 WtCom= 9.00D-01 WtEn= 9.95D-02
 Coeff-Com:  0.100D+01
 Coeff-En:   0.100D+01
 Coeff:      0.100D+01
 Gap=     0.042 Goal=   None    Shift=    0.000
 Gap=     0.044 Goal=   None    Shift=    0.000
 GapD=    0.042 DampG=0.250 DampE=1.000 DampFc=0.2500 IDamp=-1.
 Damping current iteration by 2.50D-01
 RMSDP=5.41D-02 MaxDP=3.87D+00              OVMax= 1.39D-01

 Cycle   2  Pass 1  IDiag  1:
 E= -1136.09856852984     Delta-E=       -0.008097757036 Rises=F Damp=T
 DIIS: error= 6.95D-03 at cycle   2 NSaved=   2.
 NSaved= 2 IEnMin= 2 EnMin= -1136.09856852984     IErMin= 2 ErrMin= 6.95D-03
 ErrMax= 6.95D-03  0.00D+00 EMaxC= 1.00D-01 BMatC= 7.10D-02 BMatP= 1.82D-01
 IDIUse=3 WtCom= 9.30D-01 WtEn= 6.95D-02
 Coeff-Com: -0.132D+01 0.232D+01
 Coeff-En:   0.000D+00 0.100D+01
 Coeff:     -0.123D+01 0.223D+01
 Gap=     0.045 Goal=   None    Shift=    0.000
 Gap=     0.046 Goal=   None    Shift=    0.000
 RMSDP=2.76D-02 MaxDP=1.93D+00 DE=-8.10D-03 OVMax= 9.17D-02

 Cycle   3  Pass 1  IDiag  1:
 E= -1136.11530406356     Delta-E=       -0.016735533722 Rises=F Damp=F
 DIIS: error= 7.86D-04 at cycle   3 NSaved=   3.
 NSaved= 3 IEnMin= 3 EnMin= -1136.11530406356     IErMin= 3 ErrMin= 7.86D-04
 ErrMax= 7.86D-04  0.00D+00 EMaxC= 1.00D-01 BMatC= 4.17D-04 BMatP= 7.10D-02
 IDIUse=3 WtCom= 9.92D-01 WtEn= 7.86D-03
 Coeff-Com: -0.486D-01 0.814D-01 0.967D+00
 Coeff-En:   0.000D+00 0.000D+00 0.100D+01
 Coeff:     -0.482D-01 0.807D-01 0.967D+00
 Gap=     0.043 Goal=   None    Shift=    0.000
 Gap=     0.048 Goal=   None    Shift=    0.000
 RMSDP=4.27D-03 MaxDP=3.01D-01 DE=-1.67D-02 OVMax= 5.31D-02

 Cycle   4  Pass 1  IDiag  1:
 E= -1136.11520897100     Delta-E=        0.000095092567 Rises=F Damp=F
 DIIS: error= 8.72D-04 at cycle   4 NSaved=   4.
 NSaved= 4 IEnMin= 3 EnMin= -1136.11530406356     IErMin= 3 ErrMin= 7.86D-04
 ErrMax= 8.72D-04  0.00D+00 EMaxC= 1.00D-01 BMatC= 5.96D-04 BMatP= 4.17D-04
 IDIUse=3 WtCom= 2.53D-01 WtEn= 7.47D-01
 Coeff-Com: -0.530D-02 0.664D-02 0.547D+00 0.452D+00
 Coeff-En:   0.000D+00 0.000D+00 0.545D+00 0.455D+00
 Coeff:     -0.134D-02 0.168D-02 0.546D+00 0.454D+00
 Gap=     0.044 Goal=   None    Shift=    0.000
 Gap=     0.047 Goal=   None    Shift=    0.000
 RMSDP=2.41D-03 MaxDP=1.70D-01 DE= 9.51D-05 OVMax= 3.17D-02

 Cycle   5  Pass 1  IDiag  1:
 E= -1136.11581214675     Delta-E=       -0.000603175758 Rises=F Damp=F
 DIIS: error= 1.17D-04 at cycle   5 NSaved=   5.
 NSaved= 5 IEnMin= 5 EnMin= -1136.11581214675     IErMin= 5 ErrMin= 1.17D-04
 ErrMax= 1.17D-04  0.00D+00 EMaxC= 1.00D-01 BMatC= 8.02D-06 BMatP= 4.17D-04
 IDIUse=3 WtCom= 9.99D-01 WtEn= 1.17D-03
 Coeff-Com:  0.305D-02-0.508D-02 0.830D-01 0.100D+00 0.819D+00
 Coeff-En:   0.000D+00 0.000D+00 0.000D+00 0.000D+00 0.100D+01
 Coeff:      0.305D-02-0.508D-02 0.829D-01 0.999D-01 0.819D+00
 Gap=     0.045 Goal=   None    Shift=    0.000
 Gap=     0.047 Goal=   None    Shift=    0.000
 RMSDP=6.64D-04 MaxDP=5.08D-02 DE=-6.03D-04 OVMax= 7.43D-03

 Cycle   6  Pass 1  IDiag  1:
 E= -1136.11583006454     Delta-E=       -0.000017917785 Rises=F Damp=F
 DIIS: error= 9.04D-05 at cycle   6 NSaved=   6.
 NSaved= 6 IEnMin= 6 EnMin= -1136.11583006454     IErMin= 6 ErrMin= 9.04D-05
 ErrMax= 9.04D-05  0.00D+00 EMaxC= 1.00D-01 BMatC= 3.44D-06 BMatP= 8.02D-06
 IDIUse=1 WtCom= 1.00D+00 WtEn= 0.00D+00
 Coeff-Com:  0.193D-02-0.309D-02-0.918D-01-0.602D-01 0.360D+00 0.794D+00
 Coeff:      0.193D-02-0.309D-02-0.918D-01-0.602D-01 0.360D+00 0.794D+00
 Gap=     0.045 Goal=   None    Shift=    0.000
 Gap=     0.048 Goal=   None    Shift=    0.000
 RMSDP=5.95D-04 MaxDP=4.64D-02 DE=-1.79D-05 OVMax= 5.49D-03

 Cycle   7  Pass 1  IDiag  1:
 E= -1136.11583876791     Delta-E=       -0.000008703371 Rises=F Damp=F
 DIIS: error= 4.37D-05 at cycle   7 NSaved=   7.
 NSaved= 7 IEnMin= 7 EnMin= -1136.11583876791     IErMin= 7 ErrMin= 4.37D-05
 ErrMax= 4.37D-05  0.00D+00 EMaxC= 1.00D-01 BMatC= 7.07D-07 BMatP= 3.44D-06
 IDIUse=1 WtCom= 1.00D+00 WtEn= 0.00D+00
 Coeff-Com: -0.240D-03 0.405D-03-0.604D-01-0.476D-01-0.754D-01 0.313D+00
 Coeff-Com:  0.870D+00
 Coeff:     -0.240D-03 0.405D-03-0.604D-01-0.476D-01-0.754D-01 0.313D+00
 Coeff:      0.870D+00
 Gap=     0.045 Goal=   None    Shift=    0.000
 Gap=     0.048 Goal=   None    Shift=    0.000
 RMSDP=3.83D-04 MaxDP=2.82D-02 DE=-8.70D-06 OVMax= 2.89D-03

 Cycle   8  Pass 1  IDiag  1:
 E= -1136.11584121446     Delta-E=       -0.000002446548 Rises=F Damp=F
 DIIS: error= 1.57D-05 at cycle   8 NSaved=   8.
 NSaved= 8 IEnMin= 8 EnMin= -1136.11584121446     IErMin= 8 ErrMin= 1.57D-05
 ErrMax= 1.57D-05  0.00D+00 EMaxC= 1.00D-01 BMatC= 1.02D-07 BMatP= 7.07D-07
 IDIUse=1 WtCom= 1.00D+00 WtEn= 0.00D+00
 Coeff-Com:  0.201D-03-0.184D-03-0.663D-02-0.606D-02-0.697D-01-0.230D-02
 Coeff-Com:  0.253D+00 0.831D+00
 Coeff:      0.201D-03-0.184D-03-0.663D-02-0.606D-02-0.697D-01-0.230D-02
 Coeff:      0.253D+00 0.831D+00
 Gap=     0.045 Goal=   None    Shift=    0.000
 Gap=     0.048 Goal=   None    Shift=    0.000
 RMSDP=8.56D-05 MaxDP=5.00D-03 DE=-2.45D-06 OVMax= 1.23D-03

 Cycle   9  Pass 1  IDiag  1:
 E= -1136.11584160079     Delta-E=       -0.000000386327 Rises=F Damp=F
 DIIS: error= 9.40D-06 at cycle   9 NSaved=   9.
 NSaved= 9 IEnMin= 9 EnMin= -1136.11584160079     IErMin= 9 ErrMin= 9.40D-06
 ErrMax= 9.40D-06  0.00D+00 EMaxC= 1.00D-01 BMatC= 4.45D-08 BMatP= 1.02D-07
 IDIUse=1 WtCom= 1.00D+00 WtEn= 0.00D+00
 Coeff-Com:  0.261D-03-0.324D-03 0.111D-01 0.784D-02-0.161D-01-0.711D-01
 Coeff-Com: -0.114D+00 0.424D+00 0.758D+00
 Coeff:      0.261D-03-0.324D-03 0.111D-01 0.784D-02-0.161D-01-0.711D-01
 Coeff:     -0.114D+00 0.424D+00 0.758D+00
 Gap=     0.045 Goal=   None    Shift=    0.000
 Gap=     0.048 Goal=   None    Shift=    0.000
 RMSDP=5.73D-05 MaxDP=3.78D-03 DE=-3.86D-07 OVMax= 7.84D-04

 Cycle  10  Pass 1  IDiag  1:
 E= -1136.11584176137     Delta-E=       -0.000000160582 Rises=F Damp=F
 DIIS: error= 5.05D-06 at cycle  10 NSaved=  10.
 NSaved=10 IEnMin=10 EnMin= -1136.11584176137     IErMin=10 ErrMin= 5.05D-06
 ErrMax= 5.05D-06  0.00D+00 EMaxC= 1.00D-01 BMatC= 6.78D-09 BMatP= 4.45D-08
 IDIUse=1 WtCom= 1.00D+00 WtEn= 0.00D+00
 Coeff-Com: -0.193D-03 0.238D-03 0.404D-02 0.268D-02 0.166D-01-0.280D-02
 Coeff-Com: -0.999D-01-0.191D+00 0.876D-01 0.118D+01
 Coeff:     -0.193D-03 0.238D-03 0.404D-02 0.268D-02 0.166D-01-0.280D-02
 Coeff:     -0.999D-01-0.191D+00 0.876D-01 0.118D+01
 Gap=     0.045 Goal=   None    Shift=    0.000
 Gap=     0.048 Goal=   None    Shift=    0.000
 RMSDP=3.34D-05 MaxDP=3.09D-03 DE=-1.61D-07 OVMax= 4.83D-04

 Cycle  11  Pass 1  IDiag  1:
 E= -1136.11584181432     Delta-E=       -0.000000052953 Rises=F Damp=F
 DIIS: error= 1.72D-06 at cycle  11 NSaved=  11.
 NSaved=11 IEnMin=11 EnMin= -1136.11584181432     IErMin=11 ErrMin= 1.72D-06
 ErrMax= 1.72D-06  0.00D+00 EMaxC= 1.00D-01 BMatC= 1.02D-09 BMatP= 6.78D-09
 IDIUse=1 WtCom= 1.00D+00 WtEn= 0.00D+00
 Coeff-Com: -0.105D-03 0.129D-03-0.929D-03-0.481D-03 0.603D-02 0.894D-02
 Coeff-Com:  0.969D-03-0.115D+00-0.112D+00 0.253D+00 0.960D+00
 Coeff:     -0.105D-03 0.129D-03-0.929D-03-0.481D-03 0.603D-02 0.894D-02
 Coeff:      0.969D-03-0.115D+00-0.112D+00 0.253D+00 0.960D+00
 Gap=     0.045 Goal=   None    Shift=    0.000
 Gap=     0.048 Goal=   None    Shift=    0.000
 RMSDP=7.22D-06 MaxDP=6.23D-04 DE=-5.30D-08 OVMax= 1.82D-04

 Cycle  12  Pass 1  IDiag  1:
 E= -1136.11584182152     Delta-E=       -0.000000007198 Rises=F Damp=F
 DIIS: error= 7.97D-07 at cycle  12 NSaved=  12.
 NSaved=12 IEnMin=12 EnMin= -1136.11584182152     IErMin=12 ErrMin= 7.97D-07
 ErrMax= 7.97D-07  0.00D+00 EMaxC= 1.00D-01 BMatC= 2.00D-10 BMatP= 1.02D-09
 IDIUse=1 WtCom= 1.00D+00 WtEn= 0.00D+00
 Coeff-Com:  0.214D-04-0.283D-04-0.743D-03-0.444D-03-0.189D-02 0.193D-02
 Coeff-Com:  0.173D-01 0.649D-02-0.417D-01-0.133D+00 0.211D+00 0.942D+00
 Coeff:      0.214D-04-0.283D-04-0.743D-03-0.444D-03-0.189D-02 0.193D-02
 Coeff:      0.173D-01 0.649D-02-0.417D-01-0.133D+00 0.211D+00 0.942D+00
 Gap=     0.045 Goal=   None    Shift=    0.000
 Gap=     0.048 Goal=   None    Shift=    0.000
 RMSDP=2.51D-06 MaxDP=2.28D-04 DE=-7.20D-09 OVMax= 7.20D-05

 Cycle  13  Pass 1  IDiag  1:
 E= -1136.11584182277     Delta-E=       -0.000000001253 Rises=F Damp=F
 DIIS: error= 4.52D-07 at cycle  13 NSaved=  13.
 NSaved=13 IEnMin=13 EnMin= -1136.11584182277     IErMin=13 ErrMin= 4.52D-07
 ErrMax= 4.52D-07  0.00D+00 EMaxC= 1.00D-01 BMatC= 5.54D-11 BMatP= 2.00D-10
 IDIUse=1 WtCom= 1.00D+00 WtEn= 0.00D+00
 Coeff-Com:  0.409D-04-0.517D-04 0.637D-04-0.144D-04-0.183D-02-0.196D-02
 Coeff-Com:  0.376D-02 0.304D-01 0.220D-01-0.980D-01-0.196D+00 0.218D+00
 Coeff-Com:  0.102D+01
 Coeff:      0.409D-04-0.517D-04 0.637D-04-0.144D-04-0.183D-02-0.196D-02
 Coeff:      0.376D-02 0.304D-01 0.220D-01-0.980D-01-0.196D+00 0.218D+00
 Coeff:      0.102D+01
 Gap=     0.045 Goal=   None    Shift=    0.000
 Gap=     0.048 Goal=   None    Shift=    0.000
 RMSDP=1.90D-06 MaxDP=2.11D-04 DE=-1.25D-09 OVMax= 4.44D-05

 Cycle  14  Pass 1  IDiag  1:
 E= -1136.11584182318     Delta-E=       -0.000000000407 Rises=F Damp=F
 DIIS: error= 2.04D-07 at cycle  14 NSaved=  14.
 NSaved=14 IEnMin=14 EnMin= -1136.11584182318     IErMin=14 ErrMin= 2.04D-07
 ErrMax= 2.04D-07  0.00D+00 EMaxC= 1.00D-01 BMatC= 1.05D-11 BMatP= 5.54D-11
 IDIUse=1 WtCom= 1.00D+00 WtEn= 0.00D+00
 Coeff-Com: -0.131D-04 0.173D-04 0.153D-03 0.885D-04 0.946D-03-0.244D-03
 Coeff-Com: -0.573D-02-0.507D-02 0.105D-01 0.445D-01-0.334D-01-0.277D+00
 Coeff-Com: -0.762D-01 0.134D+01
 Coeff:     -0.131D-04 0.173D-04 0.153D-03 0.885D-04 0.946D-03-0.244D-03
 Coeff:     -0.573D-02-0.507D-02 0.105D-01 0.445D-01-0.334D-01-0.277D+00
 Coeff:     -0.762D-01 0.134D+01
 Gap=     0.045 Goal=   None    Shift=    0.000
 Gap=     0.048 Goal=   None    Shift=    0.000
 RMSDP=1.09D-06 MaxDP=1.07D-04 DE=-4.07D-10 OVMax= 3.17D-05

 Cycle  15  Pass 1  IDiag  1:
 E= -1136.11584182329     Delta-E=       -0.000000000115 Rises=F Damp=F
 DIIS: error= 8.49D-08 at cycle  15 NSaved=  15.
 NSaved=15 IEnMin=15 EnMin= -1136.11584182329     IErMin=15 ErrMin= 8.49D-08
 ErrMax= 8.49D-08  0.00D+00 EMaxC= 1.00D-01 BMatC= 2.52D-12 BMatP= 1.05D-11
 IDIUse=1 WtCom= 1.00D+00 WtEn= 0.00D+00
 Coeff-Com: -0.138D-04 0.179D-04 0.382D-04 0.321D-04 0.693D-03 0.379D-03
 Coeff-Com: -0.288D-02-0.743D-02-0.115D-02 0.348D-01 0.252D-01-0.136D+00
 Coeff-Com: -0.224D+00 0.483D+00 0.827D+00
 Coeff:     -0.138D-04 0.179D-04 0.382D-04 0.321D-04 0.693D-03 0.379D-03
 Coeff:     -0.288D-02-0.743D-02-0.115D-02 0.348D-01 0.252D-01-0.136D+00
 Coeff:     -0.224D+00 0.483D+00 0.827D+00
 Gap=     0.045 Goal=   None    Shift=    0.000
 Gap=     0.048 Goal=   None    Shift=    0.000
 RMSDP=3.75D-07 MaxDP=2.87D-05 DE=-1.15D-10 OVMax= 9.40D-06

 Cycle  16  Pass 1  IDiag  1:
 E= -1136.11584182331     Delta-E=       -0.000000000012 Rises=F Damp=F
 DIIS: error= 3.56D-08 at cycle  16 NSaved=  16.
 NSaved=16 IEnMin=16 EnMin= -1136.11584182331     IErMin=16 ErrMin= 3.56D-08
 ErrMax= 3.56D-08  0.00D+00 EMaxC= 1.00D-01 BMatC= 3.23D-13 BMatP= 2.52D-12
 IDIUse=1 WtCom= 1.00D+00 WtEn= 0.00D+00
 Coeff-Com:  0.393D-05-0.523D-05-0.310D-04-0.153D-04-0.180D-03-0.361D-04
 Coeff-Com:  0.115D-02 0.152D-02-0.183D-02-0.953D-02 0.537D-02 0.536D-01
 Coeff-Com:  0.217D-01-0.271D+00-0.212D-02 0.120D+01
 Coeff:      0.393D-05-0.523D-05-0.310D-04-0.153D-04-0.180D-03-0.361D-04
 Coeff:      0.115D-02 0.152D-02-0.183D-02-0.953D-02 0.537D-02 0.536D-01
 Coeff:      0.217D-01-0.271D+00-0.212D-02 0.120D+01
 Gap=     0.045 Goal=   None    Shift=    0.000
 Gap=     0.048 Goal=   None    Shift=    0.000
 RMSDP=1.10D-07 MaxDP=5.57D-06 DE=-1.18D-11 OVMax= 3.59D-06

 Cycle  17  Pass 1  IDiag  1:
 E= -1136.11584182331     Delta-E=       -0.000000000001 Rises=F Damp=F
 DIIS: error= 9.78D-09 at cycle  17 NSaved=  17.
 NSaved=17 IEnMin=17 EnMin= -1136.11584182331     IErMin=17 ErrMin= 9.78D-09
 ErrMax= 9.78D-09  0.00D+00 EMaxC= 1.00D-01 BMatC= 4.98D-14 BMatP= 3.23D-13
 IDIUse=1 WtCom= 1.00D+00 WtEn= 0.00D+00
 Coeff-Com:  0.274D-05-0.357D-05-0.928D-05-0.788D-05-0.133D-03-0.456D-04
 Coeff-Com:  0.558D-03 0.131D-02 0.541D-04-0.643D-02-0.476D-02 0.279D-01
 Coeff-Com:  0.424D-01-0.107D+00-0.138D+00 0.101D+00 0.108D+01
 Coeff:      0.274D-05-0.357D-05-0.928D-05-0.788D-05-0.133D-03-0.456D-04
 Coeff:      0.558D-03 0.131D-02 0.541D-04-0.643D-02-0.476D-02 0.279D-01
 Coeff:      0.424D-01-0.107D+00-0.138D+00 0.101D+00 0.108D+01
 Gap=     0.045 Goal=   None    Shift=    0.000
 Gap=     0.048 Goal=   None    Shift=    0.000
 RMSDP=6.59D-08 MaxDP=5.18D-06 DE=-1.14D-12 OVMax= 1.46D-06

 Cycle  18  Pass 1  IDiag  1:
 E= -1136.11584182332     Delta-E=       -0.000000000013 Rises=F Damp=F
 DIIS: error= 4.61D-09 at cycle  18 NSaved=  18.
 NSaved=18 IEnMin=18 EnMin= -1136.11584182332     IErMin=18 ErrMin= 4.61D-09
 ErrMax= 4.61D-09  0.00D+00 EMaxC= 1.00D-01 BMatC= 7.97D-15 BMatP= 4.98D-14
 IDIUse=1 WtCom= 1.00D+00 WtEn= 0.00D+00
 Coeff-Com: -0.614D-06 0.820D-06 0.464D-05 0.198D-05 0.267D-04 0.440D-05
 Coeff-Com: -0.178D-03-0.180D-03 0.298D-03 0.139D-02-0.132D-02-0.815D-02
 Coeff-Com: -0.193D-02 0.430D-01-0.427D-02-0.186D+00-0.137D-01 0.117D+01
 Coeff:     -0.614D-06 0.820D-06 0.464D-05 0.198D-05 0.267D-04 0.440D-05
 Coeff:     -0.178D-03-0.180D-03 0.298D-03 0.139D-02-0.132D-02-0.815D-02
 Coeff:     -0.193D-02 0.430D-01-0.427D-02-0.186D+00-0.137D-01 0.117D+01
 Gap=     0.045 Goal=   None    Shift=    0.000
 Gap=     0.048 Goal=   None    Shift=    0.000
 RMSDP=3.15D-08 MaxDP=2.33D-06 DE=-1.25D-11 OVMax= 7.06D-07

 Cycle  19  Pass 1  IDiag  1:
 E= -1136.11584182332     Delta-E=        0.000000000003 Rises=F Damp=F
 DIIS: error= 2.07D-09 at cycle  19 NSaved=  19.
 NSaved=19 IEnMin=18 EnMin= -1136.11584182332     IErMin=19 ErrMin= 2.07D-09
 ErrMax= 2.07D-09  0.00D+00 EMaxC= 1.00D-01 BMatC= 1.77D-15 BMatP= 7.97D-15
 IDIUse=1 WtCom= 1.00D+00 WtEn= 0.00D+00
 Large coefficients: NSaved= 19 BigCof=    0.00 CofMax=   10.00 Det=-2.11D-15
 Inversion failed.  Reducing to 18 matrices.
 Large coefficients: NSaved= 18 BigCof=    0.00 CofMax=   10.00 Det=-2.33D-15
 Inversion failed.  Reducing to 17 matrices.
 Large coefficients: NSaved= 17 BigCof=    0.00 CofMax=   10.00 Det=-2.33D-15
 Inversion failed.  Reducing to 16 matrices.
 Large coefficients: NSaved= 16 BigCof=    0.00 CofMax=   10.00 Det=-2.34D-15
 Inversion failed.  Reducing to 15 matrices.
 Coeff-Com: -0.108D-05-0.434D-05 0.710D-05 0.162D-04 0.226D-04-0.317D-04
 Coeff-Com: -0.144D-04-0.373D-03 0.311D-03 0.329D-04 0.484D-02 0.849D-02
 Coeff-Com: -0.932D-01-0.703D-01 0.115D+01
 Coeff:     -0.108D-05-0.434D-05 0.710D-05 0.162D-04 0.226D-04-0.317D-04
 Coeff:     -0.144D-04-0.373D-03 0.311D-03 0.329D-04 0.484D-02 0.849D-02
 Coeff:     -0.932D-01-0.703D-01 0.115D+01
 Gap=     0.045 Goal=   None    Shift=    0.000
 Gap=     0.048 Goal=   None    Shift=    0.000
 RMSDP=1.16D-08 MaxDP=9.46D-07 DE= 3.41D-12 OVMax= 2.86D-07

 Cycle  20  Pass 1  IDiag  1:
 E= -1136.11584182331     Delta-E=        0.000000000007 Rises=F Damp=F
 DIIS: error= 1.27D-09 at cycle  20 NSaved=  16.
 NSaved=16 IEnMin=14 EnMin= -1136.11584182332     IErMin=16 ErrMin= 1.27D-09
 ErrMax= 1.27D-09  0.00D+00 EMaxC= 1.00D-01 BMatC= 7.17D-16 BMatP= 1.77D-15
 IDIUse=1 WtCom= 1.00D+00 WtEn= 0.00D+00
 Large coefficients: NSaved= 16 BigCof=    0.00 CofMax=   10.00 Det=-1.17D-15
 Inversion failed.  Reducing to 15 matrices.
 Coeff-Com: -0.101D-06 0.376D-05-0.190D-04-0.363D-04 0.348D-04 0.408D-03
 Coeff-Com:  0.318D-03-0.177D-02-0.370D-02 0.844D-02 0.394D-01-0.480D-01
 Coeff-Com: -0.351D+00 0.362D+00 0.994D+00
 Coeff:     -0.101D-06 0.376D-05-0.190D-04-0.363D-04 0.348D-04 0.408D-03
 Coeff:      0.318D-03-0.177D-02-0.370D-02 0.844D-02 0.394D-01-0.480D-01
 Coeff:     -0.351D+00 0.362D+00 0.994D+00
 Gap=     0.045 Goal=   None    Shift=    0.000
 Gap=     0.048 Goal=   None    Shift=    0.000
 RMSDP=8.94D-09 MaxDP=6.50D-07 DE= 7.28D-12 OVMax= 2.04D-07

 SCF Done:  E(UB3LYP) =  -1136.11584182     A.U. after   20 cycles
            NFock= 20  Conv=0.89D-08     -V/T= 2.0029
 <Sx>= 0.0000 <Sy>= 0.0000 <Sz>= 0.5000 <S**2>= 0.7776 S= 0.5137
 <L.S>= 0.000000000000E+00
 KE= 1.132866524352D+03 PE=-3.239072302834D+03 EE= 7.151318178940D+02
 Annihilation of the first spin contaminant:
 S**2 before annihilation     0.7776,   after     0.7504
 Leave Link  502 at Tue Nov 28 23:07:22 2023, MaxMem=  1879048192 cpu:             154.4 elap:              14.5
 (Enter /home/sekinelabo/g16/l601.exe)
 Copying SCF densities to generalized density rwf, IOpCl= 1 IROHF=0.

 **********************************************************************

            Population analysis using the SCF Density.

 **********************************************************************

 Orbital symmetries:
 Alpha Orbitals:
       Occupied  (A) (A) (A) (A) (A) (A) (A) (A) (A) (A) (A) (A)
                 (A) (A) (A) (A) (A) (A) (A) (A) (A) (A) (A) (A)
                 (A) (A) (A) (A) (A) (A) (A) (A) (A) (A) (A) (A)
                 (A) (A) (A)
       Virtual   (A) (A) (A) (A) (A) (A) (A) (A) (A) (A) (A) (A)
                 (A) (A) (A) (A) (A) (A) (A) (A) (A) (A) (A) (A)
                 (A) (A) (A) (A) (A) (A) (A) (A) (A) (A) (A) (A)
                 (A) (A) (A) (A) (A) (A) (A) (A) (A) (A) (A) (A)
                 (A) (A) (A) (A) (A) (A) (A) (A) (A) (A) (A) (A)
                 (A) (A) (A) (A) (A) (A) (A) (A) (A) (A) (A) (A)
                 (A) (A) (A) (A) (A) (A) (A) (A) (A) (A) (A) (A)
                 (A) (A) (A) (A) (A) (A) (A) (A) (A) (A) (A) (A)
                 (A) (A) (A) (A) (A) (A) (A) (A) (A) (A) (A) (A)
                 (A) (A) (A) (A) (A) (A) (A) (A) (A) (A) (A) (A)
                 (A) (A) (A) (A) (A) (A) (A) (A) (A) (A) (A) (A)
                 (A) (A) (A) (A) (A) (A) (A) (A) (A) (A) (A) (A)
                 (A) (A) (A) (A) (A) (A) (A) (A) (A) (A) (A) (A)
                 (A) (A) (A) (A) (A) (A) (A) (A) (A) (A) (A) (A)
                 (A) (A) (A)
 Beta  Orbitals:
       Occupied  (A) (A) (A) (A) (A) (A) (A) (A) (A) (A) (A) (A)
                 (A) (A) (A) (A) (A) (A) (A) (A) (A) (A) (A) (A)
                 (A) (A) (A) (A) (A) (A) (A) (A) (A) (A) (A) (A)
                 (A) (A)
       Virtual   (A) (A) (A) (A) (A) (A) (A) (A) (A) (A) (A) (A)
                 (A) (A) (A) (A) (A) (A) (A) (A) (A) (A) (A) (A)
                 (A) (A) (A) (A) (A) (A) (A) (A) (A) (A) (A) (A)
                 (A) (A) (A) (A) (A) (A) (A) (A) (A) (A) (A) (A)
                 (A) (A) (A) (A) (A) (A) (A) (A) (A) (A) (A) (A)
                 (A) (A) (A) (A) (A) (A) (A) (A) (A) (A) (A) (A)
                 (A) (A) (A) (A) (A) (A) (A) (A) (A) (A) (A) (A)
                 (A) (A) (A) (A) (A) (A) (A) (A) (A) (A) (A) (A)
                 (A) (A) (A) (A) (A) (A) (A) (A) (A) (A) (A) (A)
                 (A) (A) (A) (A) (A) (A) (A) (A) (A) (A) (A) (A)
                 (A) (A) (A) (A) (A) (A) (A) (A) (A) (A) (A) (A)
                 (A) (A) (A) (A) (A) (A) (A) (A) (A) (A) (A) (A)
                 (A) (A) (A) (A) (A) (A) (A) (A) (A) (A) (A) (A)
                 (A) (A) (A) (A) (A) (A) (A) (A) (A) (A) (A) (A)
                 (A) (A) (A) (A)
 The electronic state is 2-A.
 Alpha  occ. eigenvalues --  -38.44490 -38.44427 -38.44309 -38.44155 -38.43999
 Alpha  occ. eigenvalues --  -38.43926 -38.43600  -2.20336  -2.20228  -2.20179
 Alpha  occ. eigenvalues --   -2.19952  -2.19806  -2.19742  -2.19403  -1.14066
 Alpha  occ. eigenvalues --   -1.14001  -1.13946  -1.13924  -1.13874  -1.13873
 Alpha  occ. eigenvalues --   -1.13871  -1.13855  -1.13770  -1.13608  -1.13598
 Alpha  occ. eigenvalues --   -1.13581  -1.13467  -1.13462  -1.13425  -1.13415
 Alpha  occ. eigenvalues --   -1.13403  -1.13388  -1.13066  -1.13065  -1.13010
 Alpha  occ. eigenvalues --   -0.16433  -0.13787  -0.12409  -0.10834
 Alpha virt. eigenvalues --   -0.06339  -0.05470  -0.04317  -0.03796  -0.02926
 Alpha virt. eigenvalues --   -0.02456  -0.02029  -0.01867  -0.01311  -0.00949
 Alpha virt. eigenvalues --   -0.00274  -0.00187   0.00109   0.00467   0.00611
 Alpha virt. eigenvalues --    0.00675   0.00811   0.00953   0.01010   0.01111
 Alpha virt. eigenvalues --    0.01224   0.01363   0.01440   0.01627   0.01659
 Alpha virt. eigenvalues --    0.01897   0.01956   0.02142   0.02202   0.02221
 Alpha virt. eigenvalues --    0.02380   0.02514   0.02642   0.02773   0.02866
 Alpha virt. eigenvalues --    0.03211   0.03271   0.03334   0.03478   0.03671
 Alpha virt. eigenvalues --    0.03748   0.03794   0.03848   0.04003   0.04202
 Alpha virt. eigenvalues --    0.04325   0.04490   0.04859   0.05023   0.05630
 Alpha virt. eigenvalues --    0.05763   0.06104   0.06906   0.07248   0.07432
 Alpha virt. eigenvalues --    0.07551   0.07652   0.07867   0.08331   0.08359
 Alpha virt. eigenvalues --    0.09096   0.09426   0.09471   0.09741   0.09918
 Alpha virt. eigenvalues --    0.10290   0.10464   0.10691   0.10884   0.11237
 Alpha virt. eigenvalues --    0.11604   0.12895   0.13093   0.13427   0.13699
 Alpha virt. eigenvalues --    0.14480   0.15247   0.15450   0.16067   0.17328
 Alpha virt. eigenvalues --    0.26852   0.27840   0.29033   0.29341   0.29511
 Alpha virt. eigenvalues --    0.29818   0.31326   0.31657   0.31965   0.32517
 Alpha virt. eigenvalues --    0.32620   0.33508   0.34004   0.34945   0.35346
 Alpha virt. eigenvalues --    0.36461   0.37145   0.37717   0.38441   0.38949
 Alpha virt. eigenvalues --    0.40748   0.41831   0.42654   0.42827   0.43389
 Alpha virt. eigenvalues --    0.43471   0.43754   0.43798   0.44148   0.44223
 Alpha virt. eigenvalues --    0.44586   0.44804   0.45181   0.45535   0.45797
 Alpha virt. eigenvalues --    0.45967   0.46481   0.47175   0.47410   0.47720
 Alpha virt. eigenvalues --    0.47862   0.48819   0.49043   0.49120   0.49575
 Alpha virt. eigenvalues --    0.50847   0.51203   0.51930   0.52061   0.54339
 Alpha virt. eigenvalues --    0.55129   0.56920   0.63159   0.64794   0.67848
 Alpha virt. eigenvalues --    0.71875   2.01648   2.06257   2.10656   2.12816
 Alpha virt. eigenvalues --    2.13524   2.16849   2.18704   4.41182   4.42797
 Alpha virt. eigenvalues --    4.43774   4.44104   4.44264   4.44656   4.44874
 Alpha virt. eigenvalues --    4.44960   4.45438   4.45698   4.45937   4.46115
 Alpha virt. eigenvalues --    4.46689   4.47321   4.48055   4.48609   4.50572
 Alpha virt. eigenvalues --    4.55699   4.57750   4.61613   4.64932  96.20652
 Alpha virt. eigenvalues --   96.26331  96.31754  96.34230  96.36069  96.39098
 Alpha virt. eigenvalues --   96.41828
  Beta  occ. eigenvalues --  -38.44422 -38.44410 -38.44295 -38.44159 -38.43963
  Beta  occ. eigenvalues --  -38.43912 -38.43554  -2.20211  -2.20197  -2.20155
  Beta  occ. eigenvalues --   -2.19962  -2.19740  -2.19719  -2.19315  -1.13996
  Beta  occ. eigenvalues --   -1.13929  -1.13920  -1.13861  -1.13852  -1.13850
  Beta  occ. eigenvalues --   -1.13827  -1.13795  -1.13750  -1.13616  -1.13604
  Beta  occ. eigenvalues --   -1.13575  -1.13417  -1.13415  -1.13414  -1.13392
  Beta  occ. eigenvalues --   -1.13377  -1.13334  -1.13005  -1.13004  -1.12958
  Beta  occ. eigenvalues --   -0.15755  -0.13545  -0.12110
  Beta virt. eigenvalues --   -0.07330  -0.05897  -0.05229  -0.03932  -0.03614
  Beta virt. eigenvalues --   -0.02599  -0.02225  -0.01725  -0.01641  -0.01059
  Beta virt. eigenvalues --   -0.00741  -0.00064   0.00102   0.00331   0.00534
  Beta virt. eigenvalues --    0.00681   0.00706   0.00847   0.01030   0.01093
  Beta virt. eigenvalues --    0.01150   0.01275   0.01417   0.01483   0.01667
  Beta virt. eigenvalues --    0.01787   0.01948   0.02009   0.02246   0.02277
  Beta virt. eigenvalues --    0.02318   0.02486   0.02585   0.02718   0.02841
  Beta virt. eigenvalues --    0.02955   0.03252   0.03323   0.03358   0.03501
  Beta virt. eigenvalues --    0.03736   0.03819   0.03870   0.03943   0.04109
  Beta virt. eigenvalues --    0.04259   0.04357   0.04596   0.05003   0.05112
  Beta virt. eigenvalues --    0.05708   0.05856   0.06147   0.06963   0.07297
  Beta virt. eigenvalues --    0.07543   0.07631   0.07732   0.07905   0.08507
  Beta virt. eigenvalues --    0.08574   0.09288   0.09576   0.09629   0.09790
  Beta virt. eigenvalues --    0.09966   0.10343   0.10797   0.10921   0.10973
  Beta virt. eigenvalues --    0.11395   0.11763   0.13014   0.13228   0.13776
  Beta virt. eigenvalues --    0.13900   0.14752   0.15364   0.15569   0.16185
  Beta virt. eigenvalues --    0.17547   0.27187   0.28119   0.29342   0.29634
  Beta virt. eigenvalues --    0.29796   0.29893   0.31446   0.31783   0.32467
  Beta virt. eigenvalues --    0.32687   0.32742   0.33831   0.34187   0.35285
  Beta virt. eigenvalues --    0.35592   0.36843   0.37590   0.37964   0.38513
  Beta virt. eigenvalues --    0.39056   0.41091   0.42043   0.42747   0.43009
  Beta virt. eigenvalues --    0.43498   0.43643   0.43876   0.43957   0.44271
  Beta virt. eigenvalues --    0.44366   0.44706   0.44944   0.45246   0.45658
  Beta virt. eigenvalues --    0.45838   0.46149   0.46631   0.47342   0.47581
  Beta virt. eigenvalues --    0.47891   0.47927   0.48954   0.49066   0.49163
  Beta virt. eigenvalues --    0.49707   0.50925   0.51461   0.52062   0.52410
  Beta virt. eigenvalues --    0.54437   0.55180   0.57200   0.63331   0.64943
  Beta virt. eigenvalues --    0.68044   0.71894   2.01782   2.06298   2.10796
  Beta virt. eigenvalues --    2.13052   2.13540   2.16969   2.18787   4.41192
  Beta virt. eigenvalues --    4.42851   4.43787   4.44137   4.44295   4.44703
  Beta virt. eigenvalues --    4.44943   4.45022   4.45454   4.45761   4.45969
  Beta virt. eigenvalues --    4.46118   4.46723   4.47359   4.48145   4.48674
  Beta virt. eigenvalues --    4.50627   4.55748   4.57803   4.61652   4.64942
  Beta virt. eigenvalues --   96.20699  96.26345  96.31801  96.34305  96.36076
  Beta virt. eigenvalues --   96.39137  96.41860
          Condensed to atoms (all electrons):
               1          2          3          4          5          6
     1  Na  12.036441  -1.300806  -1.652685   2.911909  -0.713028  -0.464103
     2  Na  -1.300806  12.031192   2.190821  -2.378622  -0.176413   0.275984
     3  Na  -1.652685   2.190821  15.176049  -4.889819  -1.275561   0.258237
     4  Na   2.911909  -2.378622  -4.889819  19.166714  -1.421436  -0.671769
     5  Na  -0.713028  -0.176413  -1.275561  -1.421436  14.131310   0.372488
     6  Na  -0.464103   0.275984   0.258237  -0.671769   0.372488  11.249354
     7  Na  -0.000494   0.004909   0.000393  -0.082026   0.035255   0.289981
               7
     1  Na  -0.000494
     2  Na   0.004909
     3  Na   0.000393
     4  Na  -0.082026
     5  Na   0.035255
     6  Na   0.289981
     7  Na  10.582511
          Atomic-Atomic Spin Densities.
               1          2          3          4          5          6
     1  Na   0.063549   0.264852   0.348282   0.013997  -0.433002   0.036543
     2  Na   0.264852   0.166627   0.169265   0.049643  -0.405730  -0.067423
     3  Na   0.348282   0.169265   1.070792   0.029124  -1.280239  -0.111377
     4  Na   0.013997   0.049643   0.029124   0.883369  -0.508652  -0.037329
     5  Na  -0.433002  -0.405730  -1.280239  -0.508652   2.291255   0.209595
     6  Na   0.036543  -0.067423  -0.111377  -0.037329   0.209595  -0.111248
     7  Na  -0.007400   0.004651  -0.008128  -0.025314   0.024844   0.016466
               7
     1  Na  -0.007400
     2  Na   0.004651
     3  Na  -0.008128
     4  Na  -0.025314
     5  Na   0.024844
     6  Na   0.016466
     7  Na   0.070319
 Mulliken charges and spin densities:
               1          2
     1  Na   0.182767   0.286822
     2  Na   0.352935   0.181884
     3  Na   1.192565   0.217720
     4  Na  -1.634951   0.404838
     5  Na   0.047386  -0.101928
     6  Na  -0.310172  -0.064773
     7  Na   0.169470   0.075438
 Sum of Mulliken charges =  -0.00000   1.00000
 Mulliken charges and spin densities with hydrogens summed into heavy atoms:
               1          2
     1  Na   0.182767   0.286822
     2  Na   0.352935   0.181884
     3  Na   1.192565   0.217720
     4  Na  -1.634951   0.404838
     5  Na   0.047386  -0.101928
     6  Na  -0.310172  -0.064773
     7  Na   0.169470   0.075438
 Electronic spatial extent (au):  <R**2>=           6272.9144
 Charge=             -0.0000 electrons
 Dipole moment (field-independent basis, Debye):
    X=             -0.5905    Y=             -0.1378    Z=              0.4427  Tot=              0.7508
 Quadrupole moment (field-independent basis, Debye-Ang):
   XX=            -56.7267   YY=            -66.3097   ZZ=            -67.8887
   XY=              0.1164   XZ=              3.1249   YZ=             -2.1302
 Traceless Quadrupole moment (field-independent basis, Debye-Ang):
   XX=              6.9150   YY=             -2.6680   ZZ=             -4.2470
   XY=              0.1164   XZ=              3.1249   YZ=             -2.1302
 Octapole moment (field-independent basis, Debye-Ang**2):
  XXX=            -72.1177  YYY=              5.8993  ZZZ=              4.1368  XYY=            -20.9530
  XXY=            -45.2354  XXZ=             45.9184  XZZ=             36.5666  YZZ=             -2.7729
  YYZ=              6.2458  XYZ=            -26.1826
 Hexadecapole moment (field-independent basis, Debye-Ang**3):
 XXXX=          -7697.2848 YYYY=          -1264.9178 ZZZZ=           -472.8875 XXXY=            -38.1765
 XXXZ=            392.3933 YYYX=             68.1438 YYYZ=            -10.7155 ZZZX=             24.9072
 ZZZY=            -17.1792 XXYY=          -1473.7523 XXZZ=          -1295.7449 YYZZ=           -303.3131
 XXYZ=           -142.2035 YYXZ=             37.8882 ZZXY=            -30.2384
 N-N= 2.549581187639D+02 E-N=-3.239072302866D+03  KE= 1.132866524352D+03
                          Isotropic Fermi Contact Couplings
        Atom                 a.u.       MegaHertz       Gauss      10(-4) cm-1
     1  Na(23)             0.00661       7.81675       2.78921       2.60739
     2  Na(23)             0.26662     315.41810     112.54902     105.21215
     3  Na(23)             0.15188     179.67860      64.11379      59.93433
     4  Na(23)             0.01684      19.91917       7.10765       6.64432
     5  Na(23)             0.20986     248.27104      88.58928      82.81431
     6  Na(23)            -0.03584     -42.39985     -15.12932     -14.14307
     7  Na(23)             0.07416      87.72826      31.30362      29.26300
 --------------------------------------------------------
       Center         ----  Spin Dipole Couplings  ----
                      3XX-RR        3YY-RR        3ZZ-RR
 --------------------------------------------------------
     1   Atom        0.039710     -0.020652     -0.019058
     2   Atom        0.003113      0.007362     -0.010475
     3   Atom        0.007477     -0.006319     -0.001158
     4   Atom       -0.016648      0.031349     -0.014701
     5   Atom       -0.004122      0.001375      0.002748
     6   Atom        0.008068     -0.005301     -0.002767
     7   Atom        0.000057      0.000352     -0.000409
 --------------------------------------------------------
                        XY            XZ            YZ
 --------------------------------------------------------
     1   Atom       -0.008988     -0.013456      0.002216
     2   Atom        0.019772      0.002353      0.001411
     3   Atom       -0.005680     -0.002188     -0.000446
     4   Atom       -0.008477     -0.002765      0.012866
     5   Atom        0.006681      0.003365     -0.001666
     6   Atom       -0.004264      0.006645     -0.002369
     7   Atom        0.000910     -0.001855      0.000643
 --------------------------------------------------------


 ---------------------------------------------------------------------------------
              Anisotropic Spin Dipole Couplings in Principal Axis System
 ---------------------------------------------------------------------------------

       Atom             a.u.   MegaHertz   Gauss  10(-4) cm-1        Axes

              Baa    -0.0222    -3.140    -1.120    -1.047  0.0569 -0.6892  0.7223
     1 Na(23) Bbb    -0.0217    -3.070    -1.095    -1.024  0.2481  0.7106  0.6584
              Bcc     0.0440     6.209     2.216     2.071  0.9671 -0.1418 -0.2114
 
              Baa    -0.0148    -2.091    -0.746    -0.697  0.7386 -0.6467 -0.1906
     2 Na(23) Bbb    -0.0105    -1.484    -0.530    -0.495  0.0939 -0.1812  0.9789
              Bcc     0.0253     3.575     1.276     1.192  0.6676  0.7409  0.0731
 
              Baa    -0.0085    -1.206    -0.430    -0.402  0.3492  0.9234  0.1592
     3 Na(23) Bbb    -0.0013    -0.184    -0.066    -0.061  0.1075 -0.2082  0.9722
              Bcc     0.0098     1.391     0.496     0.464  0.9309 -0.3223 -0.1720
 
              Baa    -0.0186    -2.631    -0.939    -0.878  0.7279 -0.0525  0.6837
     4 Na(23) Bbb    -0.0176    -2.481    -0.885    -0.827 -0.6653 -0.2956  0.6856
              Bcc     0.0362     5.112     1.824     1.705 -0.1661  0.9539  0.2501
 
              Baa    -0.0097    -1.371    -0.489    -0.457  0.8009 -0.5257 -0.2866
     5 Na(23) Bbb     0.0038     0.530     0.189     0.177  0.1126 -0.3378  0.9344
              Bcc     0.0060     0.841     0.300     0.281  0.5881  0.7807  0.2114
 
              Baa    -0.0067    -0.952    -0.340    -0.317  0.0737  0.9059  0.4170
     6 Na(23) Bbb    -0.0058    -0.821    -0.293    -0.274 -0.4883 -0.3318  0.8071
              Bcc     0.0126     1.773     0.632     0.591  0.8696 -0.2631  0.4179
 
              Baa    -0.0025    -0.348    -0.124    -0.116  0.6336 -0.3608  0.6844
     7 Na(23) Bbb     0.0007     0.100     0.036     0.034  0.0578  0.9042  0.4231
              Bcc     0.0018     0.248     0.088     0.083  0.7715  0.2285 -0.5938
 

 ---------------------------------------------------------------------------------

 No NMR shielding tensors so no spin-rotation constants.
 Leave Link  601 at Tue Nov 28 23:07:23 2023, MaxMem=  1879048192 cpu:               2.3 elap:               0.2
 (Enter /home/sekinelabo/g16/l701.exe)
 ... and contract with generalized density number  0.
 Compute integral first derivatives.
 Leave Link  701 at Tue Nov 28 23:07:23 2023, MaxMem=  1879048192 cpu:               1.5 elap:               0.1
 (Enter /home/sekinelabo/g16/l702.exe)
 L702 exits ... SP integral derivatives will be done elsewhere.
 Leave Link  702 at Tue Nov 28 23:07:23 2023, MaxMem=  1879048192 cpu:               0.4 elap:               0.0
 (Enter /home/sekinelabo/g16/l703.exe)
 Integral derivatives from FoFJK, PRISM(SPDF).
 Compute integral first derivatives, UseDBF=F ICtDFT=           0.
 Calling FoFJK, ICntrl=      2127 FMM=F ISym2X=0 I1Cent= 0 IOpClX= 1 NMat=1 NMatS=1 NMatT=0.
 FoFJK:  IHMeth= 1 ICntrl=    2127 DoSepK=F KAlg= 0 I1Cent=           0 FoldK=F
 IRaf=         0 NMat=       1 IRICut=       1 DoRegI=T DoRafI=F ISym2E= 0 IDoP0=0 IntGTp=1.
 FoFCou: FMM=F IPFlag=           0 FMFlag=      100000 FMFlg1=         800
         NFxFlg=           0 DoJE=F BraDBF=F KetDBF=F FulRan=T
         wScrn=  0.000000 ICntrl=      2127 IOpCl=  1 I1Cent=           0 NGrid=           0
         NMat0=    1 NMatS0=      1 NMatT0=    0 NMatD0=    1 NMtDS0=    0 NMtDT0=    0
 Symmetry not used in FoFCou.
 Leave Link  703 at Tue Nov 28 23:07:25 2023, MaxMem=  1879048192 cpu:              25.9 elap:               1.7
 (Enter /home/sekinelabo/g16/l716.exe)
 Dipole        =-2.32336383D-01-5.42133318D-02 1.74160492D-01
 ***** Axes restored to original set *****
 -------------------------------------------------------------------
 Center     Atomic                   Forces (Hartrees/Bohr)
 Number     Number              X              Y              Z
 -------------------------------------------------------------------
      1       11           0.000872360   -0.002107394   -0.000857282
      2       11          -0.001210833   -0.000570066   -0.001134755
      3       11          -0.001522279    0.001105479   -0.000073376
      4       11           0.002325410    0.002841239    0.002634487
      5       11           0.000137667   -0.000651707    0.000423846
      6       11          -0.000452705   -0.000015498   -0.002290030
      7       11          -0.000149620   -0.000602053    0.001297109
 -------------------------------------------------------------------
 Cartesian Forces:  Max     0.002841239 RMS     0.001399343
 Z-matrix is all fixed cartesians, so copy forces.
 Force constants in Cartesian coordinates: 
                1             2             3             4             5 
      1  0.531748D-01
      2 -0.135769D-01  0.432661D-01
      3  0.128800D-01  0.108286D-01  0.269802D-01
      4 -0.169539D-01  0.110911D-01  0.426095D-03  0.572392D-01
      5 -0.729271D-02 -0.148737D-01 -0.109569D-01 -0.654562D-02  0.423104D-01
      6 -0.106257D-01 -0.309314D-03 -0.108882D-01  0.209232D-01  0.124607D-01
      7  0.627885D-02  0.126034D-02  0.300300D-02 -0.118264D-01  0.128857D-01
      8  0.208161D-02 -0.602289D-03 -0.193117D-02 -0.152816D-02 -0.816826D-02
      9  0.301226D-02 -0.153106D-02  0.481872D-02 -0.756599D-02  0.309747D-02
     10 -0.188364D-01  0.458307D-02 -0.423633D-02 -0.313926D-01  0.528241D-02
     11  0.716344D-02 -0.150914D-01  0.276542D-02  0.114987D-02 -0.237630D-01
     12 -0.107539D-02 -0.108084D-02 -0.126740D-01 -0.105568D-01 -0.223145D-02
     13 -0.236634D-01 -0.335764D-02 -0.120727D-01  0.293366D-02 -0.432977D-02
     14  0.116246D-01 -0.126987D-01 -0.706011D-03 -0.416723D-02  0.449458D-02
     15 -0.419113D-02 -0.790741D-02 -0.823664D-02 -0.322653D-02 -0.236986D-02
     16  0.000000D+00  0.000000D+00  0.000000D+00  0.000000D+00  0.000000D+00
     17  0.000000D+00  0.000000D+00  0.000000D+00  0.000000D+00  0.000000D+00
     18  0.000000D+00  0.000000D+00  0.000000D+00  0.000000D+00  0.000000D+00
     19  0.000000D+00  0.000000D+00  0.000000D+00  0.000000D+00  0.000000D+00
     20  0.000000D+00  0.000000D+00  0.000000D+00  0.000000D+00  0.000000D+00
     21  0.000000D+00  0.000000D+00  0.000000D+00  0.000000D+00  0.000000D+00
                6             7             8             9            10 
      6  0.342660D-01
      7  0.227365D-02  0.269706D-01
      8 -0.583086D-02 -0.667312D-02  0.316928D-01
      9 -0.267817D-02  0.509854D-02  0.111529D-01  0.189369D-01
     10 -0.103347D-01 -0.269657D-01  0.548632D-02  0.327499D-03  0.938716D-01
     11 -0.473367D-02 -0.717382D-02 -0.239221D-01 -0.112130D-01 -0.903223D-02
     12 -0.218345D-01 -0.877352D-02 -0.153625D-02 -0.238413D-01  0.164681D-01
     13 -0.223643D-02  0.554265D-02  0.633355D-03 -0.872311D-03 -0.166768D-01
     14 -0.158686D-02 -0.299087D-03  0.999879D-03 -0.150629D-02 -0.631958D-02
     15  0.113490D-02 -0.160168D-02 -0.185461D-02  0.276384D-02 -0.222453D-02
     16  0.000000D+00  0.000000D+00  0.000000D+00  0.000000D+00  0.000000D+00
     17  0.000000D+00  0.000000D+00  0.000000D+00  0.000000D+00  0.000000D+00
     18  0.000000D+00  0.000000D+00  0.000000D+00  0.000000D+00  0.000000D+00
     19  0.000000D+00  0.000000D+00  0.000000D+00  0.000000D+00  0.000000D+00
     20  0.000000D+00  0.000000D+00  0.000000D+00  0.000000D+00  0.000000D+00
     21  0.000000D+00  0.000000D+00  0.000000D+00  0.000000D+00  0.000000D+00
               11            12            13            14            15 
     11  0.777458D-01
     12  0.953272D-02  0.703231D-01
     13  0.789274D-02  0.393762D-02  0.318639D-01
     14 -0.149693D-01 -0.468417D-02 -0.838688D-03  0.221735D-01
     15  0.364854D-02 -0.119732D-01  0.112439D-01  0.848334D-02  0.163111D-01
     16  0.000000D+00  0.000000D+00  0.000000D+00  0.000000D+00  0.000000D+00
     17  0.000000D+00  0.000000D+00  0.000000D+00  0.000000D+00  0.000000D+00
     18  0.000000D+00  0.000000D+00  0.000000D+00  0.000000D+00  0.000000D+00
     19  0.000000D+00  0.000000D+00  0.000000D+00  0.000000D+00  0.000000D+00
     20  0.000000D+00  0.000000D+00  0.000000D+00  0.000000D+00  0.000000D+00
     21  0.000000D+00  0.000000D+00  0.000000D+00  0.000000D+00  0.000000D+00
               16            17            18            19            20 
     16  0.313879D-03
     17  0.131065D-02  0.547285D-02
     18 -0.311800D-02 -0.130197D-01  0.309735D-01
     19 -0.313879D-03 -0.131065D-02  0.311800D-02  0.313879D-03
     20 -0.131065D-02 -0.547285D-02  0.130197D-01  0.131065D-02  0.547285D-02
     21  0.311800D-02  0.130197D-01 -0.309735D-01 -0.311800D-02 -0.130197D-01
               21 
     21  0.309735D-01
 Leave Link  716 at Tue Nov 28 23:07:25 2023, MaxMem=  1879048192 cpu:               0.4 elap:               0.0
 (Enter /home/sekinelabo/g16/l103.exe)

 GradGradGradGradGradGradGradGradGradGradGradGradGradGradGradGradGradGrad
 Berny optimization.
 Search for a local minimum.
 Step number   1 out of a maximum of    2
 All quantities printed in internal units (Hartrees-Bohrs-Radians)
 Second derivative matrix not updated -- first step.
 ITU=  0
     Eigenvalues ---   -0.00000  -0.00000   0.00000   0.00041   0.00418
     Eigenvalues ---    0.01997   0.02593   0.04827   0.05380   0.06587
     Eigenvalues ---    0.07352   0.07679   0.09692   0.11323   0.13447
 Eigenvalue     1 is  -1.11D-16 should be greater than     0.000000 Eigenvector:
                          Z7        Z6        Y7        X7        Y6
   1                    0.47481   0.44651   0.31690   0.26676   0.25905
                          X6        Z1        Z2        Z5        Z4
   1                    0.22713  -0.18426  -0.18426  -0.18426  -0.18426
 Eigenvalue     2 is  -1.11D-16 should be greater than     0.000000 Eigenvector:
                          Y6        Y7        X6        Z7        X7
   1                    0.62945  -0.42873   0.41569  -0.30962  -0.30921
                          Z6        Y5        Y4        Y3        Y1
   1                    0.20815  -0.04014  -0.04014  -0.04014  -0.04014
 Eigenvalue     3 is   8.92D-08 Eigenvector:
                          X6        X5        Y6        X1        Y5
   1                    0.54222  -0.41428  -0.36512  -0.31353   0.29979
                          X3        Z3        Z1        Y4        Y2
   1                    0.27737   0.19022  -0.16385   0.14919  -0.14236
 Quadratic step=1.329D+01 exceeds max=3.000D-01 adjusted using Lamda=-4.585D-03.
 Angle between NR and scaled steps=  17.96 degrees.
 Angle between quadratic step and forces=  64.08 degrees.
 Linear search not attempted -- first point.
 B after Tr=     0.000000   -0.000000    0.000000
         Rot=    1.000000   -0.000000    0.000000   -0.000000 Ang=   0.00 deg.
 Variable       Old X    -DE/DX   Delta X   Delta X   Delta X     New X
                                 (Linear)    (Quad)   (Total)
    X1       24.52241   0.00087   0.00000   0.04714   0.04714  24.56954
    Y1       31.08222  -0.00211   0.00000  -0.00533  -0.00533  31.07689
    Z1       26.66120  -0.00086   0.00000   0.02492   0.02492  26.68612
    X2       23.48136  -0.00121   0.00000   0.02527   0.02527  23.50663
    Y2       25.49430  -0.00057   0.00000   0.03998   0.03998  25.53428
    Z2       22.69656  -0.00113   0.00000   0.02312   0.02312  22.71968
    X3       28.62406  -0.00152   0.00000  -0.00073  -0.00073  28.62333
    Y3       20.13995   0.00111   0.00000   0.06747   0.06747  20.20741
    Z3       22.34903  -0.00007   0.00000   0.03378   0.03378  22.38281
    X4       28.57568   0.00233   0.00000   0.03780   0.03780  28.61348
    Y4       25.26261   0.00284   0.00000   0.05348   0.05348  25.31610
    Z4       25.75375   0.00263   0.00000   0.05688   0.05688  25.81063
    X5       30.04173   0.00014   0.00000   0.02404   0.02404  30.06577
    Y5       31.56315  -0.00065   0.00000  -0.02129  -0.02129  31.54186
    Z5       29.66020   0.00042   0.00000   0.06895   0.06895  29.72915
    X6       34.14225  -0.00045   0.00000  -0.12726  -0.12726  34.01499
    Y6       35.82732  -0.00002   0.00000  -0.14145  -0.14145  35.68586
    Z6       35.33448  -0.00229   0.00000  -0.16549  -0.16549  35.16899
    X7       33.61728  -0.00015   0.00000  -0.00625  -0.00625  33.61103
    Y7       33.63524  -0.00060   0.00000   0.00714   0.00714  33.64237
    Z7       40.54937   0.00130   0.00000  -0.04216  -0.04216  40.50721
         Item               Value     Threshold  Converged?
 Maximum Force            0.002841     0.000450     NO 
 RMS     Force            0.001399     0.000300     NO 
 Maximum Displacement     0.165491     0.001800     NO 
 RMS     Displacement     0.065504     0.001200     NO 
 Predicted change in Energy=-6.312921D-04
 GradGradGradGradGradGradGradGradGradGradGradGradGradGradGradGradGradGrad

 Leave Link  103 at Tue Nov 28 23:07:25 2023, MaxMem=  1879048192 cpu:               0.2 elap:               0.0
 (Enter /home/sekinelabo/g16/l9999.exe)
 1\1\GINC-SEKINELABO-XA7R-R37\Force\UB3LYP\6-311+G(d)\Na7(2)\SEKINELABO
 \28-Nov-2023\0\\#P B3LYP/6-311+g(d) force\\DPGEN\\0,2\Na,12.9767,16.44
 8,14.1085\Na,12.4258,13.491,12.0105\Na,15.1472,10.6576,11.8266\Na,15.1
 216,13.3684,13.6283\Na,15.8974,16.7025,15.6955\Na,18.0673,18.959,18.69
 82\Na,17.7895,17.799,21.4578\\Version=ES64L-G16RevB.01\State=2-A\HF=-1
 136.1158418\S2=0.777642\S2-1=0.\S2A=0.750444\RMSD=8.938e-09\RMSF=1.399
 e-03\Dipole=-0.1627334,-0.2413189,-0.0503407\Quadrupole=-4.0128474,-0.
 0414821,4.0543295,0.2413261,2.3007188,2.5413748\PG=C01 [X(Na7)]\\@


 "WHERE SHALL I START, PLEASE YOUR MAJESTY?" HE ASKED.
 "BEGIN AT THE BEGINNING," THE KING SAID GRAVELY,
 "AND GO ON TILL YOU COME TO THE END: THEN STOP." 

                                      -- LEWIS CARROLL
 Job cpu time:       0 days  0 hours  3 minutes 15.8 seconds.
 Elapsed time:       0 days  0 hours  0 minutes 17.3 seconds.
 File lengths (MBytes):  RWF=     32 Int=      0 D2E=      0 Chk=      4 Scr=      1
 Normal termination of Gaussian 16 at Tue Nov 28 23:07:25 2023.
