 Set GAUSS_MDEF to "14GB".
 Entering Gaussian System, Link 0=g16
 Initial command:
 /home/sekinelabo/g16/l1.exe "/home/sekinelabo/g16temp/Gau-207975.inp" -scrdir="/home/sekinelabo/g16temp/"
 Entering Link 1 = /home/sekinelabo/g16/l1.exe PID=    207977.
  
 Copyright (c) 1988-2017, Gaussian, Inc.  All Rights Reserved.
  
 This is part of the Gaussian(R) 16 program.  It is based on
 the Gaussian(R) 09 system (copyright 2009, Gaussian, Inc.),
 the Gaussian(R) 03 system (copyright 2003, Gaussian, Inc.),
 the Gaussian(R) 98 system (copyright 1998, Gaussian, Inc.),
 the Gaussian(R) 94 system (copyright 1995, Gaussian, Inc.),
 the Gaussian 92(TM) system (copyright 1992, Gaussian, Inc.),
 the Gaussian 90(TM) system (copyright 1990, Gaussian, Inc.),
 the Gaussian 88(TM) system (copyright 1988, Gaussian, Inc.),
 the Gaussian 86(TM) system (copyright 1986, Carnegie Mellon
 University), and the Gaussian 82(TM) system (copyright 1983,
 Carnegie Mellon University). Gaussian is a federally registered
 trademark of Gaussian, Inc.
  
 This software contains proprietary and confidential information,
 including trade secrets, belonging to Gaussian, Inc.
  
 This software is provided under written license and may be
 used, copied, transmitted, or stored only in accord with that
 written license.
  
 The following legend is applicable only to US Government
 contracts under FAR:
  
                    RESTRICTED RIGHTS LEGEND
  
 Use, reproduction and disclosure by the US Government is
 subject to restrictions as set forth in subparagraphs (a)
 and (c) of the Commercial Computer Software - Restricted
 Rights clause in FAR 52.227-19.
  
 Gaussian, Inc.
 340 Quinnipiac St., Bldg. 40, Wallingford CT 06492
  
  
 ---------------------------------------------------------------
 Warning -- This program may not be used in any manner that
 competes with the business of Gaussian, Inc. or will provide
 assistance to any competitor of Gaussian, Inc.  The licensee
 of this program is prohibited from giving any competitor of
 Gaussian, Inc. access to this program.  By using this program,
 the user acknowledges that Gaussian, Inc. is engaged in the
 business of creating and licensing software in the field of
 computational chemistry and represents and warrants to the
 licensee that it is not a competitor of Gaussian, Inc. and that
 it will not use this program in any manner prohibited above.
 ---------------------------------------------------------------
  

 Cite this work as:
 Gaussian 16, Revision B.01,
 M. J. Frisch, G. W. Trucks, H. B. Schlegel, G. E. Scuseria, 
 M. A. Robb, J. R. Cheeseman, G. Scalmani, V. Barone, 
 G. A. Petersson, H. Nakatsuji, X. Li, M. Caricato, A. V. Marenich, 
 J. Bloino, B. G. Janesko, R. Gomperts, B. Mennucci, H. P. Hratchian, 
 J. V. Ortiz, A. F. Izmaylov, J. L. Sonnenberg, D. Williams-Young, 
 F. Ding, F. Lipparini, F. Egidi, J. Goings, B. Peng, A. Petrone, 
 T. Henderson, D. Ranasinghe, V. G. Zakrzewski, J. Gao, N. Rega, 
 G. Zheng, W. Liang, M. Hada, M. Ehara, K. Toyota, R. Fukuda, 
 J. Hasegawa, M. Ishida, T. Nakajima, Y. Honda, O. Kitao, H. Nakai, 
 T. Vreven, K. Throssell, J. A. Montgomery, Jr., J. E. Peralta, 
 F. Ogliaro, M. J. Bearpark, J. J. Heyd, E. N. Brothers, K. N. Kudin, 
 V. N. Staroverov, T. A. Keith, R. Kobayashi, J. Normand, 
 K. Raghavachari, A. P. Rendell, J. C. Burant, S. S. Iyengar, 
 J. Tomasi, M. Cossi, J. M. Millam, M. Klene, C. Adamo, R. Cammi, 
 J. W. Ochterski, R. L. Martin, K. Morokuma, O. Farkas, 
 J. B. Foresman, and D. J. Fox, Gaussian, Inc., Wallingford CT, 2016.
 
 ******************************************
 Gaussian 16:  ES64L-G16RevB.01 20-Dec-2017
                28-Nov-2023 
 ******************************************
 %nproc=15
 Will use up to   15 processors via shared memory.
 -------------------------
 #P B3LYP/6-311+g(d) force
 -------------------------
 1/10=7,30=1,38=1/1,3;
 2/12=2,17=6,18=5,40=1/2;
 3/5=4,6=6,7=11,11=2,25=1,30=1,71=1,74=-5/1,2,3;
 4//1;
 5/5=2,38=5/2;
 6/7=2,8=2,9=2,10=2,28=1/1;
 7/29=1/1,2,3,16;
 1/10=7,30=1/3;
 99//99;
 Leave Link    1 at Tue Nov 28 23:46:43 2023, MaxMem=           0 cpu:               0.3 elap:               0.0
 (Enter /home/sekinelabo/g16/l101.exe)
 -----
 DPGEN
 -----
 Symbolic Z-matrix:
 Charge =  0 Multiplicity = 2
 Na                    13.3898   16.745    14.169 
 Na                    16.9557   17.7654   15.6643 
 Na                    15.4226   14.8031   16.2026 
 Na                    18.4751   14.718    14.666 
 Na                    14.1923   12.029    16.622 
 Na                    13.5925   17.3566   17.286 
 Na                    15.3976   14.0083   12.8157 
 
 ITRead=  0  0  0  0  0  0  0
 MicOpt= -1 -1 -1 -1 -1 -1 -1
 NAtoms=      7 NQM=        7 NQMF=       0 NMMI=      0 NMMIF=      0
                NMic=       0 NMicF=      0.
                    Isotopes and Nuclear Properties:
 (Nuclear quadrupole moments (NQMom) in fm**2, nuclear magnetic moments (NMagM)
  in nuclear magnetons)

  Atom         1           2           3           4           5           6           7
 IAtWgt=          23          23          23          23          23          23          23
 AtmWgt=  22.9897697  22.9897697  22.9897697  22.9897697  22.9897697  22.9897697  22.9897697
 NucSpn=           3           3           3           3           3           3           3
 AtZEff=  -0.0000000  -0.0000000  -0.0000000  -0.0000000  -0.0000000  -0.0000000  -0.0000000
 NQMom=   10.4000000  10.4000000  10.4000000  10.4000000  10.4000000  10.4000000  10.4000000
 NMagM=    2.2175200   2.2175200   2.2175200   2.2175200   2.2175200   2.2175200   2.2175200
 AtZNuc=  11.0000000  11.0000000  11.0000000  11.0000000  11.0000000  11.0000000  11.0000000
 Leave Link  101 at Tue Nov 28 23:46:43 2023, MaxMem=  1879048192 cpu:               2.4 elap:               0.2
 (Enter /home/sekinelabo/g16/l103.exe)

 GradGradGradGradGradGradGradGradGradGradGradGradGradGradGradGradGradGrad
 Berny optimization.
 Initialization pass.
 Trust Radius=3.00D-01 FncErr=1.00D-07 GrdErr=1.00D-07 EigMax=2.50D+02 EigMin=1.00D-04
 Number of steps in this run=      2 maximum allowed number of steps=      2.
 GradGradGradGradGradGradGradGradGradGradGradGradGradGradGradGradGradGrad

 Leave Link  103 at Tue Nov 28 23:46:43 2023, MaxMem=  1879048192 cpu:               0.2 elap:               0.0
 (Enter /home/sekinelabo/g16/l202.exe)
                          Input orientation:                          
 ---------------------------------------------------------------------
 Center     Atomic      Atomic             Coordinates (Angstroms)
 Number     Number       Type             X           Y           Z
 ---------------------------------------------------------------------
      1         11           0       13.389800   16.745000   14.169000
      2         11           0       16.955700   17.765400   15.664300
      3         11           0       15.422600   14.803100   16.202600
      4         11           0       18.475100   14.718000   14.666000
      5         11           0       14.192300   12.029000   16.622000
      6         11           0       13.592500   17.356600   17.286000
      7         11           0       15.397600   14.008300   12.815700
 ---------------------------------------------------------------------
                    Distance matrix (angstroms):
                    1          2          3          4          5
     1  Na   0.000000
     2  Na   3.999098   0.000000
     3  Na   3.469695   3.378666   0.000000
     4  Na   5.496910   3.548496   3.418499   0.000000
     5  Na   5.376046   6.438933   3.063522   5.422087   0.000000
     6  Na   3.182897   3.756081   3.323159   6.137295   5.402220
     7  Na   3.654067   4.965682   3.478998   3.660368   4.456265
                    6          7
     6  Na   0.000000
     7  Na   5.869675   0.000000
 Stoichiometry    Na7(2)
 Framework group  C1[X(Na7)]
 Deg. of freedom    15
 Full point group                 C1      NOp   1
 Largest Abelian subgroup         C1      NOp   1
 Largest concise Abelian subgroup C1      NOp   1
                         Standard orientation:                         
 ---------------------------------------------------------------------
 Center     Atomic      Atomic             Coordinates (Angstroms)
 Number     Number       Type             X           Y           Z
 ---------------------------------------------------------------------
      1         11           0        1.553421   -0.670763    2.075590
      2         11           0        1.781255    2.213392   -0.685302
      3         11           0       -0.278297   -0.459030   -0.863586
      4         11           0       -1.739372    2.631368   -0.834644
      5         11           0       -2.294903   -2.758099   -1.044555
      6         11           0        2.914884   -1.367404   -0.715815
      7         11           0       -1.936987    0.410537    2.068311
 ---------------------------------------------------------------------
 Rotational constants (GHZ):           0.6421929           0.5738817           0.4548176
 Leave Link  202 at Tue Nov 28 23:46:43 2023, MaxMem=  1879048192 cpu:               0.0 elap:               0.0
 (Enter /home/sekinelabo/g16/l301.exe)
 Standard basis: 6-311+G(d) (5D, 7F)
 Ernie: Thresh=  0.10000D-02 Tol=  0.10000D-05 Strict=F.
 There are   217 symmetry adapted cartesian basis functions of A   symmetry.
 There are   210 symmetry adapted basis functions of A   symmetry.
   210 basis functions,   350 primitive gaussians,   217 cartesian basis functions
    39 alpha electrons       38 beta electrons
       nuclear repulsion energy       326.7153979451 Hartrees.
 IExCor=  402 DFT=T Ex+Corr=B3LYP ExCW=0 ScaHFX=  0.200000
 ScaDFX=  0.800000  0.720000  1.000000  0.810000 ScalE2=  1.000000  1.000000
 IRadAn=      5 IRanWt=     -1 IRanGd=            0 ICorTp=0 IEmpDi=  4
 NAtoms=    7 NActive=    7 NUniq=    7 SFac= 1.00D+00 NAtFMM=   60 NAOKFM=F Big=F
 Integral buffers will be    131072 words long.
 Raffenetti 2 integral format.
 Two-electron integral symmetry is turned on.
 Leave Link  301 at Tue Nov 28 23:46:43 2023, MaxMem=  1879048192 cpu:               0.5 elap:               0.0
 (Enter /home/sekinelabo/g16/l302.exe)
 NPDir=0 NMtPBC=     1 NCelOv=     1 NCel=       1 NClECP=     1 NCelD=      1
         NCelK=      1 NCelE2=     1 NClLst=     1 CellRange=     0.0.
 One-electron integrals computed using PRISM.
 One-electron integral symmetry used in STVInt
 NBasis=   210 RedAO= T EigKep=  1.68D-06  NBF=   210
 NBsUse=   210 1.00D-06 EigRej= -1.00D+00 NBFU=   210
 Precomputing XC quadrature grid using
 IXCGrd= 4 IRadAn=           5 IRanWt=          -1 IRanGd=           0 AccXCQ= 0.00D+00.
 Generated NRdTot=       0 NPtTot=           0 NUsed=           0 NTot=          32
 NSgBfM=   211   211   211   211   211 MxSgAt=     7 MxSgA2=     7.
 Leave Link  302 at Tue Nov 28 23:46:43 2023, MaxMem=  1879048192 cpu:               2.0 elap:               0.1
 (Enter /home/sekinelabo/g16/l303.exe)
 DipDrv:  MaxL=1.
 Leave Link  303 at Tue Nov 28 23:46:43 2023, MaxMem=  1879048192 cpu:               0.6 elap:               0.0
 (Enter /home/sekinelabo/g16/l401.exe)
 ExpMin= 7.60D-03 ExpMax= 3.62D+04 ExpMxC= 1.21D+03 IAcc=3 IRadAn=         5 AccDes= 0.00D+00
 Harris functional with IExCor=  402 and IRadAn=       5 diagonalized for initial guess.
 HarFok:  IExCor=  402 AccDes= 0.00D+00 IRadAn=         5 IDoV= 1 UseB2=F ITyADJ=14
 ICtDFT=  3500011 ScaDFX=  1.000000  1.000000  1.000000  1.000000
 FoFCou: FMM=F IPFlag=           0 FMFlag=      100000 FMFlg1=           0
         NFxFlg=           0 DoJE=T BraDBF=F KetDBF=T FulRan=T
         wScrn=  0.000000 ICntrl=       500 IOpCl=  0 I1Cent=   200000004 NGrid=           0
         NMat0=    1 NMatS0=      1 NMatT0=    0 NMatD0=    1 NMtDS0=    0 NMtDT0=    0
 Petite list used in FoFCou.
 Harris En= -1135.89621499237    
 JPrj=0 DoOrth=F DoCkMO=F.
 Initial guess <Sx>= 0.0000 <Sy>= 0.0000 <Sz>= 0.5000 <S**2>= 0.7500 S= 0.5000
 Leave Link  401 at Tue Nov 28 23:46:43 2023, MaxMem=  1879048192 cpu:               4.4 elap:               0.3
 (Enter /home/sekinelabo/g16/l502.exe)
 Keep R1 and R2 ints in memory in canonical form, NReq=506573335.
 FoFCou: FMM=F IPFlag=           0 FMFlag=           0 FMFlg1=           0
         NFxFlg=           0 DoJE=F BraDBF=F KetDBF=F FulRan=T
         wScrn=  0.000000 ICntrl=       600 IOpCl=  0 I1Cent=           0 NGrid=           0
         NMat0=    1 NMatS0=  22155 NMatT0=    0 NMatD0=    1 NMtDS0=    0 NMtDT0=    0
 Symmetry not used in FoFCou.
 Two-electron integral symmetry not used.
 UHF open shell SCF:
 Using DIIS extrapolation, IDIIS=  1040.
 NGot=  1879048192 LenX=  1388082565 LenY=  1388035035
 Requested convergence on RMS density matrix=1.00D-08 within 128 cycles.
 Requested convergence on MAX density matrix=1.00D-06.
 Requested convergence on             energy=1.00D-06.
 No special actions if energy rises.

 Cycle   1  Pass 1  IDiag  1:
 E= -1136.08749107421    
 DIIS: error= 1.09D-02 at cycle   1 NSaved=   1.
 NSaved= 1 IEnMin= 1 EnMin= -1136.08749107421     IErMin= 1 ErrMin= 1.09D-02
 ErrMax= 1.09D-02  0.00D+00 EMaxC= 1.00D-01 BMatC= 1.93D-01 BMatP= 1.93D-01
 IDIUse=3 WtCom= 8.91D-01 WtEn= 1.09D-01
 Coeff-Com:  0.100D+01
 Coeff-En:   0.100D+01
 Coeff:      0.100D+01
 Gap=     0.050 Goal=   None    Shift=    0.000
 Gap=     0.033 Goal=   None    Shift=    0.000
 GapD=    0.033 DampG=0.250 DampE=0.500 DampFc=0.2500 IDamp=-1.
 Damping current iteration by 2.50D-01
 RMSDP=8.07D-02 MaxDP=7.36D+00              OVMax= 2.38D-01

 Cycle   2  Pass 1  IDiag  1:
 E= -1136.10065443015     Delta-E=       -0.013163355938 Rises=F Damp=T
 DIIS: error= 7.66D-03 at cycle   2 NSaved=   2.
 NSaved= 2 IEnMin= 2 EnMin= -1136.10065443015     IErMin= 2 ErrMin= 7.66D-03
 ErrMax= 7.66D-03  0.00D+00 EMaxC= 1.00D-01 BMatC= 7.32D-02 BMatP= 1.93D-01
 IDIUse=3 WtCom= 9.23D-01 WtEn= 7.66D-02
 Coeff-Com: -0.126D+01 0.226D+01
 Coeff-En:   0.000D+00 0.100D+01
 Coeff:     -0.116D+01 0.216D+01
 Gap=     0.059 Goal=   None    Shift=    0.000
 Gap=     0.037 Goal=   None    Shift=    0.000
 RMSDP=2.87D-02 MaxDP=2.70D+00 DE=-1.32D-02 OVMax= 1.65D-01

 Cycle   3  Pass 1  IDiag  1:
 E= -1136.12305572976     Delta-E=       -0.022401299605 Rises=F Damp=F
 DIIS: error= 2.91D-03 at cycle   3 NSaved=   3.
 NSaved= 3 IEnMin= 3 EnMin= -1136.12305572976     IErMin= 3 ErrMin= 2.91D-03
 ErrMax= 2.91D-03  0.00D+00 EMaxC= 1.00D-01 BMatC= 2.72D-03 BMatP= 7.32D-02
 IDIUse=3 WtCom= 9.71D-01 WtEn= 2.91D-02
 Coeff-Com: -0.209D+00 0.370D+00 0.838D+00
 Coeff-En:   0.000D+00 0.000D+00 0.100D+01
 Coeff:     -0.203D+00 0.359D+00 0.843D+00
 Gap=     0.058 Goal=   None    Shift=    0.000
 Gap=     0.035 Goal=   None    Shift=    0.000
 RMSDP=1.61D-02 MaxDP=1.44D+00 DE=-2.24D-02 OVMax= 7.33D-02

 Cycle   4  Pass 1  IDiag  1:
 E= -1136.12301369506     Delta-E=        0.000042034700 Rises=F Damp=F
 DIIS: error= 2.80D-03 at cycle   4 NSaved=   4.
 NSaved= 4 IEnMin= 3 EnMin= -1136.12305572976     IErMin= 4 ErrMin= 2.80D-03
 ErrMax= 2.80D-03  0.00D+00 EMaxC= 1.00D-01 BMatC= 2.60D-03 BMatP= 2.72D-03
 IDIUse=3 WtCom= 9.72D-01 WtEn= 2.80D-02
 Coeff-Com: -0.364D-02 0.483D-02 0.494D+00 0.504D+00
 Coeff-En:   0.000D+00 0.000D+00 0.504D+00 0.496D+00
 Coeff:     -0.354D-02 0.469D-02 0.495D+00 0.504D+00
 Gap=     0.059 Goal=   None    Shift=    0.000
 Gap=     0.037 Goal=   None    Shift=    0.000
 RMSDP=8.55D-03 MaxDP=7.95D-01 DE= 4.20D-05 OVMax= 4.91D-02

 Cycle   5  Pass 1  IDiag  1:
 E= -1136.12518650713     Delta-E=       -0.002172812075 Rises=F Damp=F
 DIIS: error= 5.00D-04 at cycle   5 NSaved=   5.
 NSaved= 5 IEnMin= 5 EnMin= -1136.12518650713     IErMin= 5 ErrMin= 5.00D-04
 ErrMax= 5.00D-04  0.00D+00 EMaxC= 1.00D-01 BMatC= 6.22D-05 BMatP= 2.60D-03
 IDIUse=3 WtCom= 9.95D-01 WtEn= 5.00D-03
 Coeff-Com: -0.271D-02 0.260D-02 0.273D+00 0.292D+00 0.435D+00
 Coeff-En:   0.000D+00 0.000D+00 0.000D+00 0.000D+00 0.100D+01
 Coeff:     -0.270D-02 0.258D-02 0.272D+00 0.291D+00 0.438D+00
 Gap=     0.059 Goal=   None    Shift=    0.000
 Gap=     0.037 Goal=   None    Shift=    0.000
 RMSDP=8.52D-04 MaxDP=7.16D-02 DE=-2.17D-03 OVMax= 1.24D-02

 Cycle   6  Pass 1  IDiag  1:
 E= -1136.12526627910     Delta-E=       -0.000079771969 Rises=F Damp=F
 DIIS: error= 1.46D-04 at cycle   6 NSaved=   6.
 NSaved= 6 IEnMin= 6 EnMin= -1136.12526627910     IErMin= 6 ErrMin= 1.46D-04
 ErrMax= 1.46D-04  0.00D+00 EMaxC= 1.00D-01 BMatC= 5.63D-06 BMatP= 6.22D-05
 IDIUse=3 WtCom= 9.99D-01 WtEn= 1.46D-03
 Coeff-Com: -0.298D-02 0.356D-02-0.558D-01-0.480D-01 0.181D+00 0.923D+00
 Coeff-En:   0.000D+00 0.000D+00 0.000D+00 0.000D+00 0.567D-02 0.994D+00
 Coeff:     -0.297D-02 0.356D-02-0.557D-01-0.480D-01 0.180D+00 0.923D+00
 Gap=     0.059 Goal=   None    Shift=    0.000
 Gap=     0.037 Goal=   None    Shift=    0.000
 RMSDP=7.38D-04 MaxDP=7.67D-02 DE=-7.98D-05 OVMax= 6.37D-03

 Cycle   7  Pass 1  IDiag  1:
 E= -1136.12527681465     Delta-E=       -0.000010535550 Rises=F Damp=F
 DIIS: error= 5.85D-05 at cycle   7 NSaved=   7.
 NSaved= 7 IEnMin= 7 EnMin= -1136.12527681465     IErMin= 7 ErrMin= 5.85D-05
 ErrMax= 5.85D-05  0.00D+00 EMaxC= 1.00D-01 BMatC= 1.76D-06 BMatP= 5.63D-06
 IDIUse=1 WtCom= 1.00D+00 WtEn= 0.00D+00
 Coeff-Com: -0.116D-02 0.135D-02-0.612D-01-0.576D-01 0.617D-01 0.538D+00
 Coeff-Com:  0.519D+00
 Coeff:     -0.116D-02 0.135D-02-0.612D-01-0.576D-01 0.617D-01 0.538D+00
 Coeff:      0.519D+00
 Gap=     0.059 Goal=   None    Shift=    0.000
 Gap=     0.037 Goal=   None    Shift=    0.000
 RMSDP=2.12D-04 MaxDP=1.92D-02 DE=-1.05D-05 OVMax= 2.18D-03

 Cycle   8  Pass 1  IDiag  1:
 E= -1136.12527964905     Delta-E=       -0.000002834400 Rises=F Damp=F
 DIIS: error= 2.67D-05 at cycle   8 NSaved=   8.
 NSaved= 8 IEnMin= 8 EnMin= -1136.12527964905     IErMin= 8 ErrMin= 2.67D-05
 ErrMax= 2.67D-05  0.00D+00 EMaxC= 1.00D-01 BMatC= 2.21D-07 BMatP= 1.76D-06
 IDIUse=1 WtCom= 1.00D+00 WtEn= 0.00D+00
 Coeff-Com:  0.109D-02-0.138D-02-0.104D-01-0.114D-01-0.426D-01-0.969D-01
 Coeff-Com:  0.193D+00 0.969D+00
 Coeff:      0.109D-02-0.138D-02-0.104D-01-0.114D-01-0.426D-01-0.969D-01
 Coeff:      0.193D+00 0.969D+00
 Gap=     0.059 Goal=   None    Shift=    0.000
 Gap=     0.037 Goal=   None    Shift=    0.000
 RMSDP=2.41D-04 MaxDP=2.24D-02 DE=-2.83D-06 OVMax= 2.06D-03

 Cycle   9  Pass 1  IDiag  1:
 E= -1136.12528065099     Delta-E=       -0.000001001943 Rises=F Damp=F
 DIIS: error= 7.80D-06 at cycle   9 NSaved=   9.
 NSaved= 9 IEnMin= 9 EnMin= -1136.12528065099     IErMin= 9 ErrMin= 7.80D-06
 ErrMax= 7.80D-06  0.00D+00 EMaxC= 1.00D-01 BMatC= 3.58D-08 BMatP= 2.21D-07
 IDIUse=1 WtCom= 1.00D+00 WtEn= 0.00D+00
 Coeff-Com:  0.533D-03-0.668D-03 0.534D-02 0.403D-02-0.176D-01-0.673D-01
 Coeff-Com: -0.443D-01 0.129D+00 0.991D+00
 Coeff:      0.533D-03-0.668D-03 0.534D-02 0.403D-02-0.176D-01-0.673D-01
 Coeff:     -0.443D-01 0.129D+00 0.991D+00
 Gap=     0.059 Goal=   None    Shift=    0.000
 Gap=     0.037 Goal=   None    Shift=    0.000
 RMSDP=6.88D-05 MaxDP=5.02D-03 DE=-1.00D-06 OVMax= 1.37D-03

 Cycle  10  Pass 1  IDiag  1:
 E= -1136.12528090231     Delta-E=       -0.000000251320 Rises=F Damp=F
 DIIS: error= 8.79D-06 at cycle  10 NSaved=  10.
 NSaved=10 IEnMin=10 EnMin= -1136.12528090231     IErMin= 9 ErrMin= 7.80D-06
 ErrMax= 8.79D-06  0.00D+00 EMaxC= 1.00D-01 BMatC= 2.36D-08 BMatP= 3.58D-08
 IDIUse=1 WtCom= 1.00D+00 WtEn= 0.00D+00
 Coeff-Com:  0.202D-04-0.156D-04 0.576D-02 0.520D-02-0.820D-03-0.143D-01
 Coeff-Com: -0.738D-01-0.154D+00 0.565D+00 0.668D+00
 Coeff:      0.202D-04-0.156D-04 0.576D-02 0.520D-02-0.820D-03-0.143D-01
 Coeff:     -0.738D-01-0.154D+00 0.565D+00 0.668D+00
 Gap=     0.059 Goal=   None    Shift=    0.000
 Gap=     0.037 Goal=   None    Shift=    0.000
 RMSDP=4.23D-05 MaxDP=3.05D-03 DE=-2.51D-07 OVMax= 6.46D-04

 Cycle  11  Pass 1  IDiag  1:
 E= -1136.12528100715     Delta-E=       -0.000000104832 Rises=F Damp=F
 DIIS: error= 4.20D-06 at cycle  11 NSaved=  11.
 NSaved=11 IEnMin=11 EnMin= -1136.12528100715     IErMin=11 ErrMin= 4.20D-06
 ErrMax= 4.20D-06  0.00D+00 EMaxC= 1.00D-01 BMatC= 7.43D-09 BMatP= 2.36D-08
 IDIUse=1 WtCom= 1.00D+00 WtEn= 0.00D+00
 Coeff-Com: -0.444D-03 0.574D-03-0.108D-03 0.497D-03 0.115D-01 0.426D-01
 Coeff-Com: -0.310D-01-0.206D+00-0.231D+00 0.372D+00 0.104D+01
 Coeff:     -0.444D-03 0.574D-03-0.108D-03 0.497D-03 0.115D-01 0.426D-01
 Coeff:     -0.310D-01-0.206D+00-0.231D+00 0.372D+00 0.104D+01
 Gap=     0.059 Goal=   None    Shift=    0.000
 Gap=     0.037 Goal=   None    Shift=    0.000
 RMSDP=4.84D-05 MaxDP=3.88D-03 DE=-1.05D-07 OVMax= 1.11D-03

 Cycle  12  Pass 1  IDiag  1:
 E= -1136.12528108521     Delta-E=       -0.000000078062 Rises=F Damp=F
 DIIS: error= 2.59D-06 at cycle  12 NSaved=  12.
 NSaved=12 IEnMin=12 EnMin= -1136.12528108521     IErMin=12 ErrMin= 2.59D-06
 ErrMax= 2.59D-06  0.00D+00 EMaxC= 1.00D-01 BMatC= 2.30D-09 BMatP= 7.43D-09
 IDIUse=1 WtCom= 1.00D+00 WtEn= 0.00D+00
 Coeff-Com: -0.136D-03 0.174D-03-0.105D-02-0.631D-03 0.306D-02 0.154D-01
 Coeff-Com: -0.175D-02-0.179D-01-0.157D+00-0.151D+00 0.334D+00 0.976D+00
 Coeff:     -0.136D-03 0.174D-03-0.105D-02-0.631D-03 0.306D-02 0.154D-01
 Coeff:     -0.175D-02-0.179D-01-0.157D+00-0.151D+00 0.334D+00 0.976D+00
 Gap=     0.059 Goal=   None    Shift=    0.000
 Gap=     0.037 Goal=   None    Shift=    0.000
 RMSDP=2.61D-05 MaxDP=2.26D-03 DE=-7.81D-08 OVMax= 4.98D-04

 Cycle  13  Pass 1  IDiag  1:
 E= -1136.12528110369     Delta-E=       -0.000000018479 Rises=F Damp=F
 DIIS: error= 1.53D-06 at cycle  13 NSaved=  13.
 NSaved=13 IEnMin=13 EnMin= -1136.12528110369     IErMin=13 ErrMin= 1.53D-06
 ErrMax= 1.53D-06  0.00D+00 EMaxC= 1.00D-01 BMatC= 4.25D-10 BMatP= 2.30D-09
 IDIUse=1 WtCom= 1.00D+00 WtEn= 0.00D+00
 Coeff-Com:  0.111D-03-0.145D-03-0.133D-03-0.148D-03-0.280D-02-0.613D-02
 Coeff-Com:  0.447D-02 0.363D-01 0.889D-01-0.121D+00-0.251D+00-0.520D-01
 Coeff-Com:  0.130D+01
 Coeff:      0.111D-03-0.145D-03-0.133D-03-0.148D-03-0.280D-02-0.613D-02
 Coeff:      0.447D-02 0.363D-01 0.889D-01-0.121D+00-0.251D+00-0.520D-01
 Coeff:      0.130D+01
 Gap=     0.059 Goal=   None    Shift=    0.000
 Gap=     0.037 Goal=   None    Shift=    0.000
 RMSDP=1.60D-05 MaxDP=1.61D-03 DE=-1.85D-08 OVMax= 3.56D-04

 Cycle  14  Pass 1  IDiag  1:
 E= -1136.12528110896     Delta-E=       -0.000000005274 Rises=F Damp=F
 DIIS: error= 6.47D-07 at cycle  14 NSaved=  14.
 NSaved=14 IEnMin=14 EnMin= -1136.12528110896     IErMin=14 ErrMin= 6.47D-07
 ErrMax= 6.47D-07  0.00D+00 EMaxC= 1.00D-01 BMatC= 1.27D-10 BMatP= 4.25D-10
 IDIUse=1 WtCom= 1.00D+00 WtEn= 0.00D+00
 Coeff-Com:  0.173D-04-0.209D-04 0.138D-03 0.299D-04-0.519D-03-0.509D-03
 Coeff-Com: -0.197D-02-0.342D-02 0.351D-01 0.181D-01-0.224D-01-0.284D+00
 Coeff-Com:  0.312D-01 0.123D+01
 Coeff:      0.173D-04-0.209D-04 0.138D-03 0.299D-04-0.519D-03-0.509D-03
 Coeff:     -0.197D-02-0.342D-02 0.351D-01 0.181D-01-0.224D-01-0.284D+00
 Coeff:      0.312D-01 0.123D+01
 Gap=     0.059 Goal=   None    Shift=    0.000
 Gap=     0.037 Goal=   None    Shift=    0.000
 RMSDP=7.69D-06 MaxDP=6.30D-04 DE=-5.27D-09 OVMax= 1.62D-04

 Cycle  15  Pass 1  IDiag  1:
 E= -1136.12528111010     Delta-E=       -0.000000001139 Rises=F Damp=F
 DIIS: error= 2.86D-07 at cycle  15 NSaved=  15.
 NSaved=15 IEnMin=15 EnMin= -1136.12528111010     IErMin=15 ErrMin= 2.86D-07
 ErrMax= 2.86D-07  0.00D+00 EMaxC= 1.00D-01 BMatC= 1.44D-11 BMatP= 1.27D-10
 IDIUse=1 WtCom= 1.00D+00 WtEn= 0.00D+00
 Coeff-Com: -0.275D-04 0.364D-04 0.560D-04 0.484D-04 0.724D-03 0.145D-02
 Coeff-Com: -0.195D-02-0.981D-02-0.148D-01 0.295D-01 0.566D-01 0.474D-02
 Coeff-Com: -0.288D+00-0.421D-01 0.126D+01
 Coeff:     -0.275D-04 0.364D-04 0.560D-04 0.484D-04 0.724D-03 0.145D-02
 Coeff:     -0.195D-02-0.981D-02-0.148D-01 0.295D-01 0.566D-01 0.474D-02
 Coeff:     -0.288D+00-0.421D-01 0.126D+01
 Gap=     0.059 Goal=   None    Shift=    0.000
 Gap=     0.037 Goal=   None    Shift=    0.000
 RMSDP=3.02D-06 MaxDP=1.99D-04 DE=-1.14D-09 OVMax= 6.60D-05

 Cycle  16  Pass 1  IDiag  1:
 E= -1136.12528111025     Delta-E=       -0.000000000151 Rises=F Damp=F
 DIIS: error= 8.00D-08 at cycle  16 NSaved=  16.
 NSaved=16 IEnMin=16 EnMin= -1136.12528111025     IErMin=16 ErrMin= 8.00D-08
 ErrMax= 8.00D-08  0.00D+00 EMaxC= 1.00D-01 BMatC= 2.14D-12 BMatP= 1.44D-11
 IDIUse=1 WtCom= 1.00D+00 WtEn= 0.00D+00
 Coeff-Com: -0.388D-05 0.476D-05-0.125D-04 0.995D-05 0.652D-04 0.131D-03
 Coeff-Com:  0.351D-03-0.519D-04-0.584D-02-0.362D-03 0.657D-02 0.293D-01
 Coeff-Com:  0.622D-02-0.157D+00-0.354D-01 0.116D+01
 Coeff:     -0.388D-05 0.476D-05-0.125D-04 0.995D-05 0.652D-04 0.131D-03
 Coeff:      0.351D-03-0.519D-04-0.584D-02-0.362D-03 0.657D-02 0.293D-01
 Coeff:      0.622D-02-0.157D+00-0.354D-01 0.116D+01
 Gap=     0.059 Goal=   None    Shift=    0.000
 Gap=     0.037 Goal=   None    Shift=    0.000
 RMSDP=9.07D-07 MaxDP=7.48D-05 DE=-1.51D-10 OVMax= 1.36D-05

 Cycle  17  Pass 1  IDiag  1:
 E= -1136.12528111028     Delta-E=       -0.000000000030 Rises=F Damp=F
 DIIS: error= 2.78D-08 at cycle  17 NSaved=  17.
 NSaved=17 IEnMin=17 EnMin= -1136.12528111028     IErMin=17 ErrMin= 2.78D-08
 ErrMax= 2.78D-08  0.00D+00 EMaxC= 1.00D-01 BMatC= 6.21D-13 BMatP= 2.14D-12
 IDIUse=1 WtCom= 1.00D+00 WtEn= 0.00D+00
 Coeff-Com:  0.517D-05-0.696D-05-0.154D-04-0.714D-05-0.140D-03-0.284D-03
 Coeff-Com:  0.483D-03 0.224D-02 0.184D-02-0.769D-02-0.106D-01 0.119D-01
 Coeff-Com:  0.642D-01-0.513D-01-0.260D+00 0.361D+00 0.888D+00
 Coeff:      0.517D-05-0.696D-05-0.154D-04-0.714D-05-0.140D-03-0.284D-03
 Coeff:      0.483D-03 0.224D-02 0.184D-02-0.769D-02-0.106D-01 0.119D-01
 Coeff:      0.642D-01-0.513D-01-0.260D+00 0.361D+00 0.888D+00
 Gap=     0.059 Goal=   None    Shift=    0.000
 Gap=     0.037 Goal=   None    Shift=    0.000
 RMSDP=4.06D-07 MaxDP=2.86D-05 DE=-3.05D-11 OVMax= 4.44D-06

 Cycle  18  Pass 1  IDiag  1:
 E= -1136.12528111028     Delta-E=       -0.000000000001 Rises=F Damp=F
 DIIS: error= 1.39D-08 at cycle  18 NSaved=  18.
 NSaved=18 IEnMin=18 EnMin= -1136.12528111028     IErMin=18 ErrMin= 1.39D-08
 ErrMax= 1.39D-08  0.00D+00 EMaxC= 1.00D-01 BMatC= 8.40D-14 BMatP= 6.21D-13
 IDIUse=1 WtCom= 1.00D+00 WtEn= 0.00D+00
 Coeff-Com:  0.108D-05-0.136D-05 0.126D-05-0.406D-05-0.162D-04-0.283D-04
 Coeff-Com: -0.714D-04 0.719D-04 0.112D-02-0.203D-03-0.105D-02-0.685D-02
 Coeff-Com: -0.463D-02 0.453D-01-0.138D-01-0.253D+00 0.325D-01 0.120D+01
 Coeff:      0.108D-05-0.136D-05 0.126D-05-0.406D-05-0.162D-04-0.283D-04
 Coeff:     -0.714D-04 0.719D-04 0.112D-02-0.203D-03-0.105D-02-0.685D-02
 Coeff:     -0.463D-02 0.453D-01-0.138D-01-0.253D+00 0.325D-01 0.120D+01
 Gap=     0.059 Goal=   None    Shift=    0.000
 Gap=     0.037 Goal=   None    Shift=    0.000
 RMSDP=3.04D-07 MaxDP=2.76D-05 DE=-9.09D-13 OVMax= 3.10D-06

 Cycle  19  Pass 1  IDiag  1:
 E= -1136.12528111028     Delta-E=        0.000000000001 Rises=F Damp=F
 DIIS: error= 4.43D-09 at cycle  19 NSaved=  19.
 NSaved=19 IEnMin=18 EnMin= -1136.12528111028     IErMin=19 ErrMin= 4.43D-09
 ErrMax= 4.43D-09  0.00D+00 EMaxC= 1.00D-01 BMatC= 7.35D-15 BMatP= 8.40D-14
 IDIUse=1 WtCom= 1.00D+00 WtEn= 0.00D+00
 Coeff-Com: -0.632D-06 0.840D-06 0.178D-05 0.166D-05 0.133D-04 0.238D-04
 Coeff-Com: -0.283D-04-0.190D-03-0.372D-03 0.857D-03 0.117D-02-0.671D-03
 Coeff-Com: -0.454D-02-0.161D-02 0.259D-01 0.778D-02-0.101D+00-0.154D+00
 Coeff-Com:  0.123D+01
 Coeff:     -0.632D-06 0.840D-06 0.178D-05 0.166D-05 0.133D-04 0.238D-04
 Coeff:     -0.283D-04-0.190D-03-0.372D-03 0.857D-03 0.117D-02-0.671D-03
 Coeff:     -0.454D-02-0.161D-02 0.259D-01 0.778D-02-0.101D+00-0.154D+00
 Coeff:      0.123D+01
 Gap=     0.059 Goal=   None    Shift=    0.000
 Gap=     0.037 Goal=   None    Shift=    0.000
 RMSDP=5.36D-08 MaxDP=3.33D-06 DE= 9.09D-13 OVMax= 5.24D-07

 Cycle  20  Pass 1  IDiag  1:
 E= -1136.12528111028     Delta-E=       -0.000000000002 Rises=F Damp=F
 DIIS: error= 2.15D-09 at cycle  20 NSaved=  20.
 NSaved=20 IEnMin=20 EnMin= -1136.12528111028     IErMin=20 ErrMin= 2.15D-09
 ErrMax= 2.15D-09  0.00D+00 EMaxC= 1.00D-01 BMatC= 1.37D-15 BMatP= 7.35D-15
 IDIUse=1 WtCom= 1.00D+00 WtEn= 0.00D+00
 Large coefficients: NSaved= 20 BigCof=    0.00 CofMax=   10.00 Det=-2.11D-15
 Inversion failed.  Reducing to 19 matrices.
 Large coefficients: NSaved= 19 BigCof=    0.00 CofMax=   10.00 Det=-2.44D-15
 Inversion failed.  Reducing to 18 matrices.
 Large coefficients: NSaved= 18 BigCof=    0.00 CofMax=   10.00 Det=-2.45D-15
 Inversion failed.  Reducing to 17 matrices.
 Large coefficients: NSaved= 17 BigCof=    0.00 CofMax=   10.00 Det=-2.49D-15
 Inversion failed.  Reducing to 16 matrices.
 Large coefficients: NSaved= 16 BigCof=    0.00 CofMax=   10.00 Det=-2.53D-15
 Inversion failed.  Reducing to 15 matrices.
 Coeff-Com: -0.111D-05 0.421D-05-0.592D-05-0.300D-05 0.691D-04-0.456D-04
 Coeff-Com:  0.131D-03-0.276D-03-0.856D-03 0.570D-03 0.154D-01-0.152D-01
 Coeff-Com: -0.814D-01-0.597D-01 0.114D+01
 Coeff:     -0.111D-05 0.421D-05-0.592D-05-0.300D-05 0.691D-04-0.456D-04
 Coeff:      0.131D-03-0.276D-03-0.856D-03 0.570D-03 0.154D-01-0.152D-01
 Coeff:     -0.814D-01-0.597D-01 0.114D+01
 Gap=     0.059 Goal=   None    Shift=    0.000
 Gap=     0.037 Goal=   None    Shift=    0.000
 RMSDP=3.26D-08 MaxDP=2.57D-06 DE=-1.59D-12 OVMax= 2.18D-07

 Cycle  21  Pass 1  IDiag  1:
 E= -1136.12528111029     Delta-E=       -0.000000000003 Rises=F Damp=F
 DIIS: error= 8.80D-10 at cycle  21 NSaved=  16.
 NSaved=16 IEnMin=16 EnMin= -1136.12528111029     IErMin=16 ErrMin= 8.80D-10
 ErrMax= 8.80D-10  0.00D+00 EMaxC= 1.00D-01 BMatC= 3.82D-16 BMatP= 1.37D-15
 IDIUse=1 WtCom= 1.00D+00 WtEn= 0.00D+00
 Large coefficients: NSaved= 16 BigCof=    0.00 CofMax=   10.00 Det=-6.50D-16
 Inversion failed.  Reducing to 15 matrices.
 Coeff-Com:  0.115D-05-0.100D-05-0.186D-04-0.224D-04-0.539D-05 0.248D-03
 Coeff-Com:  0.254D-03-0.552D-03-0.270D-02 0.681D-02 0.145D-01-0.204D-01
 Coeff-Com: -0.191D+00 0.205D+00 0.987D+00
 Coeff:      0.115D-05-0.100D-05-0.186D-04-0.224D-04-0.539D-05 0.248D-03
 Coeff:      0.254D-03-0.552D-03-0.270D-02 0.681D-02 0.145D-01-0.204D-01
 Coeff:     -0.191D+00 0.205D+00 0.987D+00
 Gap=     0.059 Goal=   None    Shift=    0.000
 Gap=     0.037 Goal=   None    Shift=    0.000
 RMSDP=4.92D-08 MaxDP=4.33D-06 DE=-2.73D-12 OVMax= 1.13D-07

 Cycle  22  Pass 1  IDiag  1:
 E= -1136.12528111028     Delta-E=        0.000000000005 Rises=F Damp=F
 DIIS: error= 4.23D-10 at cycle  22 NSaved=  16.
 NSaved=16 IEnMin=15 EnMin= -1136.12528111029     IErMin=16 ErrMin= 4.23D-10
 ErrMax= 4.23D-10  0.00D+00 EMaxC= 1.00D-01 BMatC= 7.51D-17 BMatP= 3.82D-16
 IDIUse=1 WtCom= 1.00D+00 WtEn= 0.00D+00
 Large coefficients: NSaved= 16 BigCof=    0.00 CofMax=   10.00 Det=-1.84D-16
 Inversion failed.  Reducing to 15 matrices.
 Coeff-Com:  0.330D-05-0.821D-05-0.185D-04-0.677D-05 0.817D-04-0.243D-04
 Coeff-Com:  0.176D-03-0.857D-03-0.164D-02 0.691D-02 0.145D-01-0.711D-01
 Coeff-Com: -0.973D-01 0.295D+00 0.854D+00
 Coeff:      0.330D-05-0.821D-05-0.185D-04-0.677D-05 0.817D-04-0.243D-04
 Coeff:      0.176D-03-0.857D-03-0.164D-02 0.691D-02 0.145D-01-0.711D-01
 Coeff:     -0.973D-01 0.295D+00 0.854D+00
 Gap=     0.059 Goal=   None    Shift=    0.000
 Gap=     0.037 Goal=   None    Shift=    0.000
 RMSDP=2.57D-08 MaxDP=2.63D-06 DE= 5.23D-12 OVMax= 3.20D-08

 Cycle  23  Pass 1  IDiag  1:
 E= -1136.12528111028     Delta-E=        0.000000000004 Rises=F Damp=F
 DIIS: error= 1.86D-10 at cycle  23 NSaved=  16.
 NSaved=16 IEnMin=14 EnMin= -1136.12528111029     IErMin=16 ErrMin= 1.86D-10
 ErrMax= 1.86D-10  0.00D+00 EMaxC= 1.00D-01 BMatC= 2.06D-17 BMatP= 7.51D-17
 IDIUse=1 WtCom= 1.00D+00 WtEn= 0.00D+00
 Large coefficients: NSaved= 16 BigCof=    0.00 CofMax=   10.00 Det=-5.00D-17
 Inversion failed.  Reducing to 15 matrices.
 Coeff-Com:  0.967D-05 0.686D-05-0.940D-05-0.101D-03-0.213D-04 0.492D-03
 Coeff-Com:  0.166D-03-0.242D-02-0.252D-02 0.111D-01 0.304D-01-0.792D-01
 Coeff-Com: -0.170D+00 0.207D+00 0.101D+01
 Coeff:      0.967D-05 0.686D-05-0.940D-05-0.101D-03-0.213D-04 0.492D-03
 Coeff:      0.166D-03-0.242D-02-0.252D-02 0.111D-01 0.304D-01-0.792D-01
 Coeff:     -0.170D+00 0.207D+00 0.101D+01
 Gap=     0.059 Goal=   None    Shift=    0.000
 Gap=     0.037 Goal=   None    Shift=    0.000
 RMSDP=7.93D-09 MaxDP=8.61D-07 DE= 3.64D-12 OVMax= 4.14D-08

 SCF Done:  E(UB3LYP) =  -1136.12528111     A.U. after   23 cycles
            NFock= 23  Conv=0.79D-08     -V/T= 2.0028
 <Sx>= 0.0000 <Sy>= 0.0000 <Sz>= 0.5000 <S**2>= 0.7684 S= 0.5092
 <L.S>= 0.000000000000E+00
 KE= 1.132898760226D+03 PE=-3.382841651039D+03 EE= 7.871022117577D+02
 Annihilation of the first spin contaminant:
 S**2 before annihilation     0.7684,   after     0.7501
 Leave Link  502 at Tue Nov 28 23:47:02 2023, MaxMem=  1879048192 cpu:             208.8 elap:              18.8
 (Enter /home/sekinelabo/g16/l601.exe)
 Copying SCF densities to generalized density rwf, IOpCl= 1 IROHF=0.

 **********************************************************************

            Population analysis using the SCF Density.

 **********************************************************************

 Orbital symmetries:
 Alpha Orbitals:
       Occupied  (A) (A) (A) (A) (A) (A) (A) (A) (A) (A) (A) (A)
                 (A) (A) (A) (A) (A) (A) (A) (A) (A) (A) (A) (A)
                 (A) (A) (A) (A) (A) (A) (A) (A) (A) (A) (A) (A)
                 (A) (A) (A)
       Virtual   (A) (A) (A) (A) (A) (A) (A) (A) (A) (A) (A) (A)
                 (A) (A) (A) (A) (A) (A) (A) (A) (A) (A) (A) (A)
                 (A) (A) (A) (A) (A) (A) (A) (A) (A) (A) (A) (A)
                 (A) (A) (A) (A) (A) (A) (A) (A) (A) (A) (A) (A)
                 (A) (A) (A) (A) (A) (A) (A) (A) (A) (A) (A) (A)
                 (A) (A) (A) (A) (A) (A) (A) (A) (A) (A) (A) (A)
                 (A) (A) (A) (A) (A) (A) (A) (A) (A) (A) (A) (A)
                 (A) (A) (A) (A) (A) (A) (A) (A) (A) (A) (A) (A)
                 (A) (A) (A) (A) (A) (A) (A) (A) (A) (A) (A) (A)
                 (A) (A) (A) (A) (A) (A) (A) (A) (A) (A) (A) (A)
                 (A) (A) (A) (A) (A) (A) (A) (A) (A) (A) (A) (A)
                 (A) (A) (A) (A) (A) (A) (A) (A) (A) (A) (A) (A)
                 (A) (A) (A) (A) (A) (A) (A) (A) (A) (A) (A) (A)
                 (A) (A) (A) (A) (A) (A) (A) (A) (A) (A) (A) (A)
                 (A) (A) (A)
 Beta  Orbitals:
       Occupied  (A) (A) (A) (A) (A) (A) (A) (A) (A) (A) (A) (A)
                 (A) (A) (A) (A) (A) (A) (A) (A) (A) (A) (A) (A)
                 (A) (A) (A) (A) (A) (A) (A) (A) (A) (A) (A) (A)
                 (A) (A)
       Virtual   (A) (A) (A) (A) (A) (A) (A) (A) (A) (A) (A) (A)
                 (A) (A) (A) (A) (A) (A) (A) (A) (A) (A) (A) (A)
                 (A) (A) (A) (A) (A) (A) (A) (A) (A) (A) (A) (A)
                 (A) (A) (A) (A) (A) (A) (A) (A) (A) (A) (A) (A)
                 (A) (A) (A) (A) (A) (A) (A) (A) (A) (A) (A) (A)
                 (A) (A) (A) (A) (A) (A) (A) (A) (A) (A) (A) (A)
                 (A) (A) (A) (A) (A) (A) (A) (A) (A) (A) (A) (A)
                 (A) (A) (A) (A) (A) (A) (A) (A) (A) (A) (A) (A)
                 (A) (A) (A) (A) (A) (A) (A) (A) (A) (A) (A) (A)
                 (A) (A) (A) (A) (A) (A) (A) (A) (A) (A) (A) (A)
                 (A) (A) (A) (A) (A) (A) (A) (A) (A) (A) (A) (A)
                 (A) (A) (A) (A) (A) (A) (A) (A) (A) (A) (A) (A)
                 (A) (A) (A) (A) (A) (A) (A) (A) (A) (A) (A) (A)
                 (A) (A) (A) (A) (A) (A) (A) (A) (A) (A) (A) (A)
                 (A) (A) (A) (A)
 The electronic state is 2-A.
 Alpha  occ. eigenvalues --  -38.44435 -38.44314 -38.44091 -38.43872 -38.43754
 Alpha  occ. eigenvalues --  -38.43473 -38.42525  -2.20251  -2.20182  -2.19940
 Alpha  occ. eigenvalues --   -2.19678  -2.19572  -2.19287  -2.18566  -1.13931
 Alpha  occ. eigenvalues --   -1.13884  -1.13873  -1.13854  -1.13841  -1.13807
 Alpha  occ. eigenvalues --   -1.13618  -1.13588  -1.13555  -1.13377  -1.13308
 Alpha  occ. eigenvalues --   -1.13292  -1.13270  -1.13251  -1.13175  -1.12970
 Alpha  occ. eigenvalues --   -1.12940  -1.12917  -1.12273  -1.12216  -1.12203
 Alpha  occ. eigenvalues --   -0.18047  -0.12843  -0.11852  -0.11608
 Alpha virt. eigenvalues --   -0.05663  -0.05000  -0.04894  -0.03358  -0.02816
 Alpha virt. eigenvalues --   -0.02634  -0.01463  -0.01249  -0.00732  -0.00012
 Alpha virt. eigenvalues --    0.00130   0.00280   0.00569   0.00636   0.00786
 Alpha virt. eigenvalues --    0.00912   0.00938   0.01046   0.01215   0.01242
 Alpha virt. eigenvalues --    0.01319   0.01415   0.01527   0.01621   0.01939
 Alpha virt. eigenvalues --    0.02291   0.02422   0.02608   0.02635   0.02660
 Alpha virt. eigenvalues --    0.02721   0.02787   0.02960   0.02993   0.03101
 Alpha virt. eigenvalues --    0.03141   0.03275   0.03377   0.03535   0.03809
 Alpha virt. eigenvalues --    0.03921   0.04038   0.04126   0.04565   0.04658
 Alpha virt. eigenvalues --    0.04844   0.05229   0.05538   0.05587   0.05741
 Alpha virt. eigenvalues --    0.05883   0.06384   0.06744   0.07036   0.07388
 Alpha virt. eigenvalues --    0.07496   0.07751   0.08120   0.08493   0.08779
 Alpha virt. eigenvalues --    0.09217   0.10130   0.10250   0.10574   0.11549
 Alpha virt. eigenvalues --    0.11771   0.12433   0.12472   0.12687   0.13039
 Alpha virt. eigenvalues --    0.13331   0.13663   0.14147   0.14305   0.14684
 Alpha virt. eigenvalues --    0.14933   0.15594   0.15811   0.17909   0.19007
 Alpha virt. eigenvalues --    0.25586   0.26193   0.28430   0.28642   0.29959
 Alpha virt. eigenvalues --    0.30691   0.31682   0.32579   0.32807   0.33205
 Alpha virt. eigenvalues --    0.33553   0.33977   0.35902   0.36519   0.38197
 Alpha virt. eigenvalues --    0.38554   0.38896   0.40334   0.41025   0.42534
 Alpha virt. eigenvalues --    0.42983   0.43403   0.43672   0.44260   0.44321
 Alpha virt. eigenvalues --    0.44487   0.44843   0.45303   0.45418   0.45655
 Alpha virt. eigenvalues --    0.46214   0.46994   0.47296   0.47668   0.48131
 Alpha virt. eigenvalues --    0.49027   0.49809   0.50127   0.50700   0.51718
 Alpha virt. eigenvalues --    0.51941   0.52541   0.53070   0.54086   0.54924
 Alpha virt. eigenvalues --    0.55354   0.56028   0.57286   0.59129   0.60561
 Alpha virt. eigenvalues --    0.61949   0.62752   0.64246   0.65499   0.67137
 Alpha virt. eigenvalues --    0.76191   2.05078   2.12287   2.13094   2.14678
 Alpha virt. eigenvalues --    2.18775   2.20853   2.29782   4.42637   4.43702
 Alpha virt. eigenvalues --    4.44911   4.45234   4.45739   4.46057   4.46451
 Alpha virt. eigenvalues --    4.46533   4.47255   4.47546   4.47673   4.48305
 Alpha virt. eigenvalues --    4.49355   4.50481   4.51377   4.52870   4.54034
 Alpha virt. eigenvalues --    4.54761   4.57682   4.61578   4.66771  96.25103
 Alpha virt. eigenvalues --   96.34030  96.34221  96.36018  96.41736  96.43857
 Alpha virt. eigenvalues --   96.54853
  Beta  occ. eigenvalues --  -38.44375 -38.44252 -38.44087 -38.43827 -38.43751
  Beta  occ. eigenvalues --  -38.43471 -38.42496  -2.20140  -2.20069  -2.19933
  Beta  occ. eigenvalues --   -2.19595  -2.19567  -2.19284  -2.18516  -1.13850
  Beta  occ. eigenvalues --   -1.13804  -1.13796  -1.13786  -1.13758  -1.13728
  Beta  occ. eigenvalues --   -1.13606  -1.13571  -1.13550  -1.13313  -1.13261
  Beta  occ. eigenvalues --   -1.13253  -1.13243  -1.13238  -1.13174  -1.12963
  Beta  occ. eigenvalues --   -1.12936  -1.12917  -1.12208  -1.12186  -1.12170
  Beta  occ. eigenvalues --   -0.17402  -0.12700  -0.11448
  Beta virt. eigenvalues --   -0.07737  -0.05505  -0.04760  -0.04421  -0.03011
  Beta virt. eigenvalues --   -0.02372  -0.01921  -0.01430  -0.01055  -0.00336
  Beta virt. eigenvalues --    0.00083   0.00218   0.00324   0.00651   0.00722
  Beta virt. eigenvalues --    0.00826   0.00936   0.01071   0.01101   0.01311
  Beta virt. eigenvalues --    0.01330   0.01399   0.01520   0.01585   0.01677
  Beta virt. eigenvalues --    0.02108   0.02337   0.02463   0.02601   0.02673
  Beta virt. eigenvalues --    0.02717   0.02754   0.02806   0.02991   0.03119
  Beta virt. eigenvalues --    0.03145   0.03169   0.03348   0.03422   0.03643
  Beta virt. eigenvalues --    0.03873   0.04017   0.04139   0.04242   0.04647
  Beta virt. eigenvalues --    0.04890   0.04989   0.05264   0.05602   0.05696
  Beta virt. eigenvalues --    0.05812   0.05971   0.06476   0.06794   0.07083
  Beta virt. eigenvalues --    0.07512   0.07769   0.07929   0.08217   0.08596
  Beta virt. eigenvalues --    0.08922   0.09301   0.10261   0.10588   0.10839
  Beta virt. eigenvalues --    0.11728   0.12011   0.12565   0.12676   0.12886
  Beta virt. eigenvalues --    0.13315   0.13504   0.13921   0.14350   0.14476
  Beta virt. eigenvalues --    0.14898   0.15100   0.15734   0.15989   0.18228
  Beta virt. eigenvalues --    0.19174   0.25818   0.26515   0.28789   0.28925
  Beta virt. eigenvalues --    0.30219   0.30975   0.31987   0.32911   0.33156
  Beta virt. eigenvalues --    0.33354   0.33873   0.34309   0.36255   0.36784
  Beta virt. eigenvalues --    0.38528   0.38829   0.39174   0.40620   0.41273
  Beta virt. eigenvalues --    0.42760   0.43153   0.43631   0.43740   0.44428
  Beta virt. eigenvalues --    0.44499   0.44695   0.44964   0.45460   0.45607
  Beta virt. eigenvalues --    0.45751   0.46314   0.47131   0.47398   0.47812
  Beta virt. eigenvalues --    0.48332   0.49206   0.50007   0.50305   0.50760
  Beta virt. eigenvalues --    0.51846   0.52117   0.52701   0.53194   0.54258
  Beta virt. eigenvalues --    0.55048   0.55571   0.56228   0.57423   0.59255
  Beta virt. eigenvalues --    0.60772   0.62066   0.62891   0.64400   0.65551
  Beta virt. eigenvalues --    0.67354   0.76345   2.05181   2.12471   2.13250
  Beta virt. eigenvalues --    2.14794   2.18842   2.20976   2.29878   4.42691
  Beta virt. eigenvalues --    4.43777   4.44961   4.45299   4.45785   4.46116
  Beta virt. eigenvalues --    4.46464   4.46547   4.47310   4.47591   4.47747
  Beta virt. eigenvalues --    4.48379   4.49365   4.50509   4.51442   4.52918
  Beta virt. eigenvalues --    4.54088   4.54786   4.57717   4.61620   4.66831
  Beta virt. eigenvalues --   96.25136  96.34092  96.34275  96.36053  96.41754
  Beta virt. eigenvalues --   96.43899  96.54891
          Condensed to atoms (all electrons):
               1          2          3          4          5          6
     1  Na  11.424738  -1.423125  -1.080456   0.739495   1.795069  -0.154872
     2  Na  -1.423125  16.984861   2.514350  -2.054427  -6.776049  -0.102221
     3  Na  -1.080456   2.514350  20.594121  -1.048442  -7.777953  -0.391615
     4  Na   0.739495  -2.054427  -1.048442  11.756037   2.516102  -0.418052
     5  Na   1.795069  -6.776049  -7.777953   2.516102  21.885696  -0.048940
     6  Na  -0.154872  -0.102221  -0.391615  -0.418052  -0.048940  11.177972
     7  Na   0.092788   0.490551  -0.010327  -0.346099  -0.692708   0.293745
               7
     1  Na   0.092788
     2  Na   0.490551
     3  Na  -0.010327
     4  Na  -0.346099
     5  Na  -0.692708
     6  Na   0.293745
     7  Na  10.942952
          Atomic-Atomic Spin Densities.
               1          2          3          4          5          6
     1  Na   0.310296   0.092035  -0.077119  -0.109367  -0.195869   0.026471
     2  Na   0.092035  -0.016386  -0.740236   0.431347   0.341405  -0.001057
     3  Na  -0.077119  -0.740236  -0.993466   0.490279   1.461415   0.175302
     4  Na  -0.109367   0.431347   0.490279  -0.327211  -0.539548   0.017753
     5  Na  -0.195869   0.341405   1.461415  -0.539548  -0.772392  -0.027784
     6  Na   0.026471  -0.001057   0.175302   0.017753  -0.027784  -0.068410
     7  Na   0.328697  -0.201154  -0.511473   0.129733   0.178692  -0.023959
               7
     1  Na   0.328697
     2  Na  -0.201154
     3  Na  -0.511473
     4  Na   0.129733
     5  Na   0.178692
     6  Na  -0.023959
     7  Na   0.376447
 Mulliken charges and spin densities:
               1          2
     1  Na  -0.393636   0.375142
     2  Na   1.366061  -0.094048
     3  Na  -1.799677  -0.195299
     4  Na  -0.144613   0.092986
     5  Na   0.098784   0.445919
     6  Na   0.643983   0.098315
     7  Na   0.229098   0.276984
 Sum of Mulliken charges =  -0.00000   1.00000
 Mulliken charges and spin densities with hydrogens summed into heavy atoms:
               1          2
     1  Na  -0.393636   0.375142
     2  Na   1.366061  -0.094048
     3  Na  -1.799677  -0.195299
     4  Na  -0.144613   0.092986
     5  Na   0.098784   0.445919
     6  Na   0.643983   0.098315
     7  Na   0.229098   0.276984
 Electronic spatial extent (au):  <R**2>=           2517.3931
 Charge=             -0.0000 electrons
 Dipole moment (field-independent basis, Debye):
    X=              0.4287    Y=              0.0546    Z=              0.4317  Tot=              0.6108
 Quadrupole moment (field-independent basis, Debye-Ang):
   XX=            -58.4359   YY=            -66.8846   ZZ=            -67.5772
   XY=             -2.2550   XZ=             -1.7094   YZ=              1.5990
 Traceless Quadrupole moment (field-independent basis, Debye-Ang):
   XX=              5.8633   YY=             -2.5853   ZZ=             -3.2780
   XY=             -2.2550   XZ=             -1.7094   YZ=              1.5990
 Octapole moment (field-independent basis, Debye-Ang**2):
  XXX=              8.1194  YYY=             -3.4455  ZZZ=             18.0587  XYY=             -5.3299
  XXY=             -3.6881  XXZ=             -5.4994  XZZ=              0.7533  YZZ=             -1.5826
  YYZ=            -13.0577  XYZ=              0.6503
 Hexadecapole moment (field-independent basis, Debye-Ang**3):
 XXXX=          -1727.8167 YYYY=          -1599.6539 ZZZZ=          -1018.8101 XXXY=            -47.4208
 XXXZ=            -54.8884 YYYX=             21.7710 YYYZ=             13.5318 ZZZX=             -8.7176
 ZZZY=              4.2332 XXYY=           -441.5624 XXZZ=           -409.6096 YYZZ=           -447.9464
 XXYZ=             23.2439 YYXZ=             21.8778 ZZXY=            -27.7856
 N-N= 3.267153979451D+02 E-N=-3.382841651001D+03  KE= 1.132898760226D+03
                          Isotropic Fermi Contact Couplings
        Atom                 a.u.       MegaHertz       Gauss      10(-4) cm-1
     1  Na(23)             0.24402     288.68358     103.00948      96.29448
     2  Na(23)             0.00138       1.63112       0.58202       0.54408
     3  Na(23)             0.07020      83.05283      29.63531      27.70344
     4  Na(23)            -0.00207      -2.44445      -0.87224      -0.81538
     5  Na(23)             0.18657     220.71711      78.75735      73.62330
     6  Na(23)             0.00273       3.22768       1.15172       1.07664
     7  Na(23)             0.23618     279.40384      99.69824      93.19909
 --------------------------------------------------------
       Center         ----  Spin Dipole Couplings  ----
                      3XX-RR        3YY-RR        3ZZ-RR
 --------------------------------------------------------
     1   Atom        0.010806     -0.007113     -0.003694
     2   Atom       -0.004861     -0.004557      0.009418
     3   Atom       -0.019522     -0.007313      0.026835
     4   Atom       -0.003478     -0.004939      0.008417
     5   Atom        0.002098     -0.002382      0.000284
     6   Atom       -0.002724     -0.006067      0.008791
     7   Atom        0.014423     -0.010025     -0.004398
 --------------------------------------------------------
                        XY            XZ            YZ
 --------------------------------------------------------
     1   Atom       -0.009956     -0.013723      0.003796
     2   Atom        0.003196      0.003994      0.004213
     3   Atom        0.006745      0.007814      0.019786
     4   Atom       -0.004567     -0.005151      0.003590
     5   Atom        0.003381     -0.006993     -0.007291
     6   Atom       -0.002571      0.008323     -0.002823
     7   Atom       -0.002915      0.014320     -0.003916
 --------------------------------------------------------


 ---------------------------------------------------------------------------------
              Anisotropic Spin Dipole Couplings in Principal Axis System
 ---------------------------------------------------------------------------------

       Atom             a.u.   MegaHertz   Gauss  10(-4) cm-1        Axes

              Baa    -0.0133    -1.873    -0.668    -0.625  0.5731  0.5570  0.6011
     1 Na(23) Bbb    -0.0095    -1.343    -0.479    -0.448 -0.0629  0.7612 -0.6454
              Bcc     0.0228     3.215     1.147     1.073  0.8170 -0.3321 -0.4713
 
              Baa    -0.0079    -1.117    -0.399    -0.373  0.7228 -0.6910  0.0014
     2 Na(23) Bbb    -0.0040    -0.567    -0.202    -0.189  0.6348  0.6631 -0.3966
              Bcc     0.0119     1.684     0.601     0.562  0.2731  0.2876  0.9180
 
              Baa    -0.0225    -3.184    -1.136    -1.062  0.8957 -0.4432  0.0358
     3 Na(23) Bbb    -0.0151    -2.129    -0.760    -0.710  0.4103  0.7928 -0.4508
              Bcc     0.0376     5.312     1.896     1.772  0.1714  0.4185  0.8919
 
              Baa    -0.0089    -1.252    -0.447    -0.417  0.6717  0.7393  0.0466
     4 Na(23) Bbb    -0.0030    -0.422    -0.151    -0.141  0.6349 -0.6071  0.4778
              Bcc     0.0119     1.673     0.597     0.558 -0.3816  0.2914  0.8772
 
              Baa    -0.0089    -1.263    -0.451    -0.421  0.2467  0.6607  0.7090
     5 Na(23) Bbb    -0.0032    -0.449    -0.160    -0.150  0.7559 -0.5890  0.2859
              Bcc     0.0121     1.712     0.611     0.571 -0.6065 -0.4654  0.6447
 
              Baa    -0.0079    -1.114    -0.397    -0.371  0.7301  0.6331 -0.2572
     6 Na(23) Bbb    -0.0060    -0.841    -0.300    -0.281 -0.5018  0.7522  0.4272
              Bcc     0.0138     1.954     0.697     0.652  0.4639 -0.1828  0.8668
 
              Baa    -0.0136    -1.914    -0.683    -0.638 -0.3274  0.5680  0.7551
     7 Na(23) Bbb    -0.0092    -1.299    -0.463    -0.433  0.3726  0.8120 -0.4493
              Bcc     0.0227     3.212     1.146     1.071  0.8683 -0.1343  0.4774
 

 ---------------------------------------------------------------------------------

 No NMR shielding tensors so no spin-rotation constants.
 Leave Link  601 at Tue Nov 28 23:47:03 2023, MaxMem=  1879048192 cpu:               2.3 elap:               0.2
 (Enter /home/sekinelabo/g16/l701.exe)
 ... and contract with generalized density number  0.
 Compute integral first derivatives.
 Leave Link  701 at Tue Nov 28 23:47:03 2023, MaxMem=  1879048192 cpu:               1.6 elap:               0.1
 (Enter /home/sekinelabo/g16/l702.exe)
 L702 exits ... SP integral derivatives will be done elsewhere.
 Leave Link  702 at Tue Nov 28 23:47:03 2023, MaxMem=  1879048192 cpu:               0.4 elap:               0.0
 (Enter /home/sekinelabo/g16/l703.exe)
 Integral derivatives from FoFJK, PRISM(SPDF).
 Compute integral first derivatives, UseDBF=F ICtDFT=           0.
 Calling FoFJK, ICntrl=      2127 FMM=F ISym2X=0 I1Cent= 0 IOpClX= 1 NMat=1 NMatS=1 NMatT=0.
 FoFJK:  IHMeth= 1 ICntrl=    2127 DoSepK=F KAlg= 0 I1Cent=           0 FoldK=F
 IRaf=         0 NMat=       1 IRICut=       1 DoRegI=T DoRafI=F ISym2E= 0 IDoP0=0 IntGTp=1.
 FoFCou: FMM=F IPFlag=           0 FMFlag=      100000 FMFlg1=         800
         NFxFlg=           0 DoJE=F BraDBF=F KetDBF=F FulRan=T
         wScrn=  0.000000 ICntrl=      2127 IOpCl=  1 I1Cent=           0 NGrid=           0
         NMat0=    1 NMatS0=      1 NMatT0=    0 NMatD0=    1 NMtDS0=    0 NMtDT0=    0
 Symmetry not used in FoFCou.
 Leave Link  703 at Tue Nov 28 23:47:05 2023, MaxMem=  1879048192 cpu:              33.1 elap:               2.2
 (Enter /home/sekinelabo/g16/l716.exe)
 Dipole        = 1.68673239D-01 2.14901569D-02 1.69836416D-01
 ***** Axes restored to original set *****
 -------------------------------------------------------------------
 Center     Atomic                   Forces (Hartrees/Bohr)
 Number     Number              X              Y              Z
 -------------------------------------------------------------------
      1       11           0.000377400   -0.001331754   -0.001885468
      2       11          -0.000112913   -0.001272262   -0.000665478
      3       11           0.001702544    0.000444743   -0.000177117
      4       11          -0.000580760    0.001994856   -0.000281205
      5       11          -0.001417268   -0.001351377   -0.001988818
      6       11           0.000288600    0.001745499    0.001939236
      7       11          -0.000257603   -0.000229705    0.003058851
 -------------------------------------------------------------------
 Cartesian Forces:  Max     0.003058851 RMS     0.001366705
 Z-matrix is all fixed cartesians, so copy forces.
 Force constants in Cartesian coordinates: 
                1             2             3             4             5 
      1  0.752937D-01
      2 -0.134570D-01  0.545867D-01
      3  0.170018D-01  0.386117D-03  0.744064D-01
      4 -0.152326D-01 -0.106625D-01  0.218266D-02  0.755991D-01
      5  0.702693D-02 -0.843748D-02  0.171093D-02  0.113865D-01  0.766403D-01
      6 -0.128706D-01 -0.975021D-02 -0.465402D-02  0.117947D-01  0.706305D-02
      7 -0.245496D-01  0.475657D-02 -0.889990D-02 -0.433420D-01 -0.377263D-02
      8 -0.530731D-02 -0.222857D-01  0.596837D-02  0.652252D-02 -0.341929D-01
      9 -0.197865D-03  0.874912D-02 -0.267521D-01 -0.316377D-01 -0.314830D-03
     10 -0.517895D-02  0.301195D-02  0.136995D-02 -0.179013D-01 -0.137629D-01
     11  0.571781D-02  0.353085D-02  0.497745D-03  0.134116D-01 -0.224539D-01
     12 -0.260257D-02  0.176842D-02  0.509717D-02  0.235639D-02 -0.811174D-03
     13  0.352430D-02  0.390132D-02  0.202483D-03  0.130439D-01 -0.405826D-02
     14 -0.131445D-02 -0.117434D-02  0.192551D-03 -0.350495D-02  0.179908D-02
     15  0.164408D-02  0.367682D-02  0.186760D-02  0.150807D-01 -0.491365D-05
     16 -0.170702D-01  0.142778D-02 -0.167394D-01 -0.165031D-01  0.687128D-02
     17  0.761412D-02 -0.116936D-01  0.359899D-02 -0.136631D-01 -0.100037D-01
     18  0.106109D-01 -0.104249D-01 -0.363947D-01  0.654462D-03 -0.561627D-02
     19 -0.167867D-01  0.110219D-01  0.488241D-02  0.433594D-02 -0.369090D-02
     20 -0.280129D-03 -0.145264D-01 -0.123547D-01 -0.349004D-02 -0.335142D-02
     21 -0.135857D-01  0.559467D-02 -0.135703D-01 -0.431169D-03 -0.202679D-02
                6             7             8             9            10 
      6  0.799995D-01
      7 -0.222083D-01  0.195215D+00
      8  0.117373D-01 -0.685524D-02  0.171437D+00
      9 -0.102354D+00  0.554969D-01 -0.131435D-01  0.318168D+00
     10 -0.372396D-02 -0.246877D-01  0.560058D-02 -0.294844D-02  0.635793D-01
     11 -0.649008D-02 -0.689586D-02 -0.274356D-01  0.534078D-02 -0.616654D-02
     12 -0.718031D-02  0.153150D-01 -0.121005D-02 -0.230283D-01 -0.199501D-02
     13  0.148167D-01 -0.567078D-01  0.116097D-02 -0.283283D-01  0.353540D-04
     14 -0.817988D-04  0.530505D-02 -0.354778D-01  0.939969D-03  0.883052D-04
     15  0.429233D-01 -0.325474D-01 -0.867936D-02 -0.110534D+00  0.687801D-03
     16  0.156188D-01 -0.290247D-01 -0.247696D-02  0.825461D-02  0.675972D-03
     17  0.633236D-02  0.635212D-02 -0.325649D-01 -0.101725D-01  0.426793D-02
     18 -0.845172D-02 -0.447114D-02  0.131119D-01 -0.273769D-01  0.189880D-02
     19 -0.342725D-02 -0.169036D-01  0.135544D-02 -0.639191D-03 -0.165226D-01
     20 -0.881065D-02  0.110999D-02 -0.194798D-01  0.860089D-02  0.696070D-02
     21 -0.283235D-03 -0.268505D-02 -0.778472D-02 -0.281233D-01  0.471086D-02
               11            12            13            14            15 
     11  0.453219D-01
     12  0.638132D-02  0.300992D-01
     13 -0.546615D-02  0.372958D-03  0.345706D-01
     14  0.284763D-02  0.177135D-04  0.157610D-02  0.327221D-01
     15  0.280066D-02  0.121123D-02  0.131235D-01 -0.151845D-02  0.621043D-01
     16  0.426153D-02  0.188877D-02  0.464415D-02 -0.216770D-02 -0.714647D-03
     17  0.688361D-02 -0.196509D-02  0.346256D-02 -0.185824D-02 -0.213389D-02
     18 -0.199123D-02  0.280905D-02 -0.316027D-03  0.718020D-03  0.382225D-02
     19 -0.486236D-02 -0.153355D-01  0.889490D-03  0.176470D-04  0.272602D-02
     20 -0.869460D-02 -0.418114D-02 -0.576540D-03  0.114150D-02  0.585914D-02
     21 -0.653921D-02 -0.900804D-02  0.128730D-03 -0.268005D-03 -0.139508D-02
               16            17            18            19            20 
     16  0.529235D-01
     17 -0.708025D-02  0.463971D-01
     18 -0.119229D-01  0.905360D-02  0.639413D-01
     19  0.435432D-02 -0.953403D-03  0.354588D-02  0.406332D-01
     20 -0.835675D-03  0.283971D-02 -0.485108D-02 -0.288831D-02  0.420709D-01
     21  0.361473D-02 -0.471350D-02  0.165070D-02  0.824763D-02  0.157375D-01
               21 
     21  0.507293D-01
 Leave Link  716 at Tue Nov 28 23:47:05 2023, MaxMem=  1879048192 cpu:               0.4 elap:               0.0
 (Enter /home/sekinelabo/g16/l103.exe)

 GradGradGradGradGradGradGradGradGradGradGradGradGradGradGradGradGradGrad
 Berny optimization.
 Search for a local minimum.
 Step number   1 out of a maximum of    2
 All quantities printed in internal units (Hartrees-Bohrs-Radians)
 Second derivative matrix not updated -- first step.
 ITU=  0
     Eigenvalues ---    0.03225   0.03326   0.03416   0.04436   0.05022
     Eigenvalues ---    0.06139   0.06762   0.07486   0.09265   0.10243
     Eigenvalues ---    0.11322   0.12216   0.20319   0.20940   0.43797
 Angle between quadratic step and forces=  29.35 degrees.
 Linear search not attempted -- first point.
 B after Tr=     0.000000   -0.000000    0.000000
         Rot=    1.000000    0.000000   -0.000000    0.000000 Ang=   0.00 deg.
 Variable       Old X    -DE/DX   Delta X   Delta X   Delta X     New X
                                 (Linear)    (Quad)   (Total)
    X1       25.30305   0.00038   0.00000   0.01406   0.01406  25.31712
    Y1       31.64346  -0.00133   0.00000  -0.01795  -0.01795  31.62551
    Z1       26.77553  -0.00189   0.00000  -0.01365  -0.01365  26.76188
    X2       32.04163  -0.00011   0.00000   0.00781   0.00781  32.04944
    Y2       33.57174  -0.00127   0.00000  -0.00302  -0.00302  33.56872
    Z2       29.60124  -0.00067   0.00000  -0.00105  -0.00105  29.60019
    X3       29.14449   0.00170   0.00000   0.00549   0.00549  29.14998
    Y3       27.97380   0.00044   0.00000   0.00343   0.00343  27.97723
    Z3       30.61848  -0.00018   0.00000  -0.01168  -0.01168  30.60680
    X4       34.91288  -0.00058   0.00000  -0.00741  -0.00741  34.90547
    Y4       27.81299   0.00199   0.00000   0.04601   0.04601  27.85900
    Z4       27.71472  -0.00028   0.00000  -0.01271  -0.01271  27.70201
    X5       26.81956  -0.00142   0.00000  -0.02394  -0.02394  26.79562
    Y5       22.73152  -0.00135   0.00000  -0.03813  -0.03813  22.69339
    Z5       31.41103  -0.00199   0.00000  -0.04253  -0.04253  31.36850
    X6       25.68610   0.00029   0.00000   0.01378   0.01378  25.69988
    Y6       32.79922   0.00175   0.00000   0.03241   0.03241  32.83163
    Z6       32.66581   0.00194   0.00000   0.01165   0.01165  32.67745
    X7       29.09725  -0.00026   0.00000  -0.00978  -0.00978  29.08746
    Y7       26.47185  -0.00023   0.00000  -0.02275  -0.02275  26.44910
    Z7       24.21816   0.00306   0.00000   0.06997   0.06997  24.28813
         Item               Value     Threshold  Converged?
 Maximum Force            0.003059     0.000450     NO 
 RMS     Force            0.001367     0.000300     NO 
 Maximum Displacement     0.069968     0.001800     NO 
 RMS     Displacement     0.025829     0.001200     NO 
 Predicted change in Energy=-3.230719D-04
 GradGradGradGradGradGradGradGradGradGradGradGradGradGradGradGradGradGrad

 Leave Link  103 at Tue Nov 28 23:47:05 2023, MaxMem=  1879048192 cpu:               0.2 elap:               0.0
 (Enter /home/sekinelabo/g16/l9999.exe)
 1\1\GINC-SEKINELABO-XA7R-R37\Force\UB3LYP\6-311+G(d)\Na7(2)\SEKINELABO
 \28-Nov-2023\0\\#P B3LYP/6-311+g(d) force\\DPGEN\\0,2\Na,13.3898,16.74
 5,14.169\Na,16.9557,17.7654,15.6643\Na,15.4226,14.8031,16.2026\Na,18.4
 751,14.718,14.666\Na,14.1923,12.029,16.622\Na,13.5925,17.3566,17.286\N
 a,15.3976,14.0083,12.8157\\Version=ES64L-G16RevB.01\State=2-A\HF=-1136
 .1252811\S2=0.768385\S2-1=0.\S2A=0.750144\RMSD=7.928e-09\RMSF=1.367e-0
 3\Dipole=-0.1086618,0.1827605,-0.1120184\Quadrupole=-1.7407069,1.86041
 33,-0.1197064,-2.3622819,-2.23979,2.5115501\PG=C01 [X(Na7)]\\@


 WISDOM IS KNOWING WHAT TO DO,
 SKILL IS KNOWING HOW TO DO IT,
 AND VIRTUE IS NOT DOING IT.
 Job cpu time:       0 days  0 hours  4 minutes 17.8 seconds.
 Elapsed time:       0 days  0 hours  0 minutes 22.1 seconds.
 File lengths (MBytes):  RWF=     32 Int=      0 D2E=      0 Chk=      4 Scr=      1
 Normal termination of Gaussian 16 at Tue Nov 28 23:47:05 2023.
