 Set GAUSS_MDEF to "14GB".
 Entering Gaussian System, Link 0=g16
 Initial command:
 /home/sekinelabo/g16/l1.exe "/home/sekinelabo/g16temp/Gau-580562.inp" -scrdir="/home/sekinelabo/g16temp/"
 Entering Link 1 = /home/sekinelabo/g16/l1.exe PID=    580564.
  
 Copyright (c) 1988-2017, Gaussian, Inc.  All Rights Reserved.
  
 This is part of the Gaussian(R) 16 program.  It is based on
 the Gaussian(R) 09 system (copyright 2009, Gaussian, Inc.),
 the Gaussian(R) 03 system (copyright 2003, Gaussian, Inc.),
 the Gaussian(R) 98 system (copyright 1998, Gaussian, Inc.),
 the Gaussian(R) 94 system (copyright 1995, Gaussian, Inc.),
 the Gaussian 92(TM) system (copyright 1992, Gaussian, Inc.),
 the Gaussian 90(TM) system (copyright 1990, Gaussian, Inc.),
 the Gaussian 88(TM) system (copyright 1988, Gaussian, Inc.),
 the Gaussian 86(TM) system (copyright 1986, Carnegie Mellon
 University), and the Gaussian 82(TM) system (copyright 1983,
 Carnegie Mellon University). Gaussian is a federally registered
 trademark of Gaussian, Inc.
  
 This software contains proprietary and confidential information,
 including trade secrets, belonging to Gaussian, Inc.
  
 This software is provided under written license and may be
 used, copied, transmitted, or stored only in accord with that
 written license.
  
 The following legend is applicable only to US Government
 contracts under FAR:
  
                    RESTRICTED RIGHTS LEGEND
  
 Use, reproduction and disclosure by the US Government is
 subject to restrictions as set forth in subparagraphs (a)
 and (c) of the Commercial Computer Software - Restricted
 Rights clause in FAR 52.227-19.
  
 Gaussian, Inc.
 340 Quinnipiac St., Bldg. 40, Wallingford CT 06492
  
  
 ---------------------------------------------------------------
 Warning -- This program may not be used in any manner that
 competes with the business of Gaussian, Inc. or will provide
 assistance to any competitor of Gaussian, Inc.  The licensee
 of this program is prohibited from giving any competitor of
 Gaussian, Inc. access to this program.  By using this program,
 the user acknowledges that Gaussian, Inc. is engaged in the
 business of creating and licensing software in the field of
 computational chemistry and represents and warrants to the
 licensee that it is not a competitor of Gaussian, Inc. and that
 it will not use this program in any manner prohibited above.
 ---------------------------------------------------------------
  

 Cite this work as:
 Gaussian 16, Revision B.01,
 M. J. Frisch, G. W. Trucks, H. B. Schlegel, G. E. Scuseria, 
 M. A. Robb, J. R. Cheeseman, G. Scalmani, V. Barone, 
 G. A. Petersson, H. Nakatsuji, X. Li, M. Caricato, A. V. Marenich, 
 J. Bloino, B. G. Janesko, R. Gomperts, B. Mennucci, H. P. Hratchian, 
 J. V. Ortiz, A. F. Izmaylov, J. L. Sonnenberg, D. Williams-Young, 
 F. Ding, F. Lipparini, F. Egidi, J. Goings, B. Peng, A. Petrone, 
 T. Henderson, D. Ranasinghe, V. G. Zakrzewski, J. Gao, N. Rega, 
 G. Zheng, W. Liang, M. Hada, M. Ehara, K. Toyota, R. Fukuda, 
 J. Hasegawa, M. Ishida, T. Nakajima, Y. Honda, O. Kitao, H. Nakai, 
 T. Vreven, K. Throssell, J. A. Montgomery, Jr., J. E. Peralta, 
 F. Ogliaro, M. J. Bearpark, J. J. Heyd, E. N. Brothers, K. N. Kudin, 
 V. N. Staroverov, T. A. Keith, R. Kobayashi, J. Normand, 
 K. Raghavachari, A. P. Rendell, J. C. Burant, S. S. Iyengar, 
 J. Tomasi, M. Cossi, J. M. Millam, M. Klene, C. Adamo, R. Cammi, 
 J. W. Ochterski, R. L. Martin, K. Morokuma, O. Farkas, 
 J. B. Foresman, and D. J. Fox, Gaussian, Inc., Wallingford CT, 2016.
 
 ******************************************
 Gaussian 16:  ES64L-G16RevB.01 20-Dec-2017
                 7-Dec-2023 
 ******************************************
 %nproc=15
 Will use up to   15 processors via shared memory.
 -------------------------
 #P B3LYP/6-311+g(d) force
 -------------------------
 1/10=7,30=1,38=1/1,3;
 2/12=2,17=6,18=5,40=1/2;
 3/5=4,6=6,7=11,11=2,25=1,30=1,71=1,74=-5/1,2,3;
 4//1;
 5/5=2,38=5/2;
 6/7=2,8=2,9=2,10=2,28=1/1;
 7/29=1/1,2,3,16;
 1/10=7,30=1/3;
 99//99;
 Leave Link    1 at Thu Dec  7 03:26:10 2023, MaxMem=           0 cpu:               0.3 elap:               0.0
 (Enter /home/sekinelabo/g16/l101.exe)
 -----
 DPGEN
 -----
 Symbolic Z-matrix:
 Charge =  0 Multiplicity = 2
 Na                    14.3817   14.8823   12.8389 
 Na                    11.8024   12.7525   14.4685 
 Na                    11.6901   14.966    11.026 
 Na                    14.9435   11.0356   13.4127 
 Na                    9.51323   12.4626   11.3579 
 Na                    13.259    11.9389   11.1925 
 Na                    11.8181   9.37028   13.1117 
 
 ITRead=  0  0  0  0  0  0  0
 MicOpt= -1 -1 -1 -1 -1 -1 -1
 NAtoms=      7 NQM=        7 NQMF=       0 NMMI=      0 NMMIF=      0
                NMic=       0 NMicF=      0.
                    Isotopes and Nuclear Properties:
 (Nuclear quadrupole moments (NQMom) in fm**2, nuclear magnetic moments (NMagM)
  in nuclear magnetons)

  Atom         1           2           3           4           5           6           7
 IAtWgt=          23          23          23          23          23          23          23
 AtmWgt=  22.9897697  22.9897697  22.9897697  22.9897697  22.9897697  22.9897697  22.9897697
 NucSpn=           3           3           3           3           3           3           3
 AtZEff=  -0.0000000  -0.0000000  -0.0000000  -0.0000000  -0.0000000  -0.0000000  -0.0000000
 NQMom=   10.4000000  10.4000000  10.4000000  10.4000000  10.4000000  10.4000000  10.4000000
 NMagM=    2.2175200   2.2175200   2.2175200   2.2175200   2.2175200   2.2175200   2.2175200
 AtZNuc=  11.0000000  11.0000000  11.0000000  11.0000000  11.0000000  11.0000000  11.0000000
 Leave Link  101 at Thu Dec  7 03:26:10 2023, MaxMem=  1879048192 cpu:               2.5 elap:               0.2
 (Enter /home/sekinelabo/g16/l103.exe)

 GradGradGradGradGradGradGradGradGradGradGradGradGradGradGradGradGradGrad
 Berny optimization.
 Initialization pass.
 Trust Radius=3.00D-01 FncErr=1.00D-07 GrdErr=1.00D-07 EigMax=2.50D+02 EigMin=1.00D-04
 Number of steps in this run=      2 maximum allowed number of steps=      2.
 GradGradGradGradGradGradGradGradGradGradGradGradGradGradGradGradGradGrad

 Leave Link  103 at Thu Dec  7 03:26:10 2023, MaxMem=  1879048192 cpu:               0.2 elap:               0.0
 (Enter /home/sekinelabo/g16/l202.exe)
                          Input orientation:                          
 ---------------------------------------------------------------------
 Center     Atomic      Atomic             Coordinates (Angstroms)
 Number     Number       Type             X           Y           Z
 ---------------------------------------------------------------------
      1         11           0       14.381700   14.882300   12.838900
      2         11           0       11.802400   12.752500   14.468500
      3         11           0       11.690100   14.966000   11.026000
      4         11           0       14.943500   11.035600   13.412700
      5         11           0        9.513230   12.462600   11.357900
      6         11           0       13.259000   11.938900   11.192500
      7         11           0       11.818100    9.370280   13.111700
 ---------------------------------------------------------------------
                    Distance matrix (angstroms):
                    1          2          3          4          5
     1  Na   0.000000
     2  Na   3.720811   0.000000
     3  Na   3.246278   4.094264   0.000000
     4  Na   3.929627   3.732153   5.632849   0.000000
     5  Na   5.634741   3.873006   3.334056   5.978826   0.000000
     6  Na   3.554531   3.676385   3.413576   2.929638   3.785817
     7  Na   6.085132   3.644251   5.973158   3.554155   4.236825
                    6          7
     6  Na   0.000000
     7  Na   3.515299   0.000000
 Stoichiometry    Na7(2)
 Framework group  C1[X(Na7)]
 Deg. of freedom    15
 Full point group                 C1      NOp   1
 Largest Abelian subgroup         C1      NOp   1
 Largest concise Abelian subgroup C1      NOp   1
                         Standard orientation:                         
 ---------------------------------------------------------------------
 Center     Atomic      Atomic             Coordinates (Angstroms)
 Number     Number       Type             X           Y           Z
 ---------------------------------------------------------------------
      1         11           0        1.637071   -2.579931    0.341040
      2         11           0       -0.302535    0.070053    2.090311
      3         11           0        2.944680    0.299288   -0.392841
      4         11           0       -2.188647   -2.019524   -0.360244
      5         11           0        1.031657    3.008446   -0.051172
      6         11           0       -0.214994   -0.226065   -1.573083
      7         11           0       -2.907232    1.447733   -0.054010
 ---------------------------------------------------------------------
 Rotational constants (GHZ):           0.7508621           0.6652313           0.4596776
 Leave Link  202 at Thu Dec  7 03:26:10 2023, MaxMem=  1879048192 cpu:               0.0 elap:               0.0
 (Enter /home/sekinelabo/g16/l301.exe)
 Standard basis: 6-311+G(d) (5D, 7F)
 Ernie: Thresh=  0.10000D-02 Tol=  0.10000D-05 Strict=F.
 There are   217 symmetry adapted cartesian basis functions of A   symmetry.
 There are   210 symmetry adapted basis functions of A   symmetry.
   210 basis functions,   350 primitive gaussians,   217 cartesian basis functions
    39 alpha electrons       38 beta electrons
       nuclear repulsion energy       338.3136470891 Hartrees.
 IExCor=  402 DFT=T Ex+Corr=B3LYP ExCW=0 ScaHFX=  0.200000
 ScaDFX=  0.800000  0.720000  1.000000  0.810000 ScalE2=  1.000000  1.000000
 IRadAn=      5 IRanWt=     -1 IRanGd=            0 ICorTp=0 IEmpDi=  4
 NAtoms=    7 NActive=    7 NUniq=    7 SFac= 1.00D+00 NAtFMM=   60 NAOKFM=F Big=F
 Integral buffers will be    131072 words long.
 Raffenetti 2 integral format.
 Two-electron integral symmetry is turned on.
 Leave Link  301 at Thu Dec  7 03:26:10 2023, MaxMem=  1879048192 cpu:               0.5 elap:               0.0
 (Enter /home/sekinelabo/g16/l302.exe)
 NPDir=0 NMtPBC=     1 NCelOv=     1 NCel=       1 NClECP=     1 NCelD=      1
         NCelK=      1 NCelE2=     1 NClLst=     1 CellRange=     0.0.
 One-electron integrals computed using PRISM.
 One-electron integral symmetry used in STVInt
 NBasis=   210 RedAO= T EigKep=  4.46D-06  NBF=   210
 NBsUse=   210 1.00D-06 EigRej= -1.00D+00 NBFU=   210
 Precomputing XC quadrature grid using
 IXCGrd= 4 IRadAn=           5 IRanWt=          -1 IRanGd=           0 AccXCQ= 0.00D+00.
 Generated NRdTot=       0 NPtTot=           0 NUsed=           0 NTot=          32
 NSgBfM=   211   211   211   211   211 MxSgAt=     7 MxSgA2=     7.
 Leave Link  302 at Thu Dec  7 03:26:11 2023, MaxMem=  1879048192 cpu:               2.0 elap:               0.1
 (Enter /home/sekinelabo/g16/l303.exe)
 DipDrv:  MaxL=1.
 Leave Link  303 at Thu Dec  7 03:26:11 2023, MaxMem=  1879048192 cpu:               0.5 elap:               0.0
 (Enter /home/sekinelabo/g16/l401.exe)
 ExpMin= 7.60D-03 ExpMax= 3.62D+04 ExpMxC= 1.21D+03 IAcc=3 IRadAn=         5 AccDes= 0.00D+00
 Harris functional with IExCor=  402 and IRadAn=       5 diagonalized for initial guess.
 HarFok:  IExCor=  402 AccDes= 0.00D+00 IRadAn=         5 IDoV= 1 UseB2=F ITyADJ=14
 ICtDFT=  3500011 ScaDFX=  1.000000  1.000000  1.000000  1.000000
 FoFCou: FMM=F IPFlag=           0 FMFlag=      100000 FMFlg1=           0
         NFxFlg=           0 DoJE=T BraDBF=F KetDBF=T FulRan=T
         wScrn=  0.000000 ICntrl=       500 IOpCl=  0 I1Cent=   200000004 NGrid=           0
         NMat0=    1 NMatS0=      1 NMatT0=    0 NMatD0=    1 NMtDS0=    0 NMtDT0=    0
 Petite list used in FoFCou.
 Harris En= -1135.90412956153    
 JPrj=0 DoOrth=F DoCkMO=F.
 Initial guess <Sx>= 0.0000 <Sy>= 0.0000 <Sz>= 0.5000 <S**2>= 0.7500 S= 0.5000
 Leave Link  401 at Thu Dec  7 03:26:11 2023, MaxMem=  1879048192 cpu:               4.4 elap:               0.3
 (Enter /home/sekinelabo/g16/l502.exe)
 Keep R1 and R2 ints in memory in canonical form, NReq=506573335.
 FoFCou: FMM=F IPFlag=           0 FMFlag=           0 FMFlg1=           0
         NFxFlg=           0 DoJE=F BraDBF=F KetDBF=F FulRan=T
         wScrn=  0.000000 ICntrl=       600 IOpCl=  0 I1Cent=           0 NGrid=           0
         NMat0=    1 NMatS0=  22155 NMatT0=    0 NMatD0=    1 NMtDS0=    0 NMtDT0=    0
 Symmetry not used in FoFCou.
 Two-electron integral symmetry not used.
 UHF open shell SCF:
 Using DIIS extrapolation, IDIIS=  1040.
 NGot=  1879048192 LenX=  1388082565 LenY=  1388035035
 Requested convergence on RMS density matrix=1.00D-08 within 128 cycles.
 Requested convergence on MAX density matrix=1.00D-06.
 Requested convergence on             energy=1.00D-06.
 No special actions if energy rises.

 Cycle   1  Pass 1  IDiag  1:
 E= -1136.09733677685    
 DIIS: error= 1.51D-02 at cycle   1 NSaved=   1.
 NSaved= 1 IEnMin= 1 EnMin= -1136.09733677685     IErMin= 1 ErrMin= 1.51D-02
 ErrMax= 1.51D-02  0.00D+00 EMaxC= 1.00D-01 BMatC= 1.94D-01 BMatP= 1.94D-01
 IDIUse=3 WtCom= 8.49D-01 WtEn= 1.51D-01
 Coeff-Com:  0.100D+01
 Coeff-En:   0.100D+01
 Coeff:      0.100D+01
 Gap=     0.037 Goal=   None    Shift=    0.000
 Gap=     0.053 Goal=   None    Shift=    0.000
 GapD=    0.037 DampG=0.250 DampE=0.500 DampFc=0.2500 IDamp=-1.
 Damping current iteration by 2.50D-01
 RMSDP=2.35D-02 MaxDP=2.06D+00              OVMax= 2.41D-01

 Cycle   2  Pass 1  IDiag  1:
 E= -1136.11035640524     Delta-E=       -0.013019628390 Rises=F Damp=T
 DIIS: error= 1.05D-02 at cycle   2 NSaved=   2.
 NSaved= 2 IEnMin= 2 EnMin= -1136.11035640524     IErMin= 2 ErrMin= 1.05D-02
 ErrMax= 1.05D-02  0.00D+00 EMaxC= 1.00D-01 BMatC= 7.36D-02 BMatP= 1.94D-01
 IDIUse=3 WtCom= 8.95D-01 WtEn= 1.05D-01
 Coeff-Com: -0.127D+01 0.227D+01
 Coeff-En:   0.000D+00 0.100D+01
 Coeff:     -0.113D+01 0.213D+01
 Gap=     0.051 Goal=   None    Shift=    0.000
 Gap=     0.053 Goal=   None    Shift=    0.000
 RMSDP=1.29D-02 MaxDP=1.16D+00 DE=-1.30D-02 OVMax= 1.49D-01

 Cycle   3  Pass 1  IDiag  1:
 E= -1136.13260564831     Delta-E=       -0.022249243068 Rises=F Damp=F
 DIIS: error= 2.47D-03 at cycle   3 NSaved=   3.
 NSaved= 3 IEnMin= 3 EnMin= -1136.13260564831     IErMin= 3 ErrMin= 2.47D-03
 ErrMax= 2.47D-03  0.00D+00 EMaxC= 1.00D-01 BMatC= 2.46D-03 BMatP= 7.36D-02
 IDIUse=3 WtCom= 9.75D-01 WtEn= 2.47D-02
 Coeff-Com: -0.146D+00 0.282D+00 0.864D+00
 Coeff-En:   0.000D+00 0.000D+00 0.100D+01
 Coeff:     -0.142D+00 0.275D+00 0.868D+00
 Gap=     0.047 Goal=   None    Shift=    0.000
 Gap=     0.052 Goal=   None    Shift=    0.000
 RMSDP=5.95D-03 MaxDP=9.51D-01 DE=-2.22D-02 OVMax= 8.65D-02

 Cycle   4  Pass 1  IDiag  1:
 E= -1136.13070593623     Delta-E=        0.001899712077 Rises=F Damp=F
 DIIS: error= 3.43D-03 at cycle   4 NSaved=   4.
 NSaved= 4 IEnMin= 3 EnMin= -1136.13260564831     IErMin= 3 ErrMin= 2.47D-03
 ErrMax= 3.43D-03  0.00D+00 EMaxC= 1.00D-01 BMatC= 3.65D-03 BMatP= 2.46D-03
 IDIUse=3 WtCom= 1.46D-01 WtEn= 8.54D-01
 Coeff-Com:  0.255D-01-0.316D-01 0.555D+00 0.451D+00
 Coeff-En:   0.000D+00 0.000D+00 0.632D+00 0.368D+00
 Coeff:      0.373D-02-0.461D-02 0.621D+00 0.380D+00
 Gap=     0.049 Goal=   None    Shift=    0.000
 Gap=     0.052 Goal=   None    Shift=    0.000
 RMSDP=2.01D-03 MaxDP=2.66D-01 DE= 1.90D-03 OVMax= 5.31D-02

 Cycle   5  Pass 1  IDiag  1:
 E= -1136.13451878016     Delta-E=       -0.003812843923 Rises=F Damp=F
 DIIS: error= 7.24D-04 at cycle   5 NSaved=   5.
 NSaved= 5 IEnMin= 5 EnMin= -1136.13451878016     IErMin= 5 ErrMin= 7.24D-04
 ErrMax= 7.24D-04  0.00D+00 EMaxC= 1.00D-01 BMatC= 1.73D-04 BMatP= 2.46D-03
 IDIUse=3 WtCom= 9.93D-01 WtEn= 7.24D-03
 Coeff-Com:  0.701D-02-0.101D-01 0.330D+00 0.209D+00 0.463D+00
 Coeff-En:   0.000D+00 0.000D+00 0.000D+00 0.000D+00 0.100D+01
 Coeff:      0.696D-02-0.998D-02 0.328D+00 0.208D+00 0.467D+00
 Gap=     0.049 Goal=   None    Shift=    0.000
 Gap=     0.052 Goal=   None    Shift=    0.000
 RMSDP=6.56D-04 MaxDP=8.13D-02 DE=-3.81D-03 OVMax= 8.99D-03

 Cycle   6  Pass 1  IDiag  1:
 E= -1136.13462799531     Delta-E=       -0.000109215149 Rises=F Damp=F
 DIIS: error= 1.03D-04 at cycle   6 NSaved=   6.
 NSaved= 6 IEnMin= 6 EnMin= -1136.13462799531     IErMin= 6 ErrMin= 1.03D-04
 ErrMax= 1.03D-04  0.00D+00 EMaxC= 1.00D-01 BMatC= 3.26D-06 BMatP= 1.73D-04
 IDIUse=3 WtCom= 9.99D-01 WtEn= 1.03D-03
 Coeff-Com: -0.319D-02 0.384D-02 0.411D-01 0.170D-01 0.136D+00 0.806D+00
 Coeff-En:   0.000D+00 0.000D+00 0.000D+00 0.000D+00 0.000D+00 0.100D+01
 Coeff:     -0.319D-02 0.384D-02 0.411D-01 0.170D-01 0.135D+00 0.806D+00
 Gap=     0.049 Goal=   None    Shift=    0.000
 Gap=     0.052 Goal=   None    Shift=    0.000
 RMSDP=2.54D-04 MaxDP=4.23D-02 DE=-1.09D-04 OVMax= 3.94D-03

 Cycle   7  Pass 1  IDiag  1:
 E= -1136.13462942912     Delta-E=       -0.000001433814 Rises=F Damp=F
 DIIS: error= 1.01D-04 at cycle   7 NSaved=   7.
 NSaved= 7 IEnMin= 7 EnMin= -1136.13462942912     IErMin= 7 ErrMin= 1.01D-04
 ErrMax= 1.01D-04  0.00D+00 EMaxC= 1.00D-01 BMatC= 2.89D-06 BMatP= 3.26D-06
 IDIUse=3 WtCom= 9.99D-01 WtEn= 1.01D-03
 Coeff-Com: -0.375D-02 0.481D-02-0.349D-01-0.287D-01 0.824D-02 0.572D+00
 Coeff-Com:  0.483D+00
 Coeff-En:   0.000D+00 0.000D+00 0.000D+00 0.000D+00 0.000D+00 0.404D+00
 Coeff-En:   0.596D+00
 Coeff:     -0.375D-02 0.481D-02-0.349D-01-0.287D-01 0.823D-02 0.571D+00
 Coeff:      0.483D+00
 Gap=     0.049 Goal=   None    Shift=    0.000
 Gap=     0.052 Goal=   None    Shift=    0.000
 RMSDP=1.46D-04 MaxDP=2.10D-02 DE=-1.43D-06 OVMax= 2.37D-03

 Cycle   8  Pass 1  IDiag  1:
 E= -1136.13463319241     Delta-E=       -0.000003763289 Rises=F Damp=F
 DIIS: error= 3.89D-05 at cycle   8 NSaved=   8.
 NSaved= 8 IEnMin= 8 EnMin= -1136.13463319241     IErMin= 8 ErrMin= 3.89D-05
 ErrMax= 3.89D-05  0.00D+00 EMaxC= 1.00D-01 BMatC= 1.65D-07 BMatP= 2.89D-06
 IDIUse=1 WtCom= 1.00D+00 WtEn= 0.00D+00
 Coeff-Com: -0.104D-02 0.133D-02-0.193D-01-0.140D-01-0.987D-02 0.148D+00
 Coeff-Com:  0.208D+00 0.687D+00
 Coeff:     -0.104D-02 0.133D-02-0.193D-01-0.140D-01-0.987D-02 0.148D+00
 Coeff:      0.208D+00 0.687D+00
 Gap=     0.050 Goal=   None    Shift=    0.000
 Gap=     0.052 Goal=   None    Shift=    0.000
 RMSDP=5.05D-05 MaxDP=6.65D-03 DE=-3.76D-06 OVMax= 1.20D-03

 Cycle   9  Pass 1  IDiag  1:
 E= -1136.13463346964     Delta-E=       -0.000000277234 Rises=F Damp=F
 DIIS: error= 2.37D-05 at cycle   9 NSaved=   9.
 NSaved= 9 IEnMin= 9 EnMin= -1136.13463346964     IErMin= 9 ErrMin= 2.37D-05
 ErrMax= 2.37D-05  0.00D+00 EMaxC= 1.00D-01 BMatC= 8.64D-08 BMatP= 1.65D-07
 IDIUse=1 WtCom= 1.00D+00 WtEn= 0.00D+00
 Coeff-Com:  0.803D-03-0.104D-02-0.121D-02 0.686D-03-0.115D-01-0.114D+00
 Coeff-Com: -0.402D-01 0.480D+00 0.686D+00
 Coeff:      0.803D-03-0.104D-02-0.121D-02 0.686D-03-0.115D-01-0.114D+00
 Coeff:     -0.402D-01 0.480D+00 0.686D+00
 Gap=     0.050 Goal=   None    Shift=    0.000
 Gap=     0.052 Goal=   None    Shift=    0.000
 RMSDP=2.94D-05 MaxDP=3.99D-03 DE=-2.77D-07 OVMax= 7.69D-04

 Cycle  10  Pass 1  IDiag  1:
 E= -1136.13463367071     Delta-E=       -0.000000201069 Rises=F Damp=F
 DIIS: error= 6.64D-06 at cycle  10 NSaved=  10.
 NSaved=10 IEnMin=10 EnMin= -1136.13463367071     IErMin=10 ErrMin= 6.64D-06
 ErrMax= 6.64D-06  0.00D+00 EMaxC= 1.00D-01 BMatC= 7.17D-09 BMatP= 8.64D-08
 IDIUse=1 WtCom= 1.00D+00 WtEn= 0.00D+00
 Coeff-Com:  0.389D-03-0.501D-03 0.313D-02 0.270D-02-0.186D-02-0.405D-01
 Coeff-Com: -0.427D-01-0.582D-01 0.842D-01 0.105D+01
 Coeff:      0.389D-03-0.501D-03 0.313D-02 0.270D-02-0.186D-02-0.405D-01
 Coeff:     -0.427D-01-0.582D-01 0.842D-01 0.105D+01
 Gap=     0.050 Goal=   None    Shift=    0.000
 Gap=     0.052 Goal=   None    Shift=    0.000
 RMSDP=1.84D-05 MaxDP=2.96D-03 DE=-2.01D-07 OVMax= 4.68D-04

 Cycle  11  Pass 1  IDiag  1:
 E= -1136.13463372152     Delta-E=       -0.000000050810 Rises=F Damp=F
 DIIS: error= 3.84D-06 at cycle  11 NSaved=  11.
 NSaved=11 IEnMin=11 EnMin= -1136.13463372152     IErMin=11 ErrMin= 3.84D-06
 ErrMax= 3.84D-06  0.00D+00 EMaxC= 1.00D-01 BMatC= 1.63D-09 BMatP= 7.17D-09
 IDIUse=1 WtCom= 1.00D+00 WtEn= 0.00D+00
 Coeff-Com: -0.260D-03 0.340D-03 0.479D-03-0.219D-03 0.330D-02 0.276D-01
 Coeff-Com:  0.138D-01-0.104D+00-0.197D+00-0.154D+00 0.141D+01
 Coeff:     -0.260D-03 0.340D-03 0.479D-03-0.219D-03 0.330D-02 0.276D-01
 Coeff:      0.138D-01-0.104D+00-0.197D+00-0.154D+00 0.141D+01
 Gap=     0.050 Goal=   None    Shift=    0.000
 Gap=     0.052 Goal=   None    Shift=    0.000
 RMSDP=9.69D-06 MaxDP=8.52D-04 DE=-5.08D-08 OVMax= 3.91D-04

 Cycle  12  Pass 1  IDiag  1:
 E= -1136.13463374032     Delta-E=       -0.000000018794 Rises=F Damp=F
 DIIS: error= 1.42D-06 at cycle  12 NSaved=  12.
 NSaved=12 IEnMin=12 EnMin= -1136.13463374032     IErMin=12 ErrMin= 1.42D-06
 ErrMax= 1.42D-06  0.00D+00 EMaxC= 1.00D-01 BMatC= 2.61D-10 BMatP= 1.63D-09
 IDIUse=1 WtCom= 1.00D+00 WtEn= 0.00D+00
 Coeff-Com: -0.877D-04 0.113D-03-0.206D-03-0.326D-03 0.112D-02 0.861D-02
 Coeff-Com:  0.550D-02-0.125D-01-0.374D-01-0.133D+00 0.143D+00 0.103D+01
 Coeff:     -0.877D-04 0.113D-03-0.206D-03-0.326D-03 0.112D-02 0.861D-02
 Coeff:      0.550D-02-0.125D-01-0.374D-01-0.133D+00 0.143D+00 0.103D+01
 Gap=     0.050 Goal=   None    Shift=    0.000
 Gap=     0.052 Goal=   None    Shift=    0.000
 RMSDP=4.31D-06 MaxDP=6.89D-04 DE=-1.88D-08 OVMax= 1.27D-04

 Cycle  13  Pass 1  IDiag  1:
 E= -1136.13463374250     Delta-E=       -0.000000002179 Rises=F Damp=F
 DIIS: error= 6.20D-07 at cycle  13 NSaved=  13.
 NSaved=13 IEnMin=13 EnMin= -1136.13463374250     IErMin=13 ErrMin= 6.20D-07
 ErrMax= 6.20D-07  0.00D+00 EMaxC= 1.00D-01 BMatC= 7.65D-11 BMatP= 2.61D-10
 IDIUse=1 WtCom= 1.00D+00 WtEn= 0.00D+00
 Coeff-Com:  0.290D-04-0.389D-04-0.210D-03-0.568D-04-0.407D-03-0.353D-02
 Coeff-Com: -0.785D-03 0.220D-01 0.309D-01-0.145D-01-0.269D+00 0.281D+00
 Coeff-Com:  0.954D+00
 Coeff:      0.290D-04-0.389D-04-0.210D-03-0.568D-04-0.407D-03-0.353D-02
 Coeff:     -0.785D-03 0.220D-01 0.309D-01-0.145D-01-0.269D+00 0.281D+00
 Coeff:      0.954D+00
 Gap=     0.050 Goal=   None    Shift=    0.000
 Gap=     0.052 Goal=   None    Shift=    0.000
 RMSDP=1.81D-06 MaxDP=2.42D-04 DE=-2.18D-09 OVMax= 6.06D-05

 Cycle  14  Pass 1  IDiag  1:
 E= -1136.13463374298     Delta-E=       -0.000000000484 Rises=F Damp=F
 DIIS: error= 2.39D-07 at cycle  14 NSaved=  14.
 NSaved=14 IEnMin=14 EnMin= -1136.13463374298     IErMin=14 ErrMin= 2.39D-07
 ErrMax= 2.39D-07  0.00D+00 EMaxC= 1.00D-01 BMatC= 1.36D-11 BMatP= 7.65D-11
 IDIUse=1 WtCom= 1.00D+00 WtEn= 0.00D+00
 Coeff-Com:  0.221D-04-0.286D-04-0.246D-04 0.463D-04-0.353D-03-0.180D-02
 Coeff-Com: -0.138D-02 0.525D-02 0.136D-01 0.264D-01-0.710D-01-0.181D+00
 Coeff-Com:  0.834D-01 0.113D+01
 Coeff:      0.221D-04-0.286D-04-0.246D-04 0.463D-04-0.353D-03-0.180D-02
 Coeff:     -0.138D-02 0.525D-02 0.136D-01 0.264D-01-0.710D-01-0.181D+00
 Coeff:      0.834D-01 0.113D+01
 Gap=     0.050 Goal=   None    Shift=    0.000
 Gap=     0.052 Goal=   None    Shift=    0.000
 RMSDP=1.19D-06 MaxDP=1.67D-04 DE=-4.84D-10 OVMax= 2.74D-05

 Cycle  15  Pass 1  IDiag  1:
 E= -1136.13463374309     Delta-E=       -0.000000000111 Rises=F Damp=F
 DIIS: error= 8.12D-08 at cycle  15 NSaved=  15.
 NSaved=15 IEnMin=15 EnMin= -1136.13463374309     IErMin=15 ErrMin= 8.12D-08
 ErrMax= 8.12D-08  0.00D+00 EMaxC= 1.00D-01 BMatC= 1.76D-12 BMatP= 1.36D-11
 IDIUse=1 WtCom= 1.00D+00 WtEn= 0.00D+00
 Coeff-Com: -0.610D-05 0.825D-05 0.419D-04 0.352D-05 0.980D-04 0.551D-03
 Coeff-Com:  0.304D-03-0.339D-02-0.592D-02-0.288D-02 0.563D-01-0.330D-01
 Coeff-Com: -0.166D+00-0.148D+00 0.130D+01
 Coeff:     -0.610D-05 0.825D-05 0.419D-04 0.352D-05 0.980D-04 0.551D-03
 Coeff:      0.304D-03-0.339D-02-0.592D-02-0.288D-02 0.563D-01-0.330D-01
 Coeff:     -0.166D+00-0.148D+00 0.130D+01
 Gap=     0.050 Goal=   None    Shift=    0.000
 Gap=     0.052 Goal=   None    Shift=    0.000
 RMSDP=5.59D-07 MaxDP=7.73D-05 DE=-1.11D-10 OVMax= 9.62D-06

 Cycle  16  Pass 1  IDiag  1:
 E= -1136.13463374310     Delta-E=       -0.000000000013 Rises=F Damp=F
 DIIS: error= 2.37D-08 at cycle  16 NSaved=  16.
 NSaved=16 IEnMin=16 EnMin= -1136.13463374310     IErMin=16 ErrMin= 2.37D-08
 ErrMax= 2.37D-08  0.00D+00 EMaxC= 1.00D-01 BMatC= 2.35D-13 BMatP= 1.76D-12
 IDIUse=1 WtCom= 1.00D+00 WtEn= 0.00D+00
 Coeff-Com: -0.190D-05 0.243D-05 0.660D-05-0.761D-06 0.328D-04 0.142D-03
 Coeff-Com:  0.146D-03-0.482D-03-0.140D-02-0.179D-02 0.411D-02 0.239D-01
 Coeff-Com: -0.401D-02-0.124D+00-0.543D-01 0.116D+01
 Coeff:     -0.190D-05 0.243D-05 0.660D-05-0.761D-06 0.328D-04 0.142D-03
 Coeff:      0.146D-03-0.482D-03-0.140D-02-0.179D-02 0.411D-02 0.239D-01
 Coeff:     -0.401D-02-0.124D+00-0.543D-01 0.116D+01
 Gap=     0.050 Goal=   None    Shift=    0.000
 Gap=     0.052 Goal=   None    Shift=    0.000
 RMSDP=1.09D-07 MaxDP=1.32D-05 DE=-1.27D-11 OVMax= 2.82D-06

 Cycle  17  Pass 1  IDiag  1:
 E= -1136.13463374310     Delta-E=        0.000000000002 Rises=F Damp=F
 DIIS: error= 1.65D-08 at cycle  17 NSaved=  17.
 NSaved=17 IEnMin=16 EnMin= -1136.13463374310     IErMin=17 ErrMin= 1.65D-08
 ErrMax= 1.65D-08  0.00D+00 EMaxC= 1.00D-01 BMatC= 5.33D-14 BMatP= 2.35D-13
 IDIUse=1 WtCom= 1.00D+00 WtEn= 0.00D+00
 Coeff-Com:  0.832D-06-0.115D-05-0.805D-05-0.130D-05-0.157D-04-0.673D-04
 Coeff-Com: -0.413D-04 0.558D-03 0.103D-02 0.397D-04-0.962D-02 0.775D-02
 Coeff-Com:  0.307D-01 0.217D-01-0.262D+00 0.147D+00 0.106D+01
 Coeff:      0.832D-06-0.115D-05-0.805D-05-0.130D-05-0.157D-04-0.673D-04
 Coeff:     -0.413D-04 0.558D-03 0.103D-02 0.397D-04-0.962D-02 0.775D-02
 Coeff:      0.307D-01 0.217D-01-0.262D+00 0.147D+00 0.106D+01
 Gap=     0.050 Goal=   None    Shift=    0.000
 Gap=     0.052 Goal=   None    Shift=    0.000
 RMSDP=3.44D-08 MaxDP=2.19D-06 DE= 1.82D-12 OVMax= 1.09D-06

 Cycle  18  Pass 1  IDiag  1:
 E= -1136.13463374311     Delta-E=       -0.000000000008 Rises=F Damp=F
 DIIS: error= 8.19D-09 at cycle  18 NSaved=  18.
 NSaved=18 IEnMin=18 EnMin= -1136.13463374311     IErMin=18 ErrMin= 8.19D-09
 ErrMax= 8.19D-09  0.00D+00 EMaxC= 1.00D-01 BMatC= 1.13D-14 BMatP= 5.33D-14
 IDIUse=1 WtCom= 1.00D+00 WtEn= 0.00D+00
 Coeff-Com:  0.579D-06-0.753D-06-0.158D-05 0.268D-06-0.704D-05-0.456D-04
 Coeff-Com: -0.378D-04 0.139D-03 0.394D-03 0.444D-03-0.156D-02-0.497D-02
 Coeff-Com:  0.334D-02 0.254D-01 0.850D-02-0.258D+00 0.823D-01 0.114D+01
 Coeff:      0.579D-06-0.753D-06-0.158D-05 0.268D-06-0.704D-05-0.456D-04
 Coeff:     -0.378D-04 0.139D-03 0.394D-03 0.444D-03-0.156D-02-0.497D-02
 Coeff:      0.334D-02 0.254D-01 0.850D-02-0.258D+00 0.823D-01 0.114D+01
 Gap=     0.050 Goal=   None    Shift=    0.000
 Gap=     0.052 Goal=   None    Shift=    0.000
 RMSDP=2.07D-08 MaxDP=9.55D-07 DE=-7.50D-12 OVMax= 5.88D-07

 Cycle  19  Pass 1  IDiag  1:
 E= -1136.13463374311     Delta-E=        0.000000000004 Rises=F Damp=F
 DIIS: error= 3.43D-09 at cycle  19 NSaved=  19.
 NSaved=19 IEnMin=18 EnMin= -1136.13463374311     IErMin=19 ErrMin= 3.43D-09
 ErrMax= 3.43D-09  0.00D+00 EMaxC= 1.00D-01 BMatC= 1.99D-15 BMatP= 1.13D-14
 IDIUse=1 WtCom= 1.00D+00 WtEn= 0.00D+00
 Large coefficients: NSaved= 19 BigCof=    0.00 CofMax=   10.00 Det=-3.16D-15
 Inversion failed.  Reducing to 18 matrices.
 Large coefficients: NSaved= 18 BigCof=    0.00 CofMax=   10.00 Det=-3.49D-15
 Inversion failed.  Reducing to 17 matrices.
 Large coefficients: NSaved= 17 BigCof=    0.00 CofMax=   10.00 Det=-3.53D-15
 Inversion failed.  Reducing to 16 matrices.
 Large coefficients: NSaved= 16 BigCof=    0.00 CofMax=   10.00 Det=-3.60D-15
 Inversion failed.  Reducing to 15 matrices.
 Coeff-Com: -0.683D-06-0.403D-05-0.257D-05 0.348D-05-0.202D-04-0.115D-04
 Coeff-Com:  0.535D-03-0.108D-02-0.221D-02 0.199D-02 0.177D-01-0.182D-01
 Coeff-Com: -0.162D+00 0.503D-01 0.111D+01
 Coeff:     -0.683D-06-0.403D-05-0.257D-05 0.348D-05-0.202D-04-0.115D-04
 Coeff:      0.535D-03-0.108D-02-0.221D-02 0.199D-02 0.177D-01-0.182D-01
 Coeff:     -0.162D+00 0.503D-01 0.111D+01
 Gap=     0.050 Goal=   None    Shift=    0.000
 Gap=     0.052 Goal=   None    Shift=    0.000
 RMSDP=1.01D-08 MaxDP=1.15D-06 DE= 3.87D-12 OVMax= 2.74D-07

 Cycle  20  Pass 1  IDiag  1:
 E= -1136.13463374312     Delta-E=       -0.000000000013 Rises=F Damp=F
 DIIS: error= 1.73D-09 at cycle  20 NSaved=  16.
 NSaved=16 IEnMin=16 EnMin= -1136.13463374312     IErMin=16 ErrMin= 1.73D-09
 ErrMax= 1.73D-09  0.00D+00 EMaxC= 1.00D-01 BMatC= 4.96D-16 BMatP= 1.99D-15
 IDIUse=1 WtCom= 1.00D+00 WtEn= 0.00D+00
 Large coefficients: NSaved= 16 BigCof=    0.00 CofMax=   10.00 Det=-5.88D-16
 Inversion failed.  Reducing to 15 matrices.
 Coeff-Com:  0.133D-05 0.351D-05 0.249D-05-0.255D-04-0.296D-04-0.608D-04
 Coeff-Com:  0.984D-03 0.230D-06-0.529D-02 0.341D-03 0.450D-01-0.581D-02
 Coeff-Com: -0.220D+00-0.606D-01 0.125D+01
 Coeff:      0.133D-05 0.351D-05 0.249D-05-0.255D-04-0.296D-04-0.608D-04
 Coeff:      0.984D-03 0.230D-06-0.529D-02 0.341D-03 0.450D-01-0.581D-02
 Coeff:     -0.220D+00-0.606D-01 0.125D+01
 Gap=     0.050 Goal=   None    Shift=    0.000
 Gap=     0.052 Goal=   None    Shift=    0.000
 RMSDP=6.01D-09 MaxDP=8.73D-07 DE=-1.25D-11 OVMax= 1.35D-07

 SCF Done:  E(UB3LYP) =  -1136.13463374     A.U. after   20 cycles
            NFock= 20  Conv=0.60D-08     -V/T= 2.0029
 <Sx>= 0.0000 <Sy>= 0.0000 <Sz>= 0.5000 <S**2>= 0.7604 S= 0.5052
 <L.S>= 0.000000000000E+00
 KE= 1.132904119322D+03 PE=-3.406095618647D+03 EE= 7.987432184932D+02
 Annihilation of the first spin contaminant:
 S**2 before annihilation     0.7604,   after     0.7501
 Leave Link  502 at Thu Dec  7 03:26:27 2023, MaxMem=  1879048192 cpu:             184.8 elap:              16.3
 (Enter /home/sekinelabo/g16/l601.exe)
 Copying SCF densities to generalized density rwf, IOpCl= 1 IROHF=0.

 **********************************************************************

            Population analysis using the SCF Density.

 **********************************************************************

 Orbital symmetries:
 Alpha Orbitals:
       Occupied  (A) (A) (A) (A) (A) (A) (A) (A) (A) (A) (A) (A)
                 (A) (A) (A) (A) (A) (A) (A) (A) (A) (A) (A) (A)
                 (A) (A) (A) (A) (A) (A) (A) (A) (A) (A) (A) (A)
                 (A) (A) (A)
       Virtual   (A) (A) (A) (A) (A) (A) (A) (A) (A) (A) (A) (A)
                 (A) (A) (A) (A) (A) (A) (A) (A) (A) (A) (A) (A)
                 (A) (A) (A) (A) (A) (A) (A) (A) (A) (A) (A) (A)
                 (A) (A) (A) (A) (A) (A) (A) (A) (A) (A) (A) (A)
                 (A) (A) (A) (A) (A) (A) (A) (A) (A) (A) (A) (A)
                 (A) (A) (A) (A) (A) (A) (A) (A) (A) (A) (A) (A)
                 (A) (A) (A) (A) (A) (A) (A) (A) (A) (A) (A) (A)
                 (A) (A) (A) (A) (A) (A) (A) (A) (A) (A) (A) (A)
                 (A) (A) (A) (A) (A) (A) (A) (A) (A) (A) (A) (A)
                 (A) (A) (A) (A) (A) (A) (A) (A) (A) (A) (A) (A)
                 (A) (A) (A) (A) (A) (A) (A) (A) (A) (A) (A) (A)
                 (A) (A) (A) (A) (A) (A) (A) (A) (A) (A) (A) (A)
                 (A) (A) (A) (A) (A) (A) (A) (A) (A) (A) (A) (A)
                 (A) (A) (A) (A) (A) (A) (A) (A) (A) (A) (A) (A)
                 (A) (A) (A)
 Beta  Orbitals:
       Occupied  (A) (A) (A) (A) (A) (A) (A) (A) (A) (A) (A) (A)
                 (A) (A) (A) (A) (A) (A) (A) (A) (A) (A) (A) (A)
                 (A) (A) (A) (A) (A) (A) (A) (A) (A) (A) (A) (A)
                 (A) (A)
       Virtual   (A) (A) (A) (A) (A) (A) (A) (A) (A) (A) (A) (A)
                 (A) (A) (A) (A) (A) (A) (A) (A) (A) (A) (A) (A)
                 (A) (A) (A) (A) (A) (A) (A) (A) (A) (A) (A) (A)
                 (A) (A) (A) (A) (A) (A) (A) (A) (A) (A) (A) (A)
                 (A) (A) (A) (A) (A) (A) (A) (A) (A) (A) (A) (A)
                 (A) (A) (A) (A) (A) (A) (A) (A) (A) (A) (A) (A)
                 (A) (A) (A) (A) (A) (A) (A) (A) (A) (A) (A) (A)
                 (A) (A) (A) (A) (A) (A) (A) (A) (A) (A) (A) (A)
                 (A) (A) (A) (A) (A) (A) (A) (A) (A) (A) (A) (A)
                 (A) (A) (A) (A) (A) (A) (A) (A) (A) (A) (A) (A)
                 (A) (A) (A) (A) (A) (A) (A) (A) (A) (A) (A) (A)
                 (A) (A) (A) (A) (A) (A) (A) (A) (A) (A) (A) (A)
                 (A) (A) (A) (A) (A) (A) (A) (A) (A) (A) (A) (A)
                 (A) (A) (A) (A) (A) (A) (A) (A) (A) (A) (A) (A)
                 (A) (A) (A) (A)
 The electronic state is 2-A.
 Alpha  occ. eigenvalues --  -38.44319 -38.43940 -38.43697 -38.43628 -38.43541
 Alpha  occ. eigenvalues --  -38.43445 -38.43312  -2.20123  -2.19818  -2.19564
 Alpha  occ. eigenvalues --   -2.19499  -2.19343  -2.19303  -2.19287  -1.13801
 Alpha  occ. eigenvalues --   -1.13785  -1.13761  -1.13601  -1.13459  -1.13414
 Alpha  occ. eigenvalues --   -1.13231  -1.13194  -1.13189  -1.13180  -1.13170
 Alpha  occ. eigenvalues --   -1.13156  -1.13013  -1.12999  -1.12984  -1.12980
 Alpha  occ. eigenvalues --   -1.12947  -1.12947  -1.12938  -1.12929  -1.12894
 Alpha  occ. eigenvalues --   -0.18500  -0.13186  -0.12245  -0.10740
 Alpha virt. eigenvalues --   -0.05787  -0.05157  -0.04736  -0.03242  -0.02858
 Alpha virt. eigenvalues --   -0.02561  -0.01568  -0.01212  -0.00443  -0.00384
 Alpha virt. eigenvalues --   -0.00003   0.00349   0.00778   0.00834   0.00898
 Alpha virt. eigenvalues --    0.00928   0.00992   0.01162   0.01244   0.01303
 Alpha virt. eigenvalues --    0.01327   0.01406   0.01743   0.01827   0.02165
 Alpha virt. eigenvalues --    0.02232   0.02311   0.02511   0.02568   0.02860
 Alpha virt. eigenvalues --    0.02904   0.03008   0.03063   0.03103   0.03148
 Alpha virt. eigenvalues --    0.03195   0.03219   0.03295   0.03328   0.03433
 Alpha virt. eigenvalues --    0.04126   0.04372   0.04537   0.04735   0.04779
 Alpha virt. eigenvalues --    0.04904   0.04918   0.05000   0.05170   0.05467
 Alpha virt. eigenvalues --    0.05861   0.06782   0.07171   0.07359   0.07483
 Alpha virt. eigenvalues --    0.07598   0.07683   0.07916   0.08000   0.09029
 Alpha virt. eigenvalues --    0.09384   0.09808   0.10778   0.11080   0.11359
 Alpha virt. eigenvalues --    0.11988   0.12119   0.12351   0.12463   0.12929
 Alpha virt. eigenvalues --    0.13628   0.14075   0.14413   0.14682   0.14944
 Alpha virt. eigenvalues --    0.15072   0.15432   0.15669   0.16431   0.16993
 Alpha virt. eigenvalues --    0.25984   0.27354   0.27870   0.28591   0.29378
 Alpha virt. eigenvalues --    0.29590   0.30304   0.30772   0.32291   0.33213
 Alpha virt. eigenvalues --    0.34823   0.35545   0.36230   0.37366   0.38170
 Alpha virt. eigenvalues --    0.39306   0.39909   0.41281   0.41467   0.42485
 Alpha virt. eigenvalues --    0.43571   0.43629   0.44067   0.44475   0.44697
 Alpha virt. eigenvalues --    0.44749   0.44818   0.45063   0.45541   0.46006
 Alpha virt. eigenvalues --    0.46478   0.47331   0.47811   0.48623   0.48954
 Alpha virt. eigenvalues --    0.49755   0.50253   0.50486   0.50684   0.51574
 Alpha virt. eigenvalues --    0.52931   0.53294   0.53755   0.56382   0.56825
 Alpha virt. eigenvalues --    0.57271   0.57933   0.58254   0.59831   0.60566
 Alpha virt. eigenvalues --    0.61317   0.62321   0.63488   0.67409   0.67612
 Alpha virt. eigenvalues --    0.75774   2.03088   2.13326   2.15033   2.18573
 Alpha virt. eigenvalues --    2.19806   2.20666   2.26114   4.43267   4.43742
 Alpha virt. eigenvalues --    4.44695   4.45156   4.45672   4.46003   4.46242
 Alpha virt. eigenvalues --    4.46403   4.47289   4.47755   4.48257   4.49224
 Alpha virt. eigenvalues --    4.49822   4.50527   4.51634   4.52527   4.53117
 Alpha virt. eigenvalues --    4.55941   4.59792   4.65661   4.71370  96.22788
 Alpha virt. eigenvalues --   96.34308  96.36623  96.40847  96.42438  96.43838
 Alpha virt. eigenvalues --   96.50397
  Beta  occ. eigenvalues --  -38.44316 -38.43926 -38.43621 -38.43599 -38.43542
  Beta  occ. eigenvalues --  -38.43439 -38.43254  -2.20121  -2.19796  -2.19488
  Beta  occ. eigenvalues --   -2.19382  -2.19346  -2.19279  -2.19197  -1.13789
  Beta  occ. eigenvalues --   -1.13780  -1.13756  -1.13574  -1.13426  -1.13403
  Beta  occ. eigenvalues --   -1.13184  -1.13163  -1.13138  -1.13109  -1.13066
  Beta  occ. eigenvalues --   -1.13047  -1.13006  -1.13000  -1.12982  -1.12946
  Beta  occ. eigenvalues --   -1.12928  -1.12917  -1.12898  -1.12858  -1.12828
  Beta  occ. eigenvalues --   -0.17788  -0.12936  -0.12035
  Beta virt. eigenvalues --   -0.06825  -0.05773  -0.05078  -0.04702  -0.02477
  Beta virt. eigenvalues --   -0.02104  -0.01530  -0.01475  -0.01126  -0.00481
  Beta virt. eigenvalues --   -0.00416   0.00134   0.00384   0.00799   0.00891
  Beta virt. eigenvalues --    0.00901   0.00994   0.01090   0.01345   0.01379
  Beta virt. eigenvalues --    0.01433   0.01476   0.01510   0.01785   0.01856
  Beta virt. eigenvalues --    0.02212   0.02233   0.02415   0.02492   0.02555
  Beta virt. eigenvalues --    0.02933   0.02983   0.03030   0.03090   0.03174
  Beta virt. eigenvalues --    0.03212   0.03283   0.03322   0.03361   0.03424
  Beta virt. eigenvalues --    0.03527   0.04214   0.04426   0.04609   0.04832
  Beta virt. eigenvalues --    0.04921   0.04987   0.05139   0.05160   0.05351
  Beta virt. eigenvalues --    0.05639   0.06173   0.06792   0.07182   0.07375
  Beta virt. eigenvalues --    0.07618   0.07733   0.07841   0.08057   0.08118
  Beta virt. eigenvalues --    0.09246   0.09706   0.10006   0.10849   0.11245
  Beta virt. eigenvalues --    0.11593   0.12247   0.12336   0.12545   0.12942
  Beta virt. eigenvalues --    0.13044   0.13840   0.14210   0.14649   0.15010
  Beta virt. eigenvalues --    0.15115   0.15252   0.15564   0.15987   0.16867
  Beta virt. eigenvalues --    0.17397   0.26152   0.27540   0.28089   0.28852
  Beta virt. eigenvalues --    0.29507   0.29915   0.30554   0.31210   0.32812
  Beta virt. eigenvalues --    0.33724   0.35067   0.35709   0.36408   0.37483
  Beta virt. eigenvalues --    0.38409   0.39512   0.40397   0.41262   0.41625
  Beta virt. eigenvalues --    0.42560   0.43582   0.43891   0.44364   0.44724
  Beta virt. eigenvalues --    0.44825   0.44919   0.45010   0.45238   0.45575
  Beta virt. eigenvalues --    0.46257   0.46574   0.47508   0.47871   0.48731
  Beta virt. eigenvalues --    0.49001   0.49872   0.50373   0.50631   0.50706
  Beta virt. eigenvalues --    0.51702   0.53209   0.53498   0.54205   0.56662
  Beta virt. eigenvalues --    0.57007   0.57442   0.58246   0.58707   0.60160
  Beta virt. eigenvalues --    0.60759   0.61395   0.62481   0.63761   0.67386
  Beta virt. eigenvalues --    0.67824   0.75942   2.03225   2.13324   2.15035
  Beta virt. eigenvalues --    2.18668   2.20076   2.20709   2.26359   4.43270
  Beta virt. eigenvalues --    4.43821   4.44724   4.45198   4.45695   4.46053
  Beta virt. eigenvalues --    4.46250   4.46426   4.47320   4.47855   4.48348
  Beta virt. eigenvalues --    4.49281   4.49891   4.50594   4.51688   4.52589
  Beta virt. eigenvalues --    4.53140   4.55970   4.59797   4.65747   4.71440
  Beta virt. eigenvalues --   96.22830  96.34309  96.36626  96.40906  96.42499
  Beta virt. eigenvalues --   96.43845  96.50470
          Condensed to atoms (all electrons):
               1          2          3          4          5          6
     1  Na  10.748186   0.155647   0.168680   0.127261   0.089232  -0.352853
     2  Na   0.155647  15.303064  -0.457175  -0.543480  -0.224225  -2.976652
     3  Na   0.168680  -0.457175  10.681565  -0.262345   0.266330   0.465902
     4  Na   0.127261  -0.543480  -0.262345  11.590272  -0.052030  -0.315372
     5  Na   0.089232  -0.224225   0.266330  -0.052030  10.678462   0.074971
     6  Na  -0.352853  -2.976652   0.465902  -0.315372   0.074971  14.480801
     7  Na  -0.046399   0.212179   0.037977   0.089397   0.221306  -0.297877
               7
     1  Na  -0.046399
     2  Na   0.212179
     3  Na   0.037977
     4  Na   0.089397
     5  Na   0.221306
     6  Na  -0.297877
     7  Na  10.756698
          Atomic-Atomic Spin Densities.
               1          2          3          4          5          6
     1  Na   0.005818   0.298029  -0.055836  -0.004498  -0.023981  -0.198258
     2  Na   0.298029   4.284421  -0.326577  -0.417825  -0.144022  -3.084988
     3  Na  -0.055836  -0.326577   0.008314   0.066137  -0.016704   0.350296
     4  Na  -0.004498  -0.417825   0.066137  -0.010629   0.034875   0.362905
     5  Na  -0.023981  -0.144022  -0.016704   0.034875  -0.050023   0.162354
     6  Na  -0.198258  -3.084988   0.350296   0.362905   0.162354   2.837360
     7  Na   0.018118   0.186487  -0.035208  -0.014469  -0.044295  -0.110694
               7
     1  Na   0.018118
     2  Na   0.186487
     3  Na  -0.035208
     4  Na  -0.014469
     5  Na  -0.044295
     6  Na  -0.110694
     7  Na  -0.078950
 Mulliken charges and spin densities:
               1          2
     1  Na   0.110245   0.039392
     2  Na  -0.469358   0.795524
     3  Na   0.099066  -0.009578
     4  Na   0.366295   0.016496
     5  Na  -0.054046  -0.081796
     6  Na  -0.078921   0.318975
     7  Na   0.026719  -0.079011
 Sum of Mulliken charges =  -0.00000   1.00000
 Mulliken charges and spin densities with hydrogens summed into heavy atoms:
               1          2
     1  Na   0.110245   0.039392
     2  Na  -0.469358   0.795524
     3  Na   0.099066  -0.009578
     4  Na   0.366295   0.016496
     5  Na  -0.054046  -0.081796
     6  Na  -0.078921   0.318975
     7  Na   0.026719  -0.079011
 Electronic spatial extent (au):  <R**2>=           2307.3019
 Charge=             -0.0000 electrons
 Dipole moment (field-independent basis, Debye):
    X=             -0.4976    Y=              0.0690    Z=              0.1606  Tot=              0.5274
 Quadrupole moment (field-independent basis, Debye-Ang):
   XX=            -57.5390   YY=            -61.3775   ZZ=            -74.7356
   XY=             -1.3063   XZ=              0.0839   YZ=             -0.7051
 Traceless Quadrupole moment (field-independent basis, Debye-Ang):
   XX=              7.0117   YY=              3.1732   ZZ=            -10.1849
   XY=             -1.3063   XZ=              0.0839   YZ=             -0.7051
 Octapole moment (field-independent basis, Debye-Ang**2):
  XXX=            -11.3053  YYY=             -0.3290  ZZZ=              1.3168  XYY=             -5.4572
  XXY=              1.9513  XXZ=             -2.6512  XZZ=              0.6441  YZZ=              0.5365
  YYZ=              1.5753  XYZ=             -0.8492
 Hexadecapole moment (field-independent basis, Debye-Ang**3):
 XXXX=          -1533.0792 YYYY=          -1406.2875 ZZZZ=           -769.2840 XXXY=            -46.1940
 XXXZ=            -11.1678 YYYX=              9.5505 YYYZ=            -14.4440 ZZZX=             -3.5623
 ZZZY=              0.9417 XXYY=           -467.6085 XXZZ=           -458.2229 YYZZ=           -428.0061
 XXYZ=             -4.3812 YYXZ=             19.8746 ZZXY=             -2.3551
 N-N= 3.383136470891D+02 E-N=-3.406095618532D+03  KE= 1.132904119322D+03
                          Isotropic Fermi Contact Couplings
        Atom                 a.u.       MegaHertz       Gauss      10(-4) cm-1
     1  Na(23)            -0.00499      -5.90564      -2.10728      -1.96991
     2  Na(23)             0.40540     479.60266     171.13415     159.97823
     3  Na(23)             0.00569       6.73328       2.40260       2.24598
     4  Na(23)             0.01420      16.80311       5.99577       5.60491
     5  Na(23)            -0.02708     -32.03062     -11.42932     -10.68427
     6  Na(23)             0.22087     261.29475      93.23647      87.15855
     7  Na(23)            -0.02164     -25.59956      -9.13456      -8.53909
 --------------------------------------------------------
       Center         ----  Spin Dipole Couplings  ----
                      3XX-RR        3YY-RR        3ZZ-RR
 --------------------------------------------------------
     1   Atom       -0.011935     -0.010226      0.022161
     2   Atom       -0.000690      0.005440     -0.004751
     3   Atom       -0.005716     -0.014123      0.019839
     4   Atom       -0.016693     -0.016387      0.033081
     5   Atom       -0.009148     -0.006162      0.015310
     6   Atom        0.001098     -0.005011      0.003913
     7   Atom       -0.010587     -0.013237      0.023824
 --------------------------------------------------------
                        XY            XZ            YZ
 --------------------------------------------------------
     1   Atom       -0.003201     -0.004872      0.006276
     2   Atom       -0.005053     -0.000847     -0.002369
     3   Atom       -0.000553      0.005642     -0.006033
     4   Atom        0.001951     -0.001967     -0.009447
     5   Atom        0.001093     -0.006563      0.001982
     6   Atom        0.006301      0.004914      0.003694
     7   Atom       -0.001377      0.003753      0.005830
 --------------------------------------------------------


 ---------------------------------------------------------------------------------
              Anisotropic Spin Dipole Couplings in Principal Axis System
 ---------------------------------------------------------------------------------

       Atom             a.u.   MegaHertz   Gauss  10(-4) cm-1        Axes

              Baa    -0.0144    -2.033    -0.725    -0.678  0.7942  0.6077  0.0015
     1 Na(23) Bbb    -0.0097    -1.376    -0.491    -0.459 -0.5894  0.7709 -0.2416
              Bcc     0.0241     3.409     1.216     1.137 -0.1480  0.1910  0.9704
 
              Baa    -0.0063    -0.884    -0.316    -0.295  0.4506  0.3599  0.8170
     2 Na(23) Bbb    -0.0022    -0.315    -0.113    -0.105  0.7595  0.3264 -0.5627
              Bcc     0.0085     1.200     0.428     0.400 -0.4692  0.8740 -0.1263
 
              Baa    -0.0152    -2.144    -0.765    -0.715 -0.0481  0.9830  0.1771
     3 Na(23) Bbb    -0.0068    -0.967    -0.345    -0.323  0.9787  0.0818 -0.1884
              Bcc     0.0220     3.111     1.110     1.038  0.1997 -0.1642  0.9660
 
              Baa    -0.0192    -2.706    -0.965    -0.902 -0.5502  0.8251  0.1285
     4 Na(23) Bbb    -0.0158    -2.226    -0.794    -0.743  0.8338  0.5348  0.1370
              Bcc     0.0349     4.932     1.760     1.645 -0.0443 -0.1825  0.9822
 
              Baa    -0.0113    -1.592    -0.568    -0.531  0.9226 -0.2941  0.2497
     5 Na(23) Bbb    -0.0058    -0.820    -0.293    -0.273  0.3026  0.9531  0.0046
              Bcc     0.0171     2.412     0.861     0.804 -0.2393  0.0713  0.9683
 
              Baa    -0.0090    -1.269    -0.453    -0.423 -0.5113  0.8579 -0.0509
     6 Na(23) Bbb    -0.0017    -0.233    -0.083    -0.078 -0.5990 -0.3132  0.7369
              Bcc     0.0106     1.502     0.536     0.501  0.6162  0.4073  0.6741
 
              Baa    -0.0150    -2.123    -0.758    -0.708  0.4225  0.8895 -0.1743
     7 Na(23) Bbb    -0.0100    -1.417    -0.505    -0.472  0.9011 -0.4330 -0.0253
              Bcc     0.0251     3.539     1.263     1.181  0.0980  0.1463  0.9844
 

 ---------------------------------------------------------------------------------

 No NMR shielding tensors so no spin-rotation constants.
 Leave Link  601 at Thu Dec  7 03:26:28 2023, MaxMem=  1879048192 cpu:               2.3 elap:               0.2
 (Enter /home/sekinelabo/g16/l701.exe)
 ... and contract with generalized density number  0.
 Compute integral first derivatives.
 Leave Link  701 at Thu Dec  7 03:26:28 2023, MaxMem=  1879048192 cpu:               1.6 elap:               0.1
 (Enter /home/sekinelabo/g16/l702.exe)
 L702 exits ... SP integral derivatives will be done elsewhere.
 Leave Link  702 at Thu Dec  7 03:26:28 2023, MaxMem=  1879048192 cpu:               0.4 elap:               0.0
 (Enter /home/sekinelabo/g16/l703.exe)
 Integral derivatives from FoFJK, PRISM(SPDF).
 Compute integral first derivatives, UseDBF=F ICtDFT=           0.
 Calling FoFJK, ICntrl=      2127 FMM=F ISym2X=0 I1Cent= 0 IOpClX= 1 NMat=1 NMatS=1 NMatT=0.
 FoFJK:  IHMeth= 1 ICntrl=    2127 DoSepK=F KAlg= 0 I1Cent=           0 FoldK=F
 IRaf=         0 NMat=       1 IRICut=       1 DoRegI=T DoRafI=F ISym2E= 0 IDoP0=0 IntGTp=1.
 FoFCou: FMM=F IPFlag=           0 FMFlag=      100000 FMFlg1=         800
         NFxFlg=           0 DoJE=F BraDBF=F KetDBF=F FulRan=T
         wScrn=  0.000000 ICntrl=      2127 IOpCl=  1 I1Cent=           0 NGrid=           0
         NMat0=    1 NMatS0=      1 NMatT0=    0 NMatD0=    1 NMtDS0=    0 NMtDT0=    0
 Symmetry not used in FoFCou.
 Leave Link  703 at Thu Dec  7 03:26:30 2023, MaxMem=  1879048192 cpu:              32.8 elap:               2.2
 (Enter /home/sekinelabo/g16/l716.exe)
 Dipole        =-1.95763303D-01 2.71590450D-02 6.31829219D-02
 ***** Axes restored to original set *****
 -------------------------------------------------------------------
 Center     Atomic                   Forces (Hartrees/Bohr)
 Number     Number              X              Y              Z
 -------------------------------------------------------------------
      1       11           0.002019684   -0.002480125    0.002036725
      2       11           0.000094951    0.000132512   -0.002223497
      3       11          -0.001797090    0.000163012   -0.000330024
      4       11           0.002740189   -0.000448285    0.005061339
      5       11           0.002092314   -0.002438806    0.001628010
      6       11          -0.004697113    0.001752960   -0.005460918
      7       11          -0.000452936    0.003318733   -0.000711636
 -------------------------------------------------------------------
 Cartesian Forces:  Max     0.005460918 RMS     0.002542024
 Z-matrix is all fixed cartesians, so copy forces.
 Force constants in Cartesian coordinates: 
                1             2             3             4             5 
      1  0.791911D-01
      2  0.186136D-01  0.803643D-01
      3  0.997410D-02  0.901143D-03  0.559477D-01
      4 -0.208491D-01  0.353293D-02  0.176087D-01  0.919688D-01
      5 -0.106846D-01 -0.155478D-01  0.143698D-01 -0.426689D-03  0.885123D-01
      6 -0.472534D-02 -0.119961D-01 -0.193409D-01 -0.216593D-01  0.130836D-01
      7 -0.273797D-01  0.108025D-01 -0.157465D-01 -0.754593D-02 -0.277029D-02
      8 -0.185838D-01 -0.259819D-01 -0.375490D-02  0.505839D-02 -0.115021D-01
      9 -0.538158D-02  0.150179D-01 -0.186529D-01 -0.388280D-02  0.152267D-01
     10 -0.151098D-01 -0.139690D-01 -0.708686D-03 -0.219902D-01  0.394075D-02
     11  0.168027D-01 -0.186905D-01  0.794556D-02  0.488715D-02 -0.143855D-01
     12 -0.409762D-02 -0.326228D-02 -0.441781D-02  0.203655D-01 -0.994398D-02
     13 -0.322060D-02 -0.425088D-02 -0.170419D-02 -0.116469D-01 -0.144095D-02
     14 -0.594105D-02  0.473615D-02 -0.216280D-02 -0.259666D-02 -0.114905D-01
     15 -0.321203D-02 -0.260520D-02  0.555280D-02 -0.166228D-01 -0.635467D-02
     16 -0.172234D-01 -0.107912D-01 -0.869885D-02 -0.173641D-01  0.243174D-02
     17  0.559350D-02 -0.219672D-01 -0.185520D-01  0.891509D-03 -0.166733D-01
     18  0.841353D-02  0.130175D-02 -0.267343D-01  0.580883D-02 -0.597728D-02
     19  0.459151D-02 -0.393780D-02 -0.724548D-03 -0.125726D-01  0.895002D-02
     20 -0.580033D-02 -0.291313D-02  0.125320D-02 -0.113466D-01 -0.189132D-01
     21 -0.971059D-03  0.642787D-03  0.764536D-02 -0.161814D-02 -0.204041D-01
                6             7             8             9            10 
      6  0.132427D+00
      7  0.903867D-02  0.717866D-01
      8 -0.904021D-02 -0.860742D-03  0.948082D-01
      9 -0.211925D-01  0.121385D-01 -0.203700D-01  0.660290D-01
     10 -0.101567D-01  0.171151D-02  0.523935D-02 -0.280920D-02  0.988366D-01
     11  0.626734D-02  0.587172D-02  0.209928D-02  0.491940D-02 -0.125332D-01
     12 -0.170916D-01 -0.321165D-02  0.536608D-02  0.571727D-02  0.174724D-01
     13  0.144580D-01 -0.188069D-01  0.484076D-02 -0.930095D-02 -0.148193D-02
     14 -0.206436D-02 -0.201333D-01 -0.260043D-01  0.225194D-02  0.343095D-02
     15 -0.212273D-01  0.292348D-02  0.125938D-01 -0.116489D-01 -0.442855D-02
     16  0.628717D-02 -0.239022D-01  0.223307D-02  0.117963D-01 -0.362348D-01
     17 -0.285118D-02  0.100600D-01 -0.304042D-01 -0.187563D-01  0.321413D-02
     18 -0.319227D-01 -0.424069D-02  0.115456D-01 -0.245229D-01  0.841887D-02
     19  0.675747D-02  0.413668D-02  0.207295D-02 -0.256024D-02 -0.257313D-01
     20  0.660089D-02 -0.296981D-02 -0.301506D-02  0.171050D-02  0.106771D-01
     21 -0.216525D-01 -0.901785D-03  0.365964D-02  0.427092D-02 -0.778812D-02
               11            12            13            14            15 
     11  0.732958D-01
     12 -0.799212D-02  0.661575D-01
     13 -0.444102D-03 -0.322198D-02  0.563723D-01
     14  0.309541D-02  0.153681D-02  0.892700D-02  0.454945D-01
     15  0.404577D-03  0.631238D-02  0.581159D-02 -0.347269D-02  0.384695D-01
     16  0.266066D-02 -0.266322D-01 -0.209138D-01  0.905543D-02  0.180442D-01
     17 -0.323484D-01  0.117906D-01 -0.782517D-02 -0.125649D-01 -0.197120D-02
     18 -0.744955D-02 -0.525462D-01 -0.517318D-02 -0.340964D-03 -0.178179D-01
     19 -0.172448D-01 -0.674457D-03 -0.302020D-03  0.725762D-02 -0.251589D-02
     20 -0.130660D-01  0.250494D-02  0.193350D-03 -0.326643D-02  0.140537D-02
     21 -0.409520D-02 -0.413157D-02 -0.869298D-03  0.425207D-02  0.359456D-03
               16            17            18            19            20 
     16  0.135268D+00
     17 -0.706165D-02  0.131878D+00
     18 -0.150649D-01  0.129222D-01  0.178983D+00
     19 -0.196299D-01 -0.487228D-02  0.183757D-02  0.495077D-01
     20  0.147198D-02 -0.179197D-01 -0.120017D-01  0.777434D-02  0.590936D-01
     21  0.142683D-01  0.174180D-01 -0.254393D-01 -0.211991D-02 -0.147318D-02
               21 
     21  0.389476D-01
 Leave Link  716 at Thu Dec  7 03:26:30 2023, MaxMem=  1879048192 cpu:               0.4 elap:               0.0
 (Enter /home/sekinelabo/g16/l103.exe)

 GradGradGradGradGradGradGradGradGradGradGradGradGradGradGradGradGradGrad
 Berny optimization.
 Search for a local minimum.
 Step number   1 out of a maximum of    2
 All quantities printed in internal units (Hartrees-Bohrs-Radians)
 Second derivative matrix not updated -- first step.
 ITU=  0
     Eigenvalues ---    0.04240   0.04687   0.06246   0.06374   0.07054
     Eigenvalues ---    0.09109   0.09525   0.11116   0.12299   0.12550
     Eigenvalues ---    0.14725   0.16216   0.16920   0.18336   0.22466
 Angle between quadratic step and forces=  34.43 degrees.
 Linear search not attempted -- first point.
 B after Tr=     0.000000    0.000000   -0.000000
         Rot=    1.000000    0.000000   -0.000000    0.000000 Ang=   0.00 deg.
 Variable       Old X    -DE/DX   Delta X   Delta X   Delta X     New X
                                 (Linear)    (Quad)   (Total)
    X1       27.17747   0.00202   0.00000   0.02434   0.02434  27.20181
    Y1       28.12347  -0.00248   0.00000  -0.02923  -0.02923  28.09424
    Z1       24.26200   0.00204   0.00000   0.00875   0.00875  24.27076
    X2       22.30330   0.00009   0.00000   0.00230   0.00230  22.30561
    Y2       24.09873   0.00013   0.00000   0.00804   0.00804  24.10677
    Z2       27.34150  -0.00222   0.00000  -0.02227  -0.02227  27.31924
    X3       22.09109  -0.00180   0.00000  -0.02143  -0.02143  22.06965
    Y3       28.28164   0.00016   0.00000  -0.00882  -0.00882  28.27282
    Z3       20.83612  -0.00033   0.00000   0.00740   0.00740  20.84352
    X4       28.23912   0.00274   0.00000   0.00325   0.00325  28.24237
    Y4       20.85426  -0.00045   0.00000   0.00173   0.00173  20.85600
    Z4       25.34633   0.00506   0.00000   0.03308   0.03308  25.37941
    X5       17.97740   0.00209   0.00000   0.03377   0.03377  18.01117
    Y5       23.55090  -0.00244   0.00000  -0.04712  -0.04712  23.50378
    Z5       21.46332   0.00163   0.00000   0.02535   0.02535  21.48867
    X6       25.05588  -0.00470   0.00000  -0.02613  -0.02613  25.02975
    Y6       22.56125   0.00175   0.00000   0.01707   0.01707  22.57832
    Z6       21.15076  -0.00546   0.00000  -0.02340  -0.02340  21.12736
    X7       22.33297  -0.00045   0.00000  -0.01609  -0.01609  22.31688
    Y7       17.70726   0.00332   0.00000   0.05833   0.05833  17.76559
    Z7       24.77752  -0.00071   0.00000  -0.02891  -0.02891  24.74861
         Item               Value     Threshold  Converged?
 Maximum Force            0.005461     0.000450     NO 
 RMS     Force            0.002542     0.000300     NO 
 Maximum Displacement     0.058328     0.001800     NO 
 RMS     Displacement     0.025645     0.001200     NO 
 Predicted change in Energy=-5.646035D-04
 GradGradGradGradGradGradGradGradGradGradGradGradGradGradGradGradGradGrad

 Leave Link  103 at Thu Dec  7 03:26:30 2023, MaxMem=  1879048192 cpu:               0.2 elap:               0.0
 (Enter /home/sekinelabo/g16/l9999.exe)
 1\1\GINC-SEKINELABO-XA7R-R37\Force\UB3LYP\6-311+G(d)\Na7(2)\SEKINELABO
 \07-Dec-2023\0\\#P B3LYP/6-311+g(d) force\\DPGEN\\0,2\Na,14.3817,14.88
 23,12.8389\Na,11.8024,12.7525,14.4685\Na,11.6901,14.966,11.026\Na,14.9
 435,11.0356,13.4127\Na,9.51323,12.4626,11.3579\Na,13.259,11.9389,11.19
 25\Na,11.8181,9.37028,13.1117\\Version=ES64L-G16RevB.01\State=2-A\HF=-
 1136.1346337\S2=0.760397\S2-1=0.\S2A=0.750075\RMSD=6.007e-09\RMSF=2.54
 2e-03\Dipole=-0.0024204,-0.1696758,0.1194036\Quadrupole=0.7241532,4.67
 87501,-5.4029033,1.101591,3.2010436,-2.9996979\PG=C01 [X(Na7)]\\@


 ONE BIG VICE IN A MAN IS APT TO KEEP OUT MANY SMALLER ONES.

                           -- BRET HARTE
 Job cpu time:       0 days  0 hours  3 minutes 53.6 seconds.
 Elapsed time:       0 days  0 hours  0 minutes 19.6 seconds.
 File lengths (MBytes):  RWF=     32 Int=      0 D2E=      0 Chk=      4 Scr=      1
 Normal termination of Gaussian 16 at Thu Dec  7 03:26:30 2023.
