 Set GAUSS_MDEF to "14GB".
 Entering Gaussian System, Link 0=g16
 Initial command:
 /home/sekinelabo/g16/l1.exe "/home/sekinelabo/g16temp/Gau-346116.inp" -scrdir="/home/sekinelabo/g16temp/"
 Entering Link 1 = /home/sekinelabo/g16/l1.exe PID=    346118.
  
 Copyright (c) 1988-2017, Gaussian, Inc.  All Rights Reserved.
  
 This is part of the Gaussian(R) 16 program.  It is based on
 the Gaussian(R) 09 system (copyright 2009, Gaussian, Inc.),
 the Gaussian(R) 03 system (copyright 2003, Gaussian, Inc.),
 the Gaussian(R) 98 system (copyright 1998, Gaussian, Inc.),
 the Gaussian(R) 94 system (copyright 1995, Gaussian, Inc.),
 the Gaussian 92(TM) system (copyright 1992, Gaussian, Inc.),
 the Gaussian 90(TM) system (copyright 1990, Gaussian, Inc.),
 the Gaussian 88(TM) system (copyright 1988, Gaussian, Inc.),
 the Gaussian 86(TM) system (copyright 1986, Carnegie Mellon
 University), and the Gaussian 82(TM) system (copyright 1983,
 Carnegie Mellon University). Gaussian is a federally registered
 trademark of Gaussian, Inc.
  
 This software contains proprietary and confidential information,
 including trade secrets, belonging to Gaussian, Inc.
  
 This software is provided under written license and may be
 used, copied, transmitted, or stored only in accord with that
 written license.
  
 The following legend is applicable only to US Government
 contracts under FAR:
  
                    RESTRICTED RIGHTS LEGEND
  
 Use, reproduction and disclosure by the US Government is
 subject to restrictions as set forth in subparagraphs (a)
 and (c) of the Commercial Computer Software - Restricted
 Rights clause in FAR 52.227-19.
  
 Gaussian, Inc.
 340 Quinnipiac St., Bldg. 40, Wallingford CT 06492
  
  
 ---------------------------------------------------------------
 Warning -- This program may not be used in any manner that
 competes with the business of Gaussian, Inc. or will provide
 assistance to any competitor of Gaussian, Inc.  The licensee
 of this program is prohibited from giving any competitor of
 Gaussian, Inc. access to this program.  By using this program,
 the user acknowledges that Gaussian, Inc. is engaged in the
 business of creating and licensing software in the field of
 computational chemistry and represents and warrants to the
 licensee that it is not a competitor of Gaussian, Inc. and that
 it will not use this program in any manner prohibited above.
 ---------------------------------------------------------------
  

 Cite this work as:
 Gaussian 16, Revision B.01,
 M. J. Frisch, G. W. Trucks, H. B. Schlegel, G. E. Scuseria, 
 M. A. Robb, J. R. Cheeseman, G. Scalmani, V. Barone, 
 G. A. Petersson, H. Nakatsuji, X. Li, M. Caricato, A. V. Marenich, 
 J. Bloino, B. G. Janesko, R. Gomperts, B. Mennucci, H. P. Hratchian, 
 J. V. Ortiz, A. F. Izmaylov, J. L. Sonnenberg, D. Williams-Young, 
 F. Ding, F. Lipparini, F. Egidi, J. Goings, B. Peng, A. Petrone, 
 T. Henderson, D. Ranasinghe, V. G. Zakrzewski, J. Gao, N. Rega, 
 G. Zheng, W. Liang, M. Hada, M. Ehara, K. Toyota, R. Fukuda, 
 J. Hasegawa, M. Ishida, T. Nakajima, Y. Honda, O. Kitao, H. Nakai, 
 T. Vreven, K. Throssell, J. A. Montgomery, Jr., J. E. Peralta, 
 F. Ogliaro, M. J. Bearpark, J. J. Heyd, E. N. Brothers, K. N. Kudin, 
 V. N. Staroverov, T. A. Keith, R. Kobayashi, J. Normand, 
 K. Raghavachari, A. P. Rendell, J. C. Burant, S. S. Iyengar, 
 J. Tomasi, M. Cossi, J. M. Millam, M. Klene, C. Adamo, R. Cammi, 
 J. W. Ochterski, R. L. Martin, K. Morokuma, O. Farkas, 
 J. B. Foresman, and D. J. Fox, Gaussian, Inc., Wallingford CT, 2016.
 
 ******************************************
 Gaussian 16:  ES64L-G16RevB.01 20-Dec-2017
                29-Nov-2023 
 ******************************************
 %nproc=15
 Will use up to   15 processors via shared memory.
 -------------------------
 #P B3LYP/6-311+g(d) force
 -------------------------
 1/10=7,30=1,38=1/1,3;
 2/12=2,17=6,18=5,40=1/2;
 3/5=4,6=6,7=11,11=2,25=1,30=1,71=1,74=-5/1,2,3;
 4//1;
 5/5=2,38=5/2;
 6/7=2,8=2,9=2,10=2,28=1/1;
 7/29=1/1,2,3,16;
 1/10=7,30=1/3;
 99//99;
 Leave Link    1 at Wed Nov 29 03:14:57 2023, MaxMem=           0 cpu:               0.3 elap:               0.0
 (Enter /home/sekinelabo/g16/l101.exe)
 -----
 DPGEN
 -----
 Symbolic Z-matrix:
 Charge =  0 Multiplicity = 2
 Na                    15.146    15.0008   12.7333 
 Na                    15.7645   12.4308   11.0829 
 Na                    18.8041   14.2178   12.7315 
 Na                    17.648    16.0969   15.0833 
 Na                    14.3727   16.9384   15.8075 
 Na                    12.4406   17.0532   18.7299 
 Na                    13.2495   15.6875   21.2572 
 
 ITRead=  0  0  0  0  0  0  0
 MicOpt= -1 -1 -1 -1 -1 -1 -1
 NAtoms=      7 NQM=        7 NQMF=       0 NMMI=      0 NMMIF=      0
                NMic=       0 NMicF=      0.
                    Isotopes and Nuclear Properties:
 (Nuclear quadrupole moments (NQMom) in fm**2, nuclear magnetic moments (NMagM)
  in nuclear magnetons)

  Atom         1           2           3           4           5           6           7
 IAtWgt=          23          23          23          23          23          23          23
 AtmWgt=  22.9897697  22.9897697  22.9897697  22.9897697  22.9897697  22.9897697  22.9897697
 NucSpn=           3           3           3           3           3           3           3
 AtZEff=  -0.0000000  -0.0000000  -0.0000000  -0.0000000  -0.0000000  -0.0000000  -0.0000000
 NQMom=   10.4000000  10.4000000  10.4000000  10.4000000  10.4000000  10.4000000  10.4000000
 NMagM=    2.2175200   2.2175200   2.2175200   2.2175200   2.2175200   2.2175200   2.2175200
 AtZNuc=  11.0000000  11.0000000  11.0000000  11.0000000  11.0000000  11.0000000  11.0000000
 Leave Link  101 at Wed Nov 29 03:14:58 2023, MaxMem=  1879048192 cpu:               2.4 elap:               0.2
 (Enter /home/sekinelabo/g16/l103.exe)

 GradGradGradGradGradGradGradGradGradGradGradGradGradGradGradGradGradGrad
 Berny optimization.
 Initialization pass.
 Trust Radius=3.00D-01 FncErr=1.00D-07 GrdErr=1.00D-07 EigMax=2.50D+02 EigMin=1.00D-04
 Number of steps in this run=      2 maximum allowed number of steps=      2.
 GradGradGradGradGradGradGradGradGradGradGradGradGradGradGradGradGradGrad

 Leave Link  103 at Wed Nov 29 03:14:58 2023, MaxMem=  1879048192 cpu:               0.2 elap:               0.0
 (Enter /home/sekinelabo/g16/l202.exe)
                          Input orientation:                          
 ---------------------------------------------------------------------
 Center     Atomic      Atomic             Coordinates (Angstroms)
 Number     Number       Type             X           Y           Z
 ---------------------------------------------------------------------
      1         11           0       15.146000   15.000800   12.733300
      2         11           0       15.764500   12.430800   11.082900
      3         11           0       18.804100   14.217800   12.731500
      4         11           0       17.648000   16.096900   15.083300
      5         11           0       14.372700   16.938400   15.807500
      6         11           0       12.440600   17.053200   18.729900
      7         11           0       13.249500   15.687500   21.257200
 ---------------------------------------------------------------------
                    Distance matrix (angstroms):
                    1          2          3          4          5
     1  Na   0.000000
     2  Na   3.116290   0.000000
     3  Na   3.740961   3.892354   0.000000
     4  Na   3.603323   5.743785   3.224678   0.000000
     5  Na   3.715238   6.676632   6.041585   3.458349   0.000000
     6  Na   6.891353   9.533703   9.193173   6.428780   3.505226
     7  Na   8.759289  10.974867  10.281107   7.591538   5.703118
                    6          7
     6  Na   0.000000
     7  Na   2.984410   0.000000
 Stoichiometry    Na7(2)
 Framework group  C1[X(Na7)]
 Deg. of freedom    15
 Full point group                 C1      NOp   1
 Largest Abelian subgroup         C1      NOp   1
 Largest concise Abelian subgroup C1      NOp   1
                         Standard orientation:                         
 ---------------------------------------------------------------------
 Center     Atomic      Atomic             Coordinates (Angstroms)
 Number     Number       Type             X           Y           Z
 ---------------------------------------------------------------------
      1         11           0        2.240094   -1.223671   -0.687890
      2         11           0        4.662144   -1.960501    1.129256
      3         11           0        4.061143    1.829458    0.477003
      4         11           0        1.008048    2.157674   -0.507594
      5         11           0       -1.279008   -0.275061   -1.408346
      6         11           0       -4.643690   -0.902737   -0.652341
      7         11           0       -6.048730    0.374837    1.649912
 ---------------------------------------------------------------------
 Rotational constants (GHZ):           1.0112002           0.1973066           0.1856277
 Leave Link  202 at Wed Nov 29 03:14:58 2023, MaxMem=  1879048192 cpu:               0.0 elap:               0.0
 (Enter /home/sekinelabo/g16/l301.exe)
 Standard basis: 6-311+G(d) (5D, 7F)
 Ernie: Thresh=  0.10000D-02 Tol=  0.10000D-05 Strict=F.
 There are   217 symmetry adapted cartesian basis functions of A   symmetry.
 There are   210 symmetry adapted basis functions of A   symmetry.
   210 basis functions,   350 primitive gaussians,   217 cartesian basis functions
    39 alpha electrons       38 beta electrons
       nuclear repulsion energy       270.5138583247 Hartrees.
 IExCor=  402 DFT=T Ex+Corr=B3LYP ExCW=0 ScaHFX=  0.200000
 ScaDFX=  0.800000  0.720000  1.000000  0.810000 ScalE2=  1.000000  1.000000
 IRadAn=      5 IRanWt=     -1 IRanGd=            0 ICorTp=0 IEmpDi=  4
 NAtoms=    7 NActive=    7 NUniq=    7 SFac= 1.00D+00 NAtFMM=   60 NAOKFM=F Big=F
 Integral buffers will be    131072 words long.
 Raffenetti 2 integral format.
 Two-electron integral symmetry is turned on.
 Leave Link  301 at Wed Nov 29 03:14:58 2023, MaxMem=  1879048192 cpu:               0.5 elap:               0.0
 (Enter /home/sekinelabo/g16/l302.exe)
 NPDir=0 NMtPBC=     1 NCelOv=     1 NCel=       1 NClECP=     1 NCelD=      1
         NCelK=      1 NCelE2=     1 NClLst=     1 CellRange=     0.0.
 One-electron integrals computed using PRISM.
 One-electron integral symmetry used in STVInt
 NBasis=   210 RedAO= T EigKep=  5.37D-06  NBF=   210
 NBsUse=   210 1.00D-06 EigRej= -1.00D+00 NBFU=   210
 Precomputing XC quadrature grid using
 IXCGrd= 4 IRadAn=           5 IRanWt=          -1 IRanGd=           0 AccXCQ= 0.00D+00.
 Generated NRdTot=       0 NPtTot=           0 NUsed=           0 NTot=          32
 NSgBfM=   200   200   200   200   200 MxSgAt=     7 MxSgA2=     7.
 Leave Link  302 at Wed Nov 29 03:14:58 2023, MaxMem=  1879048192 cpu:               1.9 elap:               0.1
 (Enter /home/sekinelabo/g16/l303.exe)
 DipDrv:  MaxL=1.
 Leave Link  303 at Wed Nov 29 03:14:58 2023, MaxMem=  1879048192 cpu:               0.5 elap:               0.0
 (Enter /home/sekinelabo/g16/l401.exe)
 ExpMin= 7.60D-03 ExpMax= 3.62D+04 ExpMxC= 1.21D+03 IAcc=3 IRadAn=         5 AccDes= 0.00D+00
 Harris functional with IExCor=  402 and IRadAn=       5 diagonalized for initial guess.
 HarFok:  IExCor=  402 AccDes= 0.00D+00 IRadAn=         5 IDoV= 1 UseB2=F ITyADJ=14
 ICtDFT=  3500011 ScaDFX=  1.000000  1.000000  1.000000  1.000000
 FoFCou: FMM=F IPFlag=           0 FMFlag=      100000 FMFlg1=           0
         NFxFlg=           0 DoJE=T BraDBF=F KetDBF=T FulRan=T
         wScrn=  0.000000 ICntrl=       500 IOpCl=  0 I1Cent=   200000004 NGrid=           0
         NMat0=    1 NMatS0=      1 NMatT0=    0 NMatD0=    1 NMtDS0=    0 NMtDT0=    0
 Petite list used in FoFCou.
 Harris En= -1135.88524882622    
 JPrj=0 DoOrth=F DoCkMO=F.
 Initial guess <Sx>= 0.0000 <Sy>= 0.0000 <Sz>= 0.5000 <S**2>= 0.7500 S= 0.5000
 Leave Link  401 at Wed Nov 29 03:14:58 2023, MaxMem=  1879048192 cpu:               4.1 elap:               0.3
 (Enter /home/sekinelabo/g16/l502.exe)
 Keep R1 and R2 ints in memory in canonical form, NReq=506573307.
 FoFCou: FMM=F IPFlag=           0 FMFlag=           0 FMFlg1=           0
         NFxFlg=           0 DoJE=F BraDBF=F KetDBF=F FulRan=T
         wScrn=  0.000000 ICntrl=       600 IOpCl=  0 I1Cent=           0 NGrid=           0
         NMat0=    1 NMatS0=  22155 NMatT0=    0 NMatD0=    1 NMtDS0=    0 NMtDT0=    0
 Symmetry not used in FoFCou.
 Two-electron integral symmetry not used.
 UHF open shell SCF:
 Using DIIS extrapolation, IDIIS=  1040.
 NGot=  1879048192 LenX=  1388082593 LenY=  1388035063
 Requested convergence on RMS density matrix=1.00D-08 within 128 cycles.
 Requested convergence on MAX density matrix=1.00D-06.
 Requested convergence on             energy=1.00D-06.
 No special actions if energy rises.

 Cycle   1  Pass 1  IDiag  1:
 E= -1136.09055766432    
 DIIS: error= 9.64D-03 at cycle   1 NSaved=   1.
 NSaved= 1 IEnMin= 1 EnMin= -1136.09055766432     IErMin= 1 ErrMin= 9.64D-03
 ErrMax= 9.64D-03  0.00D+00 EMaxC= 1.00D-01 BMatC= 1.82D-01 BMatP= 1.82D-01
 IDIUse=3 WtCom= 9.04D-01 WtEn= 9.64D-02
 Coeff-Com:  0.100D+01
 Coeff-En:   0.100D+01
 Coeff:      0.100D+01
 Gap=     0.044 Goal=   None    Shift=    0.000
 Gap=     0.032 Goal=   None    Shift=    0.000
 GapD=    0.032 DampG=0.250 DampE=1.000 DampFc=0.2500 IDamp=-1.
 Damping current iteration by 2.50D-01
 RMSDP=1.04D-02 MaxDP=7.36D-01              OVMax= 1.42D-01

 Cycle   2  Pass 1  IDiag  1:
 E= -1136.09875706656     Delta-E=       -0.008199402242 Rises=F Damp=T
 DIIS: error= 6.90D-03 at cycle   2 NSaved=   2.
 NSaved= 2 IEnMin= 2 EnMin= -1136.09875706656     IErMin= 2 ErrMin= 6.90D-03
 ErrMax= 6.90D-03  0.00D+00 EMaxC= 1.00D-01 BMatC= 7.06D-02 BMatP= 1.82D-01
 IDIUse=3 WtCom= 9.31D-01 WtEn= 6.90D-02
 Coeff-Com: -0.131D+01 0.231D+01
 Coeff-En:   0.000D+00 0.100D+01
 Coeff:     -0.122D+01 0.222D+01
 Gap=     0.048 Goal=   None    Shift=    0.000
 Gap=     0.035 Goal=   None    Shift=    0.000
 RMSDP=5.87D-03 MaxDP=4.24D-01 DE=-8.20D-03 OVMax= 1.06D-01

 Cycle   3  Pass 1  IDiag  1:
 E= -1136.11516882879     Delta-E=       -0.016411762232 Rises=F Damp=F
 DIIS: error= 1.27D-03 at cycle   3 NSaved=   3.
 NSaved= 3 IEnMin= 3 EnMin= -1136.11516882879     IErMin= 3 ErrMin= 1.27D-03
 ErrMax= 1.27D-03  0.00D+00 EMaxC= 1.00D-01 BMatC= 7.50D-04 BMatP= 7.06D-02
 IDIUse=3 WtCom= 9.87D-01 WtEn= 1.27D-02
 Coeff-Com: -0.810D-01 0.137D+00 0.944D+00
 Coeff-En:   0.000D+00 0.000D+00 0.100D+01
 Coeff:     -0.799D-01 0.136D+00 0.944D+00
 Gap=     0.047 Goal=   None    Shift=    0.000
 Gap=     0.037 Goal=   None    Shift=    0.000
 RMSDP=1.71D-03 MaxDP=9.47D-02 DE=-1.64D-02 OVMax= 7.52D-02

 Cycle   4  Pass 1  IDiag  1:
 E= -1136.11465618435     Delta-E=        0.000512644439 Rises=F Damp=F
 DIIS: error= 1.67D-03 at cycle   4 NSaved=   4.
 NSaved= 4 IEnMin= 3 EnMin= -1136.11516882879     IErMin= 3 ErrMin= 1.27D-03
 ErrMax= 1.67D-03  0.00D+00 EMaxC= 1.00D-01 BMatC= 1.28D-03 BMatP= 7.50D-04
 IDIUse=3 WtCom= 1.97D-01 WtEn= 8.03D-01
 Coeff-Com: -0.575D-02 0.718D-02 0.568D+00 0.430D+00
 Coeff-En:   0.000D+00 0.000D+00 0.595D+00 0.405D+00
 Coeff:     -0.113D-02 0.141D-02 0.590D+00 0.410D+00
 Gap=     0.048 Goal=   None    Shift=    0.000
 Gap=     0.036 Goal=   None    Shift=    0.000
 RMSDP=9.40D-04 MaxDP=5.20D-02 DE= 5.13D-04 OVMax= 3.81D-02

 Cycle   5  Pass 1  IDiag  1:
 E= -1136.11617458715     Delta-E=       -0.001518402795 Rises=F Damp=F
 DIIS: error= 1.60D-04 at cycle   5 NSaved=   5.
 NSaved= 5 IEnMin= 5 EnMin= -1136.11617458715     IErMin= 5 ErrMin= 1.60D-04
 ErrMax= 1.60D-04  0.00D+00 EMaxC= 1.00D-01 BMatC= 1.08D-05 BMatP= 7.50D-04
 IDIUse=3 WtCom= 9.98D-01 WtEn= 1.60D-03
 Coeff-Com:  0.372D-02-0.605D-02 0.891D-01 0.389D-01 0.874D+00
 Coeff-En:   0.000D+00 0.000D+00 0.000D+00 0.000D+00 0.100D+01
 Coeff:      0.371D-02-0.604D-02 0.890D-01 0.389D-01 0.874D+00
 Gap=     0.048 Goal=   None    Shift=    0.000
 Gap=     0.036 Goal=   None    Shift=    0.000
 RMSDP=2.07D-04 MaxDP=1.51D-02 DE=-1.52D-03 OVMax= 1.13D-02

 Cycle   6  Pass 1  IDiag  1:
 E= -1136.11620416485     Delta-E=       -0.000029577701 Rises=F Damp=F
 DIIS: error= 1.22D-04 at cycle   6 NSaved=   6.
 NSaved= 6 IEnMin= 6 EnMin= -1136.11620416485     IErMin= 6 ErrMin= 1.22D-04
 ErrMax= 1.22D-04  0.00D+00 EMaxC= 1.00D-01 BMatC= 5.52D-06 BMatP= 1.08D-05
 IDIUse=3 WtCom= 9.99D-01 WtEn= 1.22D-03
 Coeff-Com:  0.229D-02-0.363D-02-0.987D-01-0.851D-01 0.425D+00 0.761D+00
 Coeff-En:   0.000D+00 0.000D+00 0.000D+00 0.000D+00 0.000D+00 0.100D+01
 Coeff:      0.229D-02-0.362D-02-0.986D-01-0.850D-01 0.424D+00 0.761D+00
 Gap=     0.048 Goal=   None    Shift=    0.000
 Gap=     0.037 Goal=   None    Shift=    0.000
 RMSDP=1.50D-04 MaxDP=9.17D-03 DE=-2.96D-05 OVMax= 8.99D-03

 Cycle   7  Pass 1  IDiag  1:
 E= -1136.11622075111     Delta-E=       -0.000016586263 Rises=F Damp=F
 DIIS: error= 7.33D-05 at cycle   7 NSaved=   7.
 NSaved= 7 IEnMin= 7 EnMin= -1136.11622075111     IErMin= 7 ErrMin= 7.33D-05
 ErrMax= 7.33D-05  0.00D+00 EMaxC= 1.00D-01 BMatC= 1.68D-06 BMatP= 5.52D-06
 IDIUse=1 WtCom= 1.00D+00 WtEn= 0.00D+00
 Coeff-Com:  0.155D-03-0.143D-03-0.856D-01-0.594D-01-0.372D-01 0.391D+00
 Coeff-Com:  0.791D+00
 Coeff:      0.155D-03-0.143D-03-0.856D-01-0.594D-01-0.372D-01 0.391D+00
 Coeff:      0.791D+00
 Gap=     0.048 Goal=   None    Shift=    0.000
 Gap=     0.037 Goal=   None    Shift=    0.000
 RMSDP=1.22D-04 MaxDP=9.48D-03 DE=-1.66D-05 OVMax= 6.57D-03

 Cycle   8  Pass 1  IDiag  1:
 E= -1136.11622739261     Delta-E=       -0.000006641497 Rises=F Damp=F
 DIIS: error= 2.72D-05 at cycle   8 NSaved=   8.
 NSaved= 8 IEnMin= 8 EnMin= -1136.11622739261     IErMin= 8 ErrMin= 2.72D-05
 ErrMax= 2.72D-05  0.00D+00 EMaxC= 1.00D-01 BMatC= 2.67D-07 BMatP= 1.68D-06
 IDIUse=1 WtCom= 1.00D+00 WtEn= 0.00D+00
 Coeff-Com:  0.465D-03-0.504D-03-0.617D-02-0.149D-02-0.900D-01-0.303D-01
 Coeff-Com:  0.194D+00 0.934D+00
 Coeff:      0.465D-03-0.504D-03-0.617D-02-0.149D-02-0.900D-01-0.303D-01
 Coeff:      0.194D+00 0.934D+00
 Gap=     0.048 Goal=   None    Shift=    0.000
 Gap=     0.037 Goal=   None    Shift=    0.000
 RMSDP=6.65D-05 MaxDP=4.79D-03 DE=-6.64D-06 OVMax= 3.30D-03

 Cycle   9  Pass 1  IDiag  1:
 E= -1136.11622918492     Delta-E=       -0.000001792313 Rises=F Damp=F
 DIIS: error= 1.88D-05 at cycle   9 NSaved=   9.
 NSaved= 9 IEnMin= 9 EnMin= -1136.11622918492     IErMin= 9 ErrMin= 1.88D-05
 ErrMax= 1.88D-05  0.00D+00 EMaxC= 1.00D-01 BMatC= 9.40D-08 BMatP= 2.67D-07
 IDIUse=1 WtCom= 1.00D+00 WtEn= 0.00D+00
 Coeff-Com:  0.210D-03-0.259D-03 0.204D-01 0.152D-01-0.263D-01-0.980D-01
 Coeff-Com: -0.176D+00 0.294D+00 0.970D+00
 Coeff:      0.210D-03-0.259D-03 0.204D-01 0.152D-01-0.263D-01-0.980D-01
 Coeff:     -0.176D+00 0.294D+00 0.970D+00
 Gap=     0.048 Goal=   None    Shift=    0.000
 Gap=     0.037 Goal=   None    Shift=    0.000
 RMSDP=4.86D-05 MaxDP=3.19D-03 DE=-1.79D-06 OVMax= 2.50D-03

 Cycle  10  Pass 1  IDiag  1:
 E= -1136.11622990902     Delta-E=       -0.000000724098 Rises=F Damp=F
 DIIS: error= 8.33D-06 at cycle  10 NSaved=  10.
 NSaved=10 IEnMin=10 EnMin= -1136.11622990902     IErMin=10 ErrMin= 8.33D-06
 ErrMax= 8.33D-06  0.00D+00 EMaxC= 1.00D-01 BMatC= 2.27D-08 BMatP= 9.40D-08
 IDIUse=1 WtCom= 1.00D+00 WtEn= 0.00D+00
 Coeff-Com: -0.453D-03 0.571D-03 0.497D-02 0.243D-02 0.225D-01 0.715D-02
 Coeff-Com: -0.881D-01-0.284D+00 0.665D-01 0.127D+01
 Coeff:     -0.453D-03 0.571D-03 0.497D-02 0.243D-02 0.225D-01 0.715D-02
 Coeff:     -0.881D-01-0.284D+00 0.665D-01 0.127D+01
 Gap=     0.048 Goal=   None    Shift=    0.000
 Gap=     0.037 Goal=   None    Shift=    0.000
 RMSDP=3.79D-05 MaxDP=2.40D-03 DE=-7.24D-07 OVMax= 1.67D-03

 Cycle  11  Pass 1  IDiag  1:
 E= -1136.11623015616     Delta-E=       -0.000000247139 Rises=F Damp=F
 DIIS: error= 3.78D-06 at cycle  11 NSaved=  11.
 NSaved=11 IEnMin=11 EnMin= -1136.11623015616     IErMin=11 ErrMin= 3.78D-06
 ErrMax= 3.78D-06  0.00D+00 EMaxC= 1.00D-01 BMatC= 7.13D-09 BMatP= 2.27D-08
 IDIUse=1 WtCom= 1.00D+00 WtEn= 0.00D+00
 Coeff-Com: -0.246D-03 0.306D-03-0.131D-02-0.166D-02 0.154D-01 0.188D-01
 Coeff-Com: -0.105D-01-0.180D+00-0.129D+00 0.608D+00 0.680D+00
 Coeff:     -0.246D-03 0.306D-03-0.131D-02-0.166D-02 0.154D-01 0.188D-01
 Coeff:     -0.105D-01-0.180D+00-0.129D+00 0.608D+00 0.680D+00
 Gap=     0.048 Goal=   None    Shift=    0.000
 Gap=     0.037 Goal=   None    Shift=    0.000
 RMSDP=9.63D-06 MaxDP=4.87D-04 DE=-2.47D-07 OVMax= 4.28D-04

 Cycle  12  Pass 1  IDiag  1:
 E= -1136.11623018810     Delta-E=       -0.000000031940 Rises=F Damp=F
 DIIS: error= 2.27D-06 at cycle  12 NSaved=  12.
 NSaved=12 IEnMin=12 EnMin= -1136.11623018810     IErMin=12 ErrMin= 2.27D-06
 ErrMax= 2.27D-06  0.00D+00 EMaxC= 1.00D-01 BMatC= 1.56D-09 BMatP= 7.13D-09
 IDIUse=1 WtCom= 1.00D+00 WtEn= 0.00D+00
 Coeff-Com:  0.927D-04-0.121D-03-0.159D-02-0.943D-03-0.312D-02 0.619D-03
 Coeff-Com:  0.270D-01 0.336D-01-0.606D-01-0.201D+00 0.150D+00 0.106D+01
 Coeff:      0.927D-04-0.121D-03-0.159D-02-0.943D-03-0.312D-02 0.619D-03
 Coeff:      0.270D-01 0.336D-01-0.606D-01-0.201D+00 0.150D+00 0.106D+01
 Gap=     0.048 Goal=   None    Shift=    0.000
 Gap=     0.037 Goal=   None    Shift=    0.000
 RMSDP=6.83D-06 MaxDP=3.44D-04 DE=-3.19D-08 OVMax= 3.63D-04

 Cycle  13  Pass 1  IDiag  1:
 E= -1136.11623020295     Delta-E=       -0.000000014851 Rises=F Damp=F
 DIIS: error= 1.64D-06 at cycle  13 NSaved=  13.
 NSaved=13 IEnMin=13 EnMin= -1136.11623020295     IErMin=13 ErrMin= 1.64D-06
 ErrMax= 1.64D-06  0.00D+00 EMaxC= 1.00D-01 BMatC= 5.49D-10 BMatP= 1.56D-09
 IDIUse=1 WtCom= 1.00D+00 WtEn= 0.00D+00
 Coeff-Com:  0.840D-04-0.105D-03 0.107D-03 0.283D-03-0.445D-02-0.457D-02
 Coeff-Com:  0.654D-02 0.490D-01 0.370D-01-0.179D+00-0.240D+00 0.130D+00
 Coeff-Com:  0.120D+01
 Coeff:      0.840D-04-0.105D-03 0.107D-03 0.283D-03-0.445D-02-0.457D-02
 Coeff:      0.654D-02 0.490D-01 0.370D-01-0.179D+00-0.240D+00 0.130D+00
 Coeff:      0.120D+01
 Gap=     0.048 Goal=   None    Shift=    0.000
 Gap=     0.037 Goal=   None    Shift=    0.000
 RMSDP=4.30D-06 MaxDP=2.04D-04 DE=-1.49D-08 OVMax= 2.17D-04

 Cycle  14  Pass 1  IDiag  1:
 E= -1136.11623020927     Delta-E=       -0.000000006319 Rises=F Damp=F
 DIIS: error= 8.78D-07 at cycle  14 NSaved=  14.
 NSaved=14 IEnMin=14 EnMin= -1136.11623020927     IErMin=14 ErrMin= 8.78D-07
 ErrMax= 8.78D-07  0.00D+00 EMaxC= 1.00D-01 BMatC= 1.43D-10 BMatP= 5.49D-10
 IDIUse=1 WtCom= 1.00D+00 WtEn= 0.00D+00
 Coeff-Com: -0.120D-04 0.168D-04 0.556D-03 0.293D-03 0.263D-03-0.165D-02
 Coeff-Com: -0.866D-02 0.231D-02 0.267D-01 0.271D-01-0.890D-01-0.366D+00
 Coeff-Com:  0.208D+00 0.120D+01
 Coeff:     -0.120D-04 0.168D-04 0.556D-03 0.293D-03 0.263D-03-0.165D-02
 Coeff:     -0.866D-02 0.231D-02 0.267D-01 0.271D-01-0.890D-01-0.366D+00
 Coeff:      0.208D+00 0.120D+01
 Gap=     0.048 Goal=   None    Shift=    0.000
 Gap=     0.037 Goal=   None    Shift=    0.000
 RMSDP=2.87D-06 MaxDP=1.28D-04 DE=-6.32D-09 OVMax= 1.94D-04

 Cycle  15  Pass 1  IDiag  1:
 E= -1136.11623021133     Delta-E=       -0.000000002056 Rises=F Damp=F
 DIIS: error= 4.29D-07 at cycle  15 NSaved=  15.
 NSaved=15 IEnMin=15 EnMin= -1136.11623021133     IErMin=15 ErrMin= 4.29D-07
 ErrMax= 4.29D-07  0.00D+00 EMaxC= 1.00D-01 BMatC= 3.51D-11 BMatP= 1.43D-10
 IDIUse=1 WtCom= 1.00D+00 WtEn= 0.00D+00
 Coeff-Com: -0.392D-04 0.508D-04 0.136D-03 0.150D-04 0.152D-02 0.133D-02
 Coeff-Com: -0.505D-02-0.169D-01 0.633D-04 0.676D-01 0.285D-01-0.167D+00
 Coeff-Com: -0.224D+00 0.419D+00 0.894D+00
 Coeff:     -0.392D-04 0.508D-04 0.136D-03 0.150D-04 0.152D-02 0.133D-02
 Coeff:     -0.505D-02-0.169D-01 0.633D-04 0.676D-01 0.285D-01-0.167D+00
 Coeff:     -0.224D+00 0.419D+00 0.894D+00
 Gap=     0.048 Goal=   None    Shift=    0.000
 Gap=     0.037 Goal=   None    Shift=    0.000
 RMSDP=8.61D-07 MaxDP=4.35D-05 DE=-2.06D-09 OVMax= 6.02D-05

 Cycle  16  Pass 1  IDiag  1:
 E= -1136.11623021158     Delta-E=       -0.000000000257 Rises=F Damp=F
 DIIS: error= 1.10D-07 at cycle  16 NSaved=  16.
 NSaved=16 IEnMin=16 EnMin= -1136.11623021158     IErMin=16 ErrMin= 1.10D-07
 ErrMax= 1.10D-07  0.00D+00 EMaxC= 1.00D-01 BMatC= 3.98D-12 BMatP= 3.51D-11
 IDIUse=1 WtCom= 1.00D+00 WtEn= 0.00D+00
 Coeff-Com:  0.647D-05-0.878D-05-0.662D-04-0.265D-04-0.112D-03-0.145D-03
 Coeff-Com:  0.149D-02 0.144D-02-0.320D-02-0.828D-02 0.115D-01 0.651D-01
 Coeff-Com: -0.443D-01-0.179D+00-0.323D-01 0.119D+01
 Coeff:      0.647D-05-0.878D-05-0.662D-04-0.265D-04-0.112D-03-0.145D-03
 Coeff:      0.149D-02 0.144D-02-0.320D-02-0.828D-02 0.115D-01 0.651D-01
 Coeff:     -0.443D-01-0.179D+00-0.323D-01 0.119D+01
 Gap=     0.048 Goal=   None    Shift=    0.000
 Gap=     0.037 Goal=   None    Shift=    0.000
 RMSDP=2.90D-07 MaxDP=1.30D-05 DE=-2.57D-10 OVMax= 2.32D-05

 Cycle  17  Pass 1  IDiag  1:
 E= -1136.11623021162     Delta-E=       -0.000000000037 Rises=F Damp=F
 DIIS: error= 5.27D-08 at cycle  17 NSaved=  17.
 NSaved=17 IEnMin=17 EnMin= -1136.11623021162     IErMin=17 ErrMin= 5.27D-08
 ErrMax= 5.27D-08  0.00D+00 EMaxC= 1.00D-01 BMatC= 8.99D-13 BMatP= 3.98D-12
 IDIUse=1 WtCom= 1.00D+00 WtEn= 0.00D+00
 Coeff-Com:  0.860D-05-0.111D-04-0.319D-04-0.891D-05-0.365D-03-0.241D-03
 Coeff-Com:  0.111D-02 0.345D-02-0.805D-04-0.142D-01-0.709D-02 0.318D-01
 Coeff-Com:  0.554D-01-0.719D-01-0.219D+00-0.544D-01 0.128D+01
 Coeff:      0.860D-05-0.111D-04-0.319D-04-0.891D-05-0.365D-03-0.241D-03
 Coeff:      0.111D-02 0.345D-02-0.805D-04-0.142D-01-0.709D-02 0.318D-01
 Coeff:      0.554D-01-0.719D-01-0.219D+00-0.544D-01 0.128D+01
 Gap=     0.048 Goal=   None    Shift=    0.000
 Gap=     0.037 Goal=   None    Shift=    0.000
 RMSDP=1.66D-07 MaxDP=1.15D-05 DE=-3.66D-11 OVMax= 1.04D-05

 Cycle  18  Pass 1  IDiag  1:
 E= -1136.11623021163     Delta-E=       -0.000000000013 Rises=F Damp=F
 DIIS: error= 2.18D-08 at cycle  18 NSaved=  18.
 NSaved=18 IEnMin=18 EnMin= -1136.11623021163     IErMin=18 ErrMin= 2.18D-08
 ErrMax= 2.18D-08  0.00D+00 EMaxC= 1.00D-01 BMatC= 1.73D-13 BMatP= 8.99D-13
 IDIUse=1 WtCom= 1.00D+00 WtEn= 0.00D+00
 Coeff-Com: -0.723D-06 0.102D-05 0.132D-04 0.661D-05-0.722D-05 0.644D-05
 Coeff-Com: -0.232D-03 0.360D-04 0.776D-03 0.222D-03-0.303D-02-0.109D-01
 Coeff-Com:  0.112D-01 0.367D-01-0.110D-01-0.267D+00 0.826D-01 0.116D+01
 Coeff:     -0.723D-06 0.102D-05 0.132D-04 0.661D-05-0.722D-05 0.644D-05
 Coeff:     -0.232D-03 0.360D-04 0.776D-03 0.222D-03-0.303D-02-0.109D-01
 Coeff:      0.112D-01 0.367D-01-0.110D-01-0.267D+00 0.826D-01 0.116D+01
 Gap=     0.048 Goal=   None    Shift=    0.000
 Gap=     0.037 Goal=   None    Shift=    0.000
 RMSDP=8.85D-08 MaxDP=7.31D-06 DE=-1.30D-11 OVMax= 4.63D-06

 Cycle  19  Pass 1  IDiag  1:
 E= -1136.11623021163     Delta-E=       -0.000000000002 Rises=F Damp=F
 DIIS: error= 8.58D-09 at cycle  19 NSaved=  19.
 NSaved=19 IEnMin=19 EnMin= -1136.11623021163     IErMin=19 ErrMin= 8.58D-09
 ErrMax= 8.58D-09  0.00D+00 EMaxC= 1.00D-01 BMatC= 2.88D-14 BMatP= 1.73D-13
 IDIUse=1 WtCom= 1.00D+00 WtEn= 0.00D+00
 Coeff-Com: -0.181D-05 0.236D-05 0.643D-05 0.113D-05 0.650D-04 0.367D-04
 Coeff-Com: -0.194D-03-0.626D-03 0.517D-04 0.270D-02 0.862D-03-0.731D-02
 Coeff-Com: -0.740D-02 0.175D-01 0.325D-01-0.267D-01-0.191D+00 0.156D+00
 Coeff-Com:  0.102D+01
 Coeff:     -0.181D-05 0.236D-05 0.643D-05 0.113D-05 0.650D-04 0.367D-04
 Coeff:     -0.194D-03-0.626D-03 0.517D-04 0.270D-02 0.862D-03-0.731D-02
 Coeff:     -0.740D-02 0.175D-01 0.325D-01-0.267D-01-0.191D+00 0.156D+00
 Coeff:      0.102D+01
 Gap=     0.048 Goal=   None    Shift=    0.000
 Gap=     0.037 Goal=   None    Shift=    0.000
 RMSDP=2.87D-08 MaxDP=1.93D-06 DE=-2.27D-12 OVMax= 1.13D-06

 Cycle  20  Pass 1  IDiag  1:
 E= -1136.11623021164     Delta-E=       -0.000000000002 Rises=F Damp=F
 DIIS: error= 2.96D-09 at cycle  20 NSaved=  20.
 NSaved=20 IEnMin=20 EnMin= -1136.11623021164     IErMin=20 ErrMin= 2.96D-09
 ErrMax= 2.96D-09  0.00D+00 EMaxC= 1.00D-01 BMatC= 4.73D-15 BMatP= 2.88D-14
 IDIUse=1 WtCom= 1.00D+00 WtEn= 0.00D+00
 Coeff-Com:  0.735D-07-0.109D-06-0.172D-05-0.579D-06 0.550D-05-0.420D-05
 Coeff-Com:  0.208D-04-0.334D-04-0.824D-04 0.182D-04 0.663D-03 0.167D-02
 Coeff-Com: -0.277D-02-0.569D-02 0.623D-02 0.493D-01-0.357D-01-0.207D+00
 Coeff-Com:  0.180D+00 0.101D+01
 Coeff:      0.735D-07-0.109D-06-0.172D-05-0.579D-06 0.550D-05-0.420D-05
 Coeff:      0.208D-04-0.334D-04-0.824D-04 0.182D-04 0.663D-03 0.167D-02
 Coeff:     -0.277D-02-0.569D-02 0.623D-02 0.493D-01-0.357D-01-0.207D+00
 Coeff:      0.180D+00 0.101D+01
 Gap=     0.048 Goal=   None    Shift=    0.000
 Gap=     0.037 Goal=   None    Shift=    0.000
 RMSDP=9.01D-09 MaxDP=4.60D-07 DE=-2.05D-12 OVMax= 2.73D-07

 SCF Done:  E(UB3LYP) =  -1136.11623021     A.U. after   20 cycles
            NFock= 20  Conv=0.90D-08     -V/T= 2.0028
 <Sx>= 0.0000 <Sy>= 0.0000 <Sz>= 0.5000 <S**2>= 0.7856 S= 0.5177
 <L.S>= 0.000000000000E+00
 KE= 1.132905916940D+03 PE=-3.270219396001D+03 EE= 7.306833905243D+02
 Annihilation of the first spin contaminant:
 S**2 before annihilation     0.7856,   after     0.7508
 Leave Link  502 at Wed Nov 29 03:15:13 2023, MaxMem=  1879048192 cpu:             162.3 elap:              15.1
 (Enter /home/sekinelabo/g16/l601.exe)
 Copying SCF densities to generalized density rwf, IOpCl= 1 IROHF=0.

 **********************************************************************

            Population analysis using the SCF Density.

 **********************************************************************

 Orbital symmetries:
 Alpha Orbitals:
       Occupied  (A) (A) (A) (A) (A) (A) (A) (A) (A) (A) (A) (A)
                 (A) (A) (A) (A) (A) (A) (A) (A) (A) (A) (A) (A)
                 (A) (A) (A) (A) (A) (A) (A) (A) (A) (A) (A) (A)
                 (A) (A) (A)
       Virtual   (A) (A) (A) (A) (A) (A) (A) (A) (A) (A) (A) (A)
                 (A) (A) (A) (A) (A) (A) (A) (A) (A) (A) (A) (A)
                 (A) (A) (A) (A) (A) (A) (A) (A) (A) (A) (A) (A)
                 (A) (A) (A) (A) (A) (A) (A) (A) (A) (A) (A) (A)
                 (A) (A) (A) (A) (A) (A) (A) (A) (A) (A) (A) (A)
                 (A) (A) (A) (A) (A) (A) (A) (A) (A) (A) (A) (A)
                 (A) (A) (A) (A) (A) (A) (A) (A) (A) (A) (A) (A)
                 (A) (A) (A) (A) (A) (A) (A) (A) (A) (A) (A) (A)
                 (A) (A) (A) (A) (A) (A) (A) (A) (A) (A) (A) (A)
                 (A) (A) (A) (A) (A) (A) (A) (A) (A) (A) (A) (A)
                 (A) (A) (A) (A) (A) (A) (A) (A) (A) (A) (A) (A)
                 (A) (A) (A) (A) (A) (A) (A) (A) (A) (A) (A) (A)
                 (A) (A) (A) (A) (A) (A) (A) (A) (A) (A) (A) (A)
                 (A) (A) (A) (A) (A) (A) (A) (A) (A) (A) (A) (A)
                 (A) (A) (A)
 Beta  Orbitals:
       Occupied  (A) (A) (A) (A) (A) (A) (A) (A) (A) (A) (A) (A)
                 (A) (A) (A) (A) (A) (A) (A) (A) (A) (A) (A) (A)
                 (A) (A) (A) (A) (A) (A) (A) (A) (A) (A) (A) (A)
                 (A) (A)
       Virtual   (A) (A) (A) (A) (A) (A) (A) (A) (A) (A) (A) (A)
                 (A) (A) (A) (A) (A) (A) (A) (A) (A) (A) (A) (A)
                 (A) (A) (A) (A) (A) (A) (A) (A) (A) (A) (A) (A)
                 (A) (A) (A) (A) (A) (A) (A) (A) (A) (A) (A) (A)
                 (A) (A) (A) (A) (A) (A) (A) (A) (A) (A) (A) (A)
                 (A) (A) (A) (A) (A) (A) (A) (A) (A) (A) (A) (A)
                 (A) (A) (A) (A) (A) (A) (A) (A) (A) (A) (A) (A)
                 (A) (A) (A) (A) (A) (A) (A) (A) (A) (A) (A) (A)
                 (A) (A) (A) (A) (A) (A) (A) (A) (A) (A) (A) (A)
                 (A) (A) (A) (A) (A) (A) (A) (A) (A) (A) (A) (A)
                 (A) (A) (A) (A) (A) (A) (A) (A) (A) (A) (A) (A)
                 (A) (A) (A) (A) (A) (A) (A) (A) (A) (A) (A) (A)
                 (A) (A) (A) (A) (A) (A) (A) (A) (A) (A) (A) (A)
                 (A) (A) (A) (A) (A) (A) (A) (A) (A) (A) (A) (A)
                 (A) (A) (A) (A)
 The electronic state is 2-A.
 Alpha  occ. eigenvalues --  -38.44872 -38.44473 -38.44305 -38.44028 -38.43925
 Alpha  occ. eigenvalues --  -38.43729 -38.43367  -2.20706  -2.20280  -2.20176
 Alpha  occ. eigenvalues --   -2.19883  -2.19752  -2.19552  -2.19191  -1.14388
 Alpha  occ. eigenvalues --   -1.14371  -1.14296  -1.13985  -1.13921  -1.13919
 Alpha  occ. eigenvalues --   -1.13875  -1.13845  -1.13800  -1.13563  -1.13554
 Alpha  occ. eigenvalues --   -1.13501  -1.13407  -1.13405  -1.13404  -1.13226
 Alpha  occ. eigenvalues --   -1.13201  -1.13164  -1.12860  -1.12854  -1.12812
 Alpha  occ. eigenvalues --   -0.16755  -0.14184  -0.12057  -0.11508
 Alpha virt. eigenvalues --   -0.06690  -0.05004  -0.03936  -0.03878  -0.03178
 Alpha virt. eigenvalues --   -0.02500  -0.02425  -0.01331  -0.01004  -0.00751
 Alpha virt. eigenvalues --   -0.00503  -0.00112   0.00164   0.00388   0.00694
 Alpha virt. eigenvalues --    0.00862   0.00999   0.01005   0.01116   0.01188
 Alpha virt. eigenvalues --    0.01268   0.01464   0.01613   0.01723   0.01788
 Alpha virt. eigenvalues --    0.01928   0.01999   0.02248   0.02353   0.02399
 Alpha virt. eigenvalues --    0.02459   0.02607   0.02764   0.02845   0.02892
 Alpha virt. eigenvalues --    0.03020   0.03136   0.03256   0.03525   0.03681
 Alpha virt. eigenvalues --    0.03754   0.03884   0.04029   0.04195   0.04233
 Alpha virt. eigenvalues --    0.04577   0.04876   0.05115   0.05348   0.05964
 Alpha virt. eigenvalues --    0.06120   0.06430   0.06694   0.06875   0.07206
 Alpha virt. eigenvalues --    0.07553   0.07856   0.07989   0.08278   0.08506
 Alpha virt. eigenvalues --    0.08877   0.09024   0.09369   0.09644   0.09800
 Alpha virt. eigenvalues --    0.09977   0.10386   0.11100   0.11210   0.11695
 Alpha virt. eigenvalues --    0.11881   0.12108   0.13009   0.13830   0.14024
 Alpha virt. eigenvalues --    0.15065   0.15181   0.16128   0.16348   0.17698
 Alpha virt. eigenvalues --    0.27593   0.28163   0.28484   0.29002   0.29215
 Alpha virt. eigenvalues --    0.29954   0.30073   0.31065   0.32069   0.32896
 Alpha virt. eigenvalues --    0.33226   0.34201   0.34617   0.34926   0.34989
 Alpha virt. eigenvalues --    0.36647   0.37501   0.39115   0.39362   0.40109
 Alpha virt. eigenvalues --    0.40276   0.41470   0.42400   0.42461   0.42791
 Alpha virt. eigenvalues --    0.43364   0.43577   0.44154   0.44331   0.44420
 Alpha virt. eigenvalues --    0.44868   0.45137   0.45209   0.45759   0.46012
 Alpha virt. eigenvalues --    0.46195   0.46904   0.47105   0.47282   0.47876
 Alpha virt. eigenvalues --    0.48458   0.49057   0.49654   0.50336   0.51204
 Alpha virt. eigenvalues --    0.51720   0.52793   0.53480   0.53675   0.55664
 Alpha virt. eigenvalues --    0.57828   0.59081   0.60334   0.65520   0.69740
 Alpha virt. eigenvalues --    0.72976   2.01451   2.08232   2.11874   2.12158
 Alpha virt. eigenvalues --    2.16093   2.18426   2.19432   4.41691   4.42849
 Alpha virt. eigenvalues --    4.43147   4.43748   4.44144   4.44625   4.45079
 Alpha virt. eigenvalues --    4.45520   4.45888   4.46063   4.46379   4.46602
 Alpha virt. eigenvalues --    4.47022   4.47808   4.47997   4.48566   4.50692
 Alpha virt. eigenvalues --    4.52767   4.58385   4.62701   4.66388  96.20417
 Alpha virt. eigenvalues --   96.28886  96.33367  96.33729  96.38882  96.41175
 Alpha virt. eigenvalues --   96.42165
  Beta  occ. eigenvalues --  -38.44799 -38.44451 -38.44267 -38.43995 -38.43929
  Beta  occ. eigenvalues --  -38.43698 -38.43338  -2.20574  -2.20237  -2.20109
  Beta  occ. eigenvalues --   -2.19826  -2.19763  -2.19497  -2.19136  -1.14291
  Beta  occ. eigenvalues --   -1.14284  -1.14193  -1.13959  -1.13892  -1.13889
  Beta  occ. eigenvalues --   -1.13829  -1.13792  -1.13747  -1.13523  -1.13520
  Beta  occ. eigenvalues --   -1.13430  -1.13415  -1.13414  -1.13396  -1.13176
  Beta  occ. eigenvalues --   -1.13164  -1.13134  -1.12819  -1.12816  -1.12784
  Beta  occ. eigenvalues --   -0.16039  -0.13906  -0.11611
  Beta virt. eigenvalues --   -0.07916  -0.06284  -0.04794  -0.03702  -0.03491
  Beta virt. eigenvalues --   -0.02627  -0.02369  -0.02105  -0.01133  -0.00763
  Beta virt. eigenvalues --   -0.00504  -0.00204   0.00081   0.00289   0.00448
  Beta virt. eigenvalues --    0.00726   0.00924   0.01014   0.01057   0.01209
  Beta virt. eigenvalues --    0.01272   0.01306   0.01503   0.01667   0.01776
  Beta virt. eigenvalues --    0.01824   0.01992   0.02192   0.02298   0.02407
  Beta virt. eigenvalues --    0.02462   0.02521   0.02655   0.02805   0.02867
  Beta virt. eigenvalues --    0.02935   0.03129   0.03181   0.03298   0.03601
  Beta virt. eigenvalues --    0.03754   0.03798   0.04011   0.04066   0.04218
  Beta virt. eigenvalues --    0.04252   0.04729   0.04938   0.05238   0.05379
  Beta virt. eigenvalues --    0.06099   0.06187   0.06491   0.06777   0.06908
  Beta virt. eigenvalues --    0.07263   0.07581   0.07999   0.08150   0.08352
  Beta virt. eigenvalues --    0.08643   0.09082   0.09114   0.09557   0.09860
  Beta virt. eigenvalues --    0.09942   0.10123   0.10567   0.11329   0.11422
  Beta virt. eigenvalues --    0.11904   0.12220   0.12327   0.13116   0.13978
  Beta virt. eigenvalues --    0.14066   0.15160   0.15362   0.16262   0.16494
  Beta virt. eigenvalues --    0.17884   0.27914   0.28558   0.28813   0.29287
  Beta virt. eigenvalues --    0.29620   0.30315   0.30459   0.31251   0.32417
  Beta virt. eigenvalues --    0.33137   0.33566   0.34506   0.34864   0.35203
  Beta virt. eigenvalues --    0.35240   0.36860   0.37774   0.39491   0.39551
  Beta virt. eigenvalues --    0.40412   0.40462   0.41698   0.42508   0.42612
  Beta virt. eigenvalues --    0.42860   0.43433   0.43684   0.44305   0.44452
  Beta virt. eigenvalues --    0.44474   0.44997   0.45218   0.45382   0.45921
  Beta virt. eigenvalues --    0.46060   0.46307   0.47010   0.47246   0.47475
  Beta virt. eigenvalues --    0.48014   0.48610   0.49201   0.49768   0.50430
  Beta virt. eigenvalues --    0.51462   0.51870   0.53000   0.53632   0.53864
  Beta virt. eigenvalues --    0.55868   0.58001   0.59173   0.60603   0.65799
  Beta virt. eigenvalues --    0.69950   0.73009   2.01608   2.08326   2.11993
  Beta virt. eigenvalues --    2.12325   2.16184   2.18557   2.19549   4.41708
  Beta virt. eigenvalues --    4.42980   4.43219   4.43770   4.44225   4.44673
  Beta virt. eigenvalues --    4.45133   4.45559   4.45932   4.46112   4.46385
  Beta virt. eigenvalues --    4.46650   4.47048   4.47850   4.48039   4.48620
  Beta virt. eigenvalues --    4.50724   4.52802   4.58496   4.62776   4.66405
  Beta virt. eigenvalues --   96.20468  96.28917  96.33420  96.33777  96.38914
  Beta virt. eigenvalues --   96.41223  96.42204
          Condensed to atoms (all electrons):
               1          2          3          4          5          6
     1  Na  11.822227  -0.254184   0.052034   0.341714   0.138924  -0.406747
     2  Na  -0.254184  10.723744   0.067005  -0.016793  -0.069425   0.024928
     3  Na   0.052034   0.067005  10.526283   0.199115  -0.012440  -0.001929
     4  Na   0.341714  -0.016793   0.199115  11.145519  -0.528716  -0.196970
     5  Na   0.138924  -0.069425  -0.012440  -0.528716  11.866158  -0.139282
     6  Na  -0.406747   0.024928  -0.001929  -0.196970  -0.139282  11.220686
     7  Na  -0.086141   0.011756   0.010217  -0.154726   0.087095   0.430221
               7
     1  Na  -0.086141
     2  Na   0.011756
     3  Na   0.010217
     4  Na  -0.154726
     5  Na   0.087095
     6  Na   0.430221
     7  Na  10.704068
          Atomic-Atomic Spin Densities.
               1          2          3          4          5          6
     1  Na   0.763258  -0.126981  -0.141511  -0.016690   0.109447  -0.107788
     2  Na  -0.126981   0.079257   0.028781   0.001691  -0.001431   0.007515
     3  Na  -0.141511   0.028781   0.193249   0.179639  -0.094653   0.026798
     4  Na  -0.016690   0.001691   0.179639   0.465759  -0.302424  -0.020154
     5  Na   0.109447  -0.001431  -0.094653  -0.302424   0.400266  -0.063829
     6  Na  -0.107788   0.007515   0.026798  -0.020154  -0.063829   0.070056
     7  Na  -0.025721   0.006404  -0.001211  -0.015989  -0.020731   0.053084
               7
     1  Na  -0.025721
     2  Na   0.006404
     3  Na  -0.001211
     4  Na  -0.015989
     5  Na  -0.020731
     6  Na   0.053084
     7  Na   0.079663
 Mulliken charges and spin densities:
               1          2
     1  Na  -0.607827   0.454014
     2  Na   0.512968  -0.004764
     3  Na   0.159715   0.191092
     4  Na   0.210856   0.291832
     5  Na  -0.342314   0.026645
     6  Na   0.069093  -0.034319
     7  Na  -0.002491   0.075500
 Sum of Mulliken charges =  -0.00000   1.00000
 Mulliken charges and spin densities with hydrogens summed into heavy atoms:
               1          2
     1  Na  -0.607827   0.454014
     2  Na   0.512968  -0.004764
     3  Na   0.159715   0.191092
     4  Na   0.210856   0.291832
     5  Na  -0.342314   0.026645
     6  Na   0.069093  -0.034319
     7  Na  -0.002491   0.075500
 Electronic spatial extent (au):  <R**2>=           5086.5967
 Charge=             -0.0000 electrons
 Dipole moment (field-independent basis, Debye):
    X=              0.5211    Y=              0.6012    Z=              0.7862  Tot=              1.1185
 Quadrupole moment (field-independent basis, Debye-Ang):
   XX=            -61.8259   YY=            -67.0009   ZZ=            -66.7376
   XY=             -0.8580   XZ=             -0.5808   YZ=              3.1250
 Traceless Quadrupole moment (field-independent basis, Debye-Ang):
   XX=              3.3623   YY=             -1.8128   ZZ=             -1.5495
   XY=             -0.8580   XZ=             -0.5808   YZ=              3.1250
 Octapole moment (field-independent basis, Debye-Ang**2):
  XXX=             31.8367  YYY=              6.3076  ZZZ=             10.6000  XYY=             12.4388
  XXY=             25.3219  XXZ=             56.9019  XZZ=            -19.0597  YZZ=             -1.0878
  YYZ=              3.1823  XYZ=            -22.0088
 Hexadecapole moment (field-independent basis, Debye-Ang**3):
 XXXX=          -6300.8175 YYYY=          -1164.4169 ZZZZ=           -683.6833 XXXY=           -119.0355
 XXXZ=           -158.3210 YYYX=            -14.4081 YYYZ=             -0.8126 ZZZX=            -43.0450
 ZZZY=             16.5852 XXYY=          -1205.1938 XXZZ=          -1026.3101 YYZZ=           -296.3649
 XXYZ=             68.9663 YYXZ=             37.5714 ZZXY=            -29.7314
 N-N= 2.705138583247D+02 E-N=-3.270219395773D+03  KE= 1.132905916940D+03
                          Isotropic Fermi Contact Couplings
        Atom                 a.u.       MegaHertz       Gauss      10(-4) cm-1
     1  Na(23)             0.13095     154.91720      55.27831      51.67482
     2  Na(23)             0.11916     140.97285      50.30262      47.02348
     3  Na(23)             0.28035     331.66141     118.34504     110.63034
     4  Na(23)             0.08729     103.26126      36.84618      34.44425
     5  Na(23)             0.13347     157.89929      56.34239      52.66953
     6  Na(23)            -0.04506     -53.30405     -19.02021     -17.78032
     7  Na(23)             0.10047     118.86252      42.41310      39.64827
 --------------------------------------------------------
       Center         ----  Spin Dipole Couplings  ----
                      3XX-RR        3YY-RR        3ZZ-RR
 --------------------------------------------------------
     1   Atom       -0.003961      0.013839     -0.009878
     2   Atom        0.006629     -0.007969      0.001340
     3   Atom        0.008813      0.002416     -0.011229
     4   Atom        0.028891     -0.013219     -0.015672
     5   Atom       -0.005963      0.003595      0.002367
     6   Atom        0.009147     -0.008502     -0.000645
     7   Atom        0.000072      0.000586     -0.000658
 --------------------------------------------------------
                        XY            XZ            YZ
 --------------------------------------------------------
     1   Atom       -0.002286      0.003637     -0.006674
     2   Atom        0.007543      0.008435      0.006477
     3   Atom       -0.021762      0.006151     -0.006404
     4   Atom        0.024838      0.018581      0.008446
     5   Atom       -0.011094     -0.001124     -0.001244
     6   Atom       -0.004743     -0.012540      0.003656
     7   Atom        0.000932      0.001667     -0.000779
 --------------------------------------------------------


 ---------------------------------------------------------------------------------
              Anisotropic Spin Dipole Couplings in Principal Axis System
 ---------------------------------------------------------------------------------

       Atom             a.u.   MegaHertz   Gauss  10(-4) cm-1        Axes

              Baa    -0.0127    -1.788    -0.638    -0.596 -0.3317  0.2034  0.9212
     1 Na(23) Bbb    -0.0034    -0.484    -0.173    -0.161  0.9303  0.2328  0.2835
              Bcc     0.0161     2.272     0.811     0.758 -0.1568  0.9510 -0.2664
 
              Baa    -0.0120    -1.695    -0.605    -0.566 -0.2397  0.9243 -0.2971
     2 Na(23) Bbb    -0.0048    -0.677    -0.241    -0.226 -0.6280  0.0858  0.7735
              Bcc     0.0168     2.372     0.846     0.791  0.7404  0.3719  0.5599
 
              Baa    -0.0166    -2.340    -0.835    -0.781  0.6022  0.7660  0.2250
     3 Na(23) Bbb    -0.0130    -1.830    -0.653    -0.610 -0.3068 -0.0381  0.9510
              Bcc     0.0295     4.170     1.488     1.391  0.7371 -0.6417  0.2121
 
              Baa    -0.0247    -3.493    -1.246    -1.165 -0.4352  0.8986  0.0549
     4 Na(23) Bbb    -0.0223    -3.150    -1.124    -1.051 -0.2562 -0.1821  0.9493
              Bcc     0.0470     6.643     2.370     2.216  0.8631  0.3991  0.3095
 
              Baa    -0.0134    -1.897    -0.677    -0.633  0.8300  0.5483  0.1022
     5 Na(23) Bbb     0.0025     0.355     0.127     0.118 -0.1128 -0.0144  0.9935
              Bcc     0.0109     1.542     0.550     0.514 -0.5462  0.8361 -0.0499
 
              Baa    -0.0100    -1.406    -0.502    -0.469 -0.0736  0.8905 -0.4490
     6 Na(23) Bbb    -0.0091    -1.279    -0.456    -0.427  0.5881  0.4024  0.7016
              Bcc     0.0190     2.685     0.958     0.896  0.8054 -0.2124 -0.5533
 
              Baa    -0.0025    -0.348    -0.124    -0.116 -0.6009  0.3649  0.7111
     7 Na(23) Bbb     0.0009     0.134     0.048     0.045 -0.1199  0.8385 -0.5316
              Bcc     0.0015     0.215     0.077     0.072  0.7902  0.4048  0.4601
 

 ---------------------------------------------------------------------------------

 No NMR shielding tensors so no spin-rotation constants.
 Leave Link  601 at Wed Nov 29 03:15:14 2023, MaxMem=  1879048192 cpu:               2.2 elap:               0.2
 (Enter /home/sekinelabo/g16/l701.exe)
 ... and contract with generalized density number  0.
 Compute integral first derivatives.
 Leave Link  701 at Wed Nov 29 03:15:14 2023, MaxMem=  1879048192 cpu:               1.5 elap:               0.1
 (Enter /home/sekinelabo/g16/l702.exe)
 L702 exits ... SP integral derivatives will be done elsewhere.
 Leave Link  702 at Wed Nov 29 03:15:14 2023, MaxMem=  1879048192 cpu:               0.4 elap:               0.0
 (Enter /home/sekinelabo/g16/l703.exe)
 Integral derivatives from FoFJK, PRISM(SPDF).
 Compute integral first derivatives, UseDBF=F ICtDFT=           0.
 Calling FoFJK, ICntrl=      2127 FMM=F ISym2X=0 I1Cent= 0 IOpClX= 1 NMat=1 NMatS=1 NMatT=0.
 FoFJK:  IHMeth= 1 ICntrl=    2127 DoSepK=F KAlg= 0 I1Cent=           0 FoldK=F
 IRaf=         0 NMat=       1 IRICut=       1 DoRegI=T DoRafI=F ISym2E= 0 IDoP0=0 IntGTp=1.
 FoFCou: FMM=F IPFlag=           0 FMFlag=      100000 FMFlg1=         800
         NFxFlg=           0 DoJE=F BraDBF=F KetDBF=F FulRan=T
         wScrn=  0.000000 ICntrl=      2127 IOpCl=  1 I1Cent=           0 NGrid=           0
         NMat0=    1 NMatS0=      1 NMatT0=    0 NMatD0=    1 NMtDS0=    0 NMtDT0=    0
 Symmetry not used in FoFCou.
 Leave Link  703 at Wed Nov 29 03:15:16 2023, MaxMem=  1879048192 cpu:              27.3 elap:               1.8
 (Enter /home/sekinelabo/g16/l716.exe)
 Dipole        = 2.05001903D-01 2.36512653D-01 3.09317077D-01
 ***** Axes restored to original set *****
 -------------------------------------------------------------------
 Center     Atomic                   Forces (Hartrees/Bohr)
 Number     Number              X              Y              Z
 -------------------------------------------------------------------
      1       11           0.000828054    0.002346252    0.003108890
      2       11           0.002430957   -0.001469379   -0.001316104
      3       11          -0.002411851   -0.002425843   -0.002797130
      4       11          -0.002103963    0.002116792    0.001792987
      5       11           0.001780199   -0.000636087   -0.001305414
      6       11          -0.001072909    0.001133113   -0.001612224
      7       11           0.000549512   -0.001064848    0.002128995
 -------------------------------------------------------------------
 Cartesian Forces:  Max     0.003108890 RMS     0.001871912
 Z-matrix is all fixed cartesians, so copy forces.
 Force constants in Cartesian coordinates: 
                1             2             3             4             5 
      1  0.752144D-01
      2 -0.109127D-01  0.727532D-01
      3  0.841553D-02  0.825276D-02  0.699462D-01
      4 -0.208264D-01  0.151588D-01  0.474474D-02  0.271652D-01
      5 -0.640186D-03 -0.318951D-01 -0.863980D-02 -0.115569D-02  0.333304D-01
      6 -0.606756D-02 -0.701917D-03 -0.223473D-01  0.340683D-02  0.158143D-01
      7 -0.209480D-01  0.303054D-02  0.370420D-02 -0.137978D-01  0.418500D-02
      8  0.479043D-02 -0.950615D-02 -0.252580D-02 -0.113573D-01 -0.567167D-02
      9 -0.499186D-02 -0.781504D-03 -0.110618D-01 -0.733563D-02 -0.380736D-02
     10 -0.201130D-01 -0.148058D-02 -0.824586D-02  0.647136D-02 -0.245494D-02
     11  0.376595D-02 -0.132832D-01 -0.124102D-02 -0.316419D-02  0.821261D-03
     12 -0.545788D-02 -0.527382D-02 -0.155334D-01 -0.736915D-03 -0.123697D-02
     13 -0.154747D-01 -0.728722D-02 -0.821899D-02  0.116182D-02  0.889690D-04
     14  0.263007D-03 -0.217704D-01  0.579935D-02  0.397684D-03  0.339913D-02
     15  0.678923D-02 -0.233598D-02 -0.208041D-01  0.409001D-04 -0.211428D-02
     16  0.218994D-02  0.146191D-02 -0.370542D-03 -0.174209D-03 -0.231570D-04
     17  0.280498D-02  0.365216D-02 -0.159630D-02  0.120735D-03  0.160490D-04
     18  0.133766D-02  0.823053D-03 -0.182271D-03 -0.119918D-03 -0.159403D-04
     19 -0.422260D-04  0.292648D-04 -0.290667D-04  0.000000D+00  0.000000D+00
     20 -0.714764D-04  0.495368D-04 -0.492015D-04  0.000000D+00  0.000000D+00
     21 -0.251093D-04  0.174020D-04 -0.172842D-04  0.000000D+00  0.000000D+00
                6             7             8             9            10 
      6  0.246527D-01
      7  0.445566D-02  0.591748D-01
      8 -0.475259D-02 -0.435724D-02  0.272153D-01
      9 -0.537200D-02 -0.372429D-02  0.179998D-01  0.340396D-01
     10 -0.205996D-02 -0.267871D-01  0.815211D-02  0.112137D-01  0.648178D-01
     11 -0.520703D-02 -0.649632D-02 -0.144772D-01 -0.128354D-01 -0.658022D-03
     12 -0.242848D-03 -0.882771D-02 -0.109111D-01 -0.213571D-01  0.864908D-02
     13  0.294250D-03  0.236783D-02  0.280448D-02  0.482342D-02 -0.251287D-01
     14 -0.517306D-02  0.362276D-02  0.232288D-02 -0.494120D-03 -0.339601D-02
     15  0.332956D-02  0.439919D-02  0.215783D-03  0.373841D-02 -0.100523D-01
     16 -0.292260D-04 -0.976394D-05 -0.324607D-04  0.146439D-04  0.753666D-03
     17  0.202551D-04  0.152638D-04  0.116862D-03 -0.813704D-04 -0.138745D-03
     18 -0.201180D-04 -0.705488D-05 -0.260516D-04  0.128781D-04  0.503725D-03
     19  0.000000D+00  0.000000D+00  0.000000D+00  0.000000D+00 -0.140681D-04
     20  0.000000D+00  0.000000D+00  0.000000D+00  0.000000D+00 -0.238132D-04
     21  0.000000D+00  0.000000D+00  0.000000D+00  0.000000D+00 -0.836544D-05
               11            12            13            14            15 
     11  0.347194D-01
     12  0.224560D-01  0.531473D-01
     13  0.756888D-02  0.184759D-02  0.529454D-01
     14 -0.871111D-02 -0.321719D-02 -0.243757D-02  0.371106D-01
     15 -0.246403D-02 -0.190775D-01 -0.404973D-03  0.229531D-02  0.518338D-01
     16 -0.967899D-03  0.453324D-02 -0.197623D-01  0.462735D-02 -0.346511D-02
     17  0.101282D-02 -0.180436D-02  0.564243D-03 -0.137247D-01  0.531781D-02
     18 -0.679698D-03  0.306796D-02  0.360741D-02 -0.937433D-03 -0.176639D-01
     19 -0.483874D-04 -0.740010D-05  0.389061D-02 -0.307722D-02  0.269310D-02
     20 -0.819059D-04 -0.125262D-04 -0.130178D-02  0.137355D-02 -0.914611D-03
     21 -0.287731D-04 -0.440040D-05 -0.194871D-02  0.172715D-02 -0.135620D-02
               16            17            18            19            20 
     16  0.291007D-01
     17 -0.132795D-01  0.192520D-01
     18  0.318650D-02 -0.136681D-01  0.422800D-01
     19 -0.120981D-01  0.991307D-02 -0.850832D-02  0.826377D-02
     20  0.821380D-02 -0.103252D-01  0.145042D-01 -0.681673D-02  0.898404D-02
     21 -0.386951D-02  0.118121D-01 -0.274946D-01  0.585169D-02 -0.135278D-01
               21 
     21  0.288725D-01
 Leave Link  716 at Wed Nov 29 03:15:16 2023, MaxMem=  1879048192 cpu:               0.4 elap:               0.0
 (Enter /home/sekinelabo/g16/l103.exe)

 GradGradGradGradGradGradGradGradGradGradGradGradGradGradGradGradGradGrad
 Berny optimization.
 Search for a local minimum.
 Step number   1 out of a maximum of    2
 All quantities printed in internal units (Hartrees-Bohrs-Radians)
 Second derivative matrix not updated -- first step.
 ITU=  0
     Eigenvalues ---    0.00161   0.00563   0.01042   0.01518   0.02582
     Eigenvalues ---    0.03631   0.04452   0.04965   0.06832   0.07452
     Eigenvalues ---    0.08799   0.09817   0.10578   0.11028   0.11420
 Angle between quadratic step and forces=  43.13 degrees.
 Linear search not attempted -- first point.
 B after Tr=     0.000000    0.000000    0.000000
         Rot=    1.000000   -0.000000   -0.000000   -0.000000 Ang=   0.00 deg.
 Variable       Old X    -DE/DX   Delta X   Delta X   Delta X     New X
                                 (Linear)    (Quad)   (Total)
    X1       28.62179   0.00083   0.00000   0.01268   0.01268  28.63448
    Y1       28.34740   0.00235   0.00000   0.01367   0.01367  28.36107
    Z1       24.06245   0.00311   0.00000   0.01229   0.01229  24.07474
    X2       29.79059   0.00243   0.00000   0.05873   0.05873  29.84932
    Y2       23.49081  -0.00147   0.00000  -0.00897  -0.00897  23.48184
    Z2       20.94365  -0.00132   0.00000  -0.05229  -0.05229  20.89136
    X3       35.53460  -0.00241   0.00000  -0.03499  -0.03499  35.49961
    Y3       26.86775  -0.00243   0.00000  -0.03217  -0.03217  26.83558
    Z3       24.05905  -0.00280   0.00000  -0.04672  -0.04672  24.01233
    X4       33.34989  -0.00210   0.00000  -0.02750  -0.02750  33.32239
    Y4       30.41873   0.00212   0.00000   0.01162   0.01162  30.43035
    Z4       28.50331   0.00179   0.00000   0.00437   0.00437  28.50768
    X5       27.16047   0.00178   0.00000   0.03094   0.03094  27.19141
    Y5       32.00894  -0.00064   0.00000  -0.01210  -0.01210  31.99684
    Z5       29.87185  -0.00131   0.00000  -0.01086  -0.01086  29.86098
    X6       23.50933  -0.00107   0.00000  -0.01668  -0.01668  23.49265
    Y6       32.22588   0.00113   0.00000   0.00749   0.00749  32.23336
    Z6       35.39438  -0.00161   0.00000   0.00412   0.00412  35.39850
    X7       25.03793   0.00055   0.00000  -0.02318  -0.02318  25.01474
    Y7       29.64508  -0.00106   0.00000   0.02047   0.02047  29.66555
    Z7       40.17029   0.00213   0.00000   0.08909   0.08909  40.25937
         Item               Value     Threshold  Converged?
 Maximum Force            0.003109     0.000450     NO 
 RMS     Force            0.001872     0.000300     NO 
 Maximum Displacement     0.089087     0.001800     NO 
 RMS     Displacement     0.032791     0.001200     NO 
 Predicted change in Energy=-4.703858D-04
 GradGradGradGradGradGradGradGradGradGradGradGradGradGradGradGradGradGrad

 Leave Link  103 at Wed Nov 29 03:15:16 2023, MaxMem=  1879048192 cpu:               0.2 elap:               0.0
 (Enter /home/sekinelabo/g16/l9999.exe)
 1\1\GINC-SEKINELABO-XA7R-R37\Force\UB3LYP\6-311+G(d)\Na7(2)\SEKINELABO
 \29-Nov-2023\0\\#P B3LYP/6-311+g(d) force\\DPGEN\\0,2\Na,15.146,15.000
 8,12.7333\Na,15.7645,12.4308,11.0829\Na,18.8041,14.2178,12.7315\Na,17.
 648,16.0969,15.0833\Na,14.3727,16.9384,15.8075\Na,12.4406,17.0532,18.7
 299\Na,13.2495,15.6875,21.2572\\Version=ES64L-G16RevB.01\State=2-A\HF=
 -1136.1162302\S2=0.785612\S2-1=0.\S2A=0.750771\RMSD=9.011e-09\RMSF=1.8
 72e-03\Dipole=0.337922,-0.2805115,0.0276236\Quadrupole=-0.6516108,-2.1
 307206,2.7823314,-2.0577167,-0.1786937,0.261714\PG=C01 [X(Na7)]\\@


 A SLIP OF THE FOOT YOU MAY SOON RECOVER, BUT A SLIP OF THE TONGUE
 YOU MAY NEVER GET OVER. -- BEN FRANKLIN
 Job cpu time:       0 days  0 hours  3 minutes 25.1 seconds.
 Elapsed time:       0 days  0 hours  0 minutes 18.0 seconds.
 File lengths (MBytes):  RWF=     32 Int=      0 D2E=      0 Chk=      4 Scr=      1
 Normal termination of Gaussian 16 at Wed Nov 29 03:15:16 2023.
