ITEM: TIMESTEP
10150
ITEM: NUMBER OF ATOMS
7
ITEM: BOX BOUNDS xy xz yz ff ff ff
0.0000000000000000e+00 3.0693000068800000e+01 0.0000000000000000e+00
0.0000000000000000e+00 3.0693000068800000e+01 0.0000000000000000e+00
0.0000000000000000e+00 3.0693000068800000e+01 0.0000000000000000e+00
ITEM: ATOMS id type x y z fx fy fz
1 1 15.2768 11.8449 13.1389 -0.0149913 -0.0213583 -0.0691652
6 1 16.293 15.0197 14.0762 -0.0796973 0.171554 -0.246877
7 1 13.3718 17.1384 15.613 0.168154 0.00458854 -0.164676
5 1 15.4768 18.4893 12.8382 -0.0476763 -0.218715 0.144271
4 1 16.9977 11.9923 15.8857 0.0104287 0.0540053 0.0594304
2 1 13.9621 17.8161 18.6701 0.0436434 -0.0470402 0.0509759
3 1 16.0473 15.1247 17.2035 -0.079861 0.0569655 0.226041
