ITEM: TIMESTEP
1170
ITEM: NUMBER OF ATOMS
7
ITEM: BOX BOUNDS xy xz yz ff ff ff
0.0000000000000000e+00 3.0693000068800000e+01 0.0000000000000000e+00
0.0000000000000000e+00 3.0693000068800000e+01 0.0000000000000000e+00
0.0000000000000000e+00 3.0693000068800000e+01 0.0000000000000000e+00
ITEM: ATOMS id type x y z fx fy fz
5 1 12.9198 13.244 14.5642 0.0227424 -0.0275299 -0.0765611
2 1 16.5371 13.5258 14.8867 0.144121 0.0339409 -0.0579645
1 1 15.3152 16.2261 13.3309 0.0111334 0.0800583 -0.0383058
3 1 18.6076 16.8569 14.8168 -0.195997 -0.0474976 -0.0033753
6 1 14.7977 12.9184 17.588 -0.0247342 -0.224914 0.169991
7 1 14.1092 15.7126 16.3968 -0.0295528 0.312685 0.0638253
4 1 15.139 18.9418 15.8421 0.072287 -0.126743 -0.0576094
