ITEM: TIMESTEP
1420
ITEM: NUMBER OF ATOMS
7
ITEM: BOX BOUNDS xy xz yz ff ff ff
0.0000000000000000e+00 3.0693000068800000e+01 0.0000000000000000e+00
0.0000000000000000e+00 3.0693000068800000e+01 0.0000000000000000e+00
0.0000000000000000e+00 3.0693000068800000e+01 0.0000000000000000e+00
ITEM: ATOMS id type x y z fx fy fz
5 1 12.3343 13.3876 14.9322 0.207521 0.0780669 0.0425928
2 1 16.8276 13.6291 14.6555 0.0798106 -0.114916 0.168798
1 1 15.0558 15.6532 13.3698 -0.16265 0.201042 -0.00286747
3 1 18.1834 17.2962 14.9236 -0.12903 -0.115565 -0.000777779
6 1 14.4353 12.4127 17.5542 0.0203221 0.103491 -0.1154
7 1 15.3468 15.89 17.0935 -0.0287132 -0.015787 -0.107064
4 1 15.2423 19.1567 14.8968 0.0127403 -0.136332 0.0147185
