ITEM: TIMESTEP
14300
ITEM: NUMBER OF ATOMS
7
ITEM: BOX BOUNDS xy xz yz ff ff ff
0.0000000000000000e+00 3.0693000068800000e+01 0.0000000000000000e+00
0.0000000000000000e+00 3.0693000068800000e+01 0.0000000000000000e+00
0.0000000000000000e+00 3.0693000068800000e+01 0.0000000000000000e+00
ITEM: ATOMS id type x y z fx fy fz
6 1 13.7954 12.5785 14.8793 -0.00563082 -0.045199 0.0445129
7 1 16.6302 14.4935 13.9917 -0.0736178 0.103883 0.190011
1 1 13.4484 15.0742 12.783 -0.017032 0.0821421 -0.0119606
4 1 14.4104 17.4941 15.4934 0.0630646 -0.086545 -0.071214
5 1 14.0964 14.7581 17.5406 -0.0489512 -0.0790846 -0.0793259
3 1 17.8219 17.7627 14.9466 -0.00243652 -0.0659795 0.0457428
2 1 17.2229 15.2646 17.7908 0.0846038 0.0907832 -0.117766
