ITEM: TIMESTEP
23680
ITEM: NUMBER OF ATOMS
7
ITEM: BOX BOUNDS xy xz yz ff ff ff
0.0000000000000000e+00 3.0693000068800000e+01 0.0000000000000000e+00
0.0000000000000000e+00 3.0693000068800000e+01 0.0000000000000000e+00
0.0000000000000000e+00 3.0693000068800000e+01 0.0000000000000000e+00
ITEM: ATOMS id type x y z fx fy fz
7 1 11.3237 13.5602 14.9399 0.0468957 -0.0103218 0.0257487
6 1 14.8046 13.9391 15.6607 -0.14154 -0.0103565 -0.02346
5 1 12.8079 16.1076 13.5978 0.146264 0.00415508 0.000844959
2 1 17.8409 12.8896 16.4052 0.0355595 0.035865 -0.00633786
1 1 17.1406 16.0954 17.4377 -0.00545763 -0.00332928 -0.109415
4 1 16.8629 15.8051 13.4528 -0.0891423 0.103077 0.178733
3 1 16.6449 19.0286 15.9315 0.0074206 -0.11909 -0.0661135
