ITEM: TIMESTEP
23690
ITEM: NUMBER OF ATOMS
7
ITEM: BOX BOUNDS xy xz yz ff ff ff
0.0000000000000000e+00 3.0693000068800000e+01 0.0000000000000000e+00
0.0000000000000000e+00 3.0693000068800000e+01 0.0000000000000000e+00
0.0000000000000000e+00 3.0693000068800000e+01 0.0000000000000000e+00
ITEM: ATOMS id type x y z fx fy fz
7 1 11.3583 13.5649 15.0168 -0.0979775 -0.0477445 0.0127142
6 1 14.6064 13.9393 15.5747 0.147427 -0.0784326 0.113607
5 1 12.9466 16.0701 13.6566 0.101951 0.110687 -0.069351
2 1 17.8655 12.9339 16.3962 -0.0350502 -0.000191436 -0.0544322
1 1 17.1672 16.0401 17.3052 -0.0519705 0.0781354 -0.093141
4 1 16.8812 15.7914 13.5672 -0.0684574 0.0992349 0.144689
3 1 16.6004 19.0858 15.9088 0.00407717 -0.161689 -0.0540856
