ITEM: TIMESTEP
24100
ITEM: NUMBER OF ATOMS
7
ITEM: BOX BOUNDS xy xz yz ff ff ff
0.0000000000000000e+00 3.0693000068800000e+01 0.0000000000000000e+00
0.0000000000000000e+00 3.0693000068800000e+01 0.0000000000000000e+00
0.0000000000000000e+00 3.0693000068800000e+01 0.0000000000000000e+00
ITEM: ATOMS id type x y z fx fy fz
7 1 11.653 13.9169 15.3908 -0.186915 0.0932427 0.0245034
5 1 13.7766 16.4883 15.9417 0.14094 0.0515289 -0.0977675
4 1 16.2549 14.7993 13.1193 0.0395083 0.119551 0.132387
3 1 16.0661 19.3506 14.4723 -0.0142817 -0.275332 0.143341
6 1 14.5574 12.8583 15.2813 0.0305881 -0.100822 -0.0206723
2 1 17.6006 13.1408 16.2962 0.117852 0.132418 0.00534972
1 1 17.5169 16.8715 16.9239 -0.127692 -0.020586 -0.187142
