ITEM: TIMESTEP
2420
ITEM: NUMBER OF ATOMS
7
ITEM: BOX BOUNDS xy xz yz ff ff ff
0.0000000000000000e+00 3.0693000068800000e+01 0.0000000000000000e+00
0.0000000000000000e+00 3.0693000068800000e+01 0.0000000000000000e+00
0.0000000000000000e+00 3.0693000068800000e+01 0.0000000000000000e+00
ITEM: ATOMS id type x y z fx fy fz
5 1 13.8043 12.657 14.7187 -0.103627 0.0153951 -0.00196909
2 1 16.8732 12.9256 15.6484 0.0295514 -0.0412818 0.120577
1 1 13.8233 16.0553 13.771 0.106635 0.00983158 0.11297
3 1 17.6928 15.0595 13.4354 0.0355749 -0.052175 -0.234594
6 1 13.5896 15.0167 17.343 0.0592437 0.0352291 -0.0908795
4 1 14.5367 18.4642 16.9945 -0.108292 -0.0416898 0.00577792
7 1 17.1055 17.2473 15.5145 -0.0190867 0.0746908 0.0881184
