ITEM: TIMESTEP
24800
ITEM: NUMBER OF ATOMS
7
ITEM: BOX BOUNDS xy xz yz ff ff ff
0.0000000000000000e+00 3.0693000068800000e+01 0.0000000000000000e+00
0.0000000000000000e+00 3.0693000068800000e+01 0.0000000000000000e+00
0.0000000000000000e+00 3.0693000068800000e+01 0.0000000000000000e+00
ITEM: ATOMS id type x y z fx fy fz
7 1 11.9314 15.1352 18.2925 0.125152 0.00914284 -0.171338
5 1 14.008 16.3586 15.6901 -0.146933 -0.210006 0.230814
4 1 16.8062 14.9444 13.1103 -0.0464516 0.0332516 0.146708
3 1 14.7518 17.9685 13.2092 0.115163 0.0823651 -0.133351
6 1 14.4812 12.8735 14.8715 0.0650354 0.0650332 0.0999377
2 1 18.1444 13.1063 16.05 -0.139076 0.129945 -0.0888454
1 1 17.3026 17.0389 16.2019 0.0271097 -0.109732 -0.0839257
