ITEM: TIMESTEP
28280
ITEM: NUMBER OF ATOMS
7
ITEM: BOX BOUNDS xy xz yz ff ff ff
0.0000000000000000e+00 3.0693000068800000e+01 0.0000000000000000e+00
0.0000000000000000e+00 3.0693000068800000e+01 0.0000000000000000e+00
0.0000000000000000e+00 3.0693000068800000e+01 0.0000000000000000e+00
ITEM: ATOMS id type x y z fx fy fz
3 1 14.7729 13.4992 12.8515 0.00636849 0.0479003 0.0697813
1 1 14.1987 15.7953 15.669 0.0965386 0.0197124 -0.0590087
5 1 15.9297 16.6404 11.8972 -0.0806855 -0.0774189 -0.0431315
2 1 17.8716 17.1463 14.3276 -0.0532501 0.0470969 0.214624
6 1 14.6916 12.2957 16.1462 -0.0138501 -0.0264649 -0.0827235
7 1 13.8878 14.3484 18.6564 0.0527331 0.105559 0.0159945
4 1 16.0731 17.7001 17.8776 -0.00785442 -0.116385 -0.115536
