ITEM: TIMESTEP
3230
ITEM: NUMBER OF ATOMS
7
ITEM: BOX BOUNDS xy xz yz ff ff ff
0.0000000000000000e+00 3.0693000068800000e+01 0.0000000000000000e+00
0.0000000000000000e+00 3.0693000068800000e+01 0.0000000000000000e+00
0.0000000000000000e+00 3.0693000068800000e+01 0.0000000000000000e+00
ITEM: ATOMS id type x y z fx fy fz
5 1 16.6257 11.3531 12.4597 0.0252202 0.121385 0.1251
3 1 15.4388 12.8769 15.5638 -0.00475572 0.0347817 -0.113947
2 1 18.4306 14.2734 13.4515 -0.11038 -0.098282 0.0223129
1 1 13.2406 15.6076 16.6074 0.0399461 -0.00772779 -0.0547163
6 1 11.8226 18.7831 15.9004 0.0856157 -0.0750446 0.0666713
4 1 15.0403 18.4771 17.4426 -0.0983666 0.0573001 -0.0204605
7 1 16.8268 16.0543 16.0001 0.0627207 -0.0324126 -0.0249612
