ITEM: TIMESTEP
4220
ITEM: NUMBER OF ATOMS
7
ITEM: BOX BOUNDS xy xz yz ff ff ff
0.0000000000000000e+00 3.0693000068800000e+01 0.0000000000000000e+00
0.0000000000000000e+00 3.0693000068800000e+01 0.0000000000000000e+00
0.0000000000000000e+00 3.0693000068800000e+01 0.0000000000000000e+00
ITEM: ATOMS id type x y z fx fy fz
5 1 16.0847 14.6201 12.3604 -0.0719573 0.0540488 0.109128
2 1 16.6399 12.6039 15.3008 0.0937801 0.0485527 -0.0043468
4 1 13.7136 17.6385 13.7575 0.139757 -0.124896 0.0219155
3 1 14.0471 14.4693 15.2228 -0.135723 0.0603409 0.0095288
6 1 15.7467 14.2026 18.3849 -0.0120497 0.129521 -0.192033
1 1 14.1505 17.4335 17.1393 0.0389811 -0.0951179 0.000491782
7 1 17.043 16.4576 15.2596 -0.0527892 -0.0724494 0.0553155
