ITEM: TIMESTEP
5030
ITEM: NUMBER OF ATOMS
7
ITEM: BOX BOUNDS xy xz yz ff ff ff
0.0000000000000000e+00 3.0693000068800000e+01 0.0000000000000000e+00
0.0000000000000000e+00 3.0693000068800000e+01 0.0000000000000000e+00
0.0000000000000000e+00 3.0693000068800000e+01 0.0000000000000000e+00
ITEM: ATOMS id type x y z fx fy fz
5 1 14.6263 13.4314 12.2285 -0.0292008 0.120744 -0.168173
2 1 15.6983 13.0146 15.1935 0.100805 -0.153494 0.0502241
4 1 15.079 17.3348 11.7426 -0.0189465 -0.0798335 -0.0630852
7 1 14.3196 16.138 14.5241 0.00243546 0.0360275 0.107725
3 1 14.7632 14.3183 18.062 -0.183634 -0.0761027 0.109636
6 1 17.3258 15.7669 16.7617 0.180905 0.00746762 -0.151182
1 1 15.6134 17.4215 18.9131 -0.0523648 0.145191 0.114856
