ITEM: TIMESTEP
5280
ITEM: NUMBER OF ATOMS
7
ITEM: BOX BOUNDS xy xz yz ff ff ff
0.0000000000000000e+00 2.2996364446899999e+01 0.0000000000000000e+00
0.0000000000000000e+00 2.2996364446899999e+01 0.0000000000000000e+00
0.0000000000000000e+00 2.2996364446899999e+01 0.0000000000000000e+00
ITEM: ATOMS id type x y z fx fy fz
6 1 8.86235 10.7586 9.4081 0.0757009 0.0289255 0.0680477
5 1 11.9402 9.39097 9.03498 -0.0136738 0.0784319 0.071582
3 1 11.4261 13.1752 9.3703 -0.118014 -0.00310353 -0.0361414
7 1 11.6247 9.64366 12.9397 -0.0788437 0.0179872 -0.0199348
4 1 13.5402 11.7096 11.2605 0.0817023 0.0177684 0.0996548
1 1 10.763 13.8466 12.9703 0.074088 -0.141617 -0.0735348
2 1 12.3307 11.9627 15.5034 -0.0209595 0.0016071 -0.109673
