 Set GAUSS_MDEF to "14GB".
 Entering Gaussian System, Link 0=g16
 Initial command:
 /home/sekinelabo/g16/l1.exe "/home/sekinelabo/g16temp/Gau-864651.inp" -scrdir="/home/sekinelabo/g16temp/"
 Entering Link 1 = /home/sekinelabo/g16/l1.exe PID=    864653.
  
 Copyright (c) 1988-2017, Gaussian, Inc.  All Rights Reserved.
  
 This is part of the Gaussian(R) 16 program.  It is based on
 the Gaussian(R) 09 system (copyright 2009, Gaussian, Inc.),
 the Gaussian(R) 03 system (copyright 2003, Gaussian, Inc.),
 the Gaussian(R) 98 system (copyright 1998, Gaussian, Inc.),
 the Gaussian(R) 94 system (copyright 1995, Gaussian, Inc.),
 the Gaussian 92(TM) system (copyright 1992, Gaussian, Inc.),
 the Gaussian 90(TM) system (copyright 1990, Gaussian, Inc.),
 the Gaussian 88(TM) system (copyright 1988, Gaussian, Inc.),
 the Gaussian 86(TM) system (copyright 1986, Carnegie Mellon
 University), and the Gaussian 82(TM) system (copyright 1983,
 Carnegie Mellon University). Gaussian is a federally registered
 trademark of Gaussian, Inc.
  
 This software contains proprietary and confidential information,
 including trade secrets, belonging to Gaussian, Inc.
  
 This software is provided under written license and may be
 used, copied, transmitted, or stored only in accord with that
 written license.
  
 The following legend is applicable only to US Government
 contracts under FAR:
  
                    RESTRICTED RIGHTS LEGEND
  
 Use, reproduction and disclosure by the US Government is
 subject to restrictions as set forth in subparagraphs (a)
 and (c) of the Commercial Computer Software - Restricted
 Rights clause in FAR 52.227-19.
  
 Gaussian, Inc.
 340 Quinnipiac St., Bldg. 40, Wallingford CT 06492
  
  
 ---------------------------------------------------------------
 Warning -- This program may not be used in any manner that
 competes with the business of Gaussian, Inc. or will provide
 assistance to any competitor of Gaussian, Inc.  The licensee
 of this program is prohibited from giving any competitor of
 Gaussian, Inc. access to this program.  By using this program,
 the user acknowledges that Gaussian, Inc. is engaged in the
 business of creating and licensing software in the field of
 computational chemistry and represents and warrants to the
 licensee that it is not a competitor of Gaussian, Inc. and that
 it will not use this program in any manner prohibited above.
 ---------------------------------------------------------------
  

 Cite this work as:
 Gaussian 16, Revision B.01,
 M. J. Frisch, G. W. Trucks, H. B. Schlegel, G. E. Scuseria, 
 M. A. Robb, J. R. Cheeseman, G. Scalmani, V. Barone, 
 G. A. Petersson, H. Nakatsuji, X. Li, M. Caricato, A. V. Marenich, 
 J. Bloino, B. G. Janesko, R. Gomperts, B. Mennucci, H. P. Hratchian, 
 J. V. Ortiz, A. F. Izmaylov, J. L. Sonnenberg, D. Williams-Young, 
 F. Ding, F. Lipparini, F. Egidi, J. Goings, B. Peng, A. Petrone, 
 T. Henderson, D. Ranasinghe, V. G. Zakrzewski, J. Gao, N. Rega, 
 G. Zheng, W. Liang, M. Hada, M. Ehara, K. Toyota, R. Fukuda, 
 J. Hasegawa, M. Ishida, T. Nakajima, Y. Honda, O. Kitao, H. Nakai, 
 T. Vreven, K. Throssell, J. A. Montgomery, Jr., J. E. Peralta, 
 F. Ogliaro, M. J. Bearpark, J. J. Heyd, E. N. Brothers, K. N. Kudin, 
 V. N. Staroverov, T. A. Keith, R. Kobayashi, J. Normand, 
 K. Raghavachari, A. P. Rendell, J. C. Burant, S. S. Iyengar, 
 J. Tomasi, M. Cossi, J. M. Millam, M. Klene, C. Adamo, R. Cammi, 
 J. W. Ochterski, R. L. Martin, K. Morokuma, O. Farkas, 
 J. B. Foresman, and D. J. Fox, Gaussian, Inc., Wallingford CT, 2016.
 
 ******************************************
 Gaussian 16:  ES64L-G16RevB.01 20-Dec-2017
                 3-Dec-2023 
 ******************************************
 %nproc=15
 Will use up to   15 processors via shared memory.
 -------------------------
 #P B3LYP/6-311+g(d) force
 -------------------------
 1/10=7,30=1,38=1/1,3;
 2/12=2,17=6,18=5,40=1/2;
 3/5=4,6=6,7=11,11=2,25=1,30=1,71=1,74=-5/1,2,3;
 4//1;
 5/5=2,38=5/2;
 6/7=2,8=2,9=2,10=2,28=1/1;
 7/29=1/1,2,3,16;
 1/10=7,30=1/3;
 99//99;
 Leave Link    1 at Sun Dec  3 21:17:05 2023, MaxMem=           0 cpu:               0.3 elap:               0.0
 (Enter /home/sekinelabo/g16/l101.exe)
 -----
 DPGEN
 -----
 Symbolic Z-matrix:
 Charge =  0 Multiplicity = 2
 Na                    12.2442   11.6089   8.13484 
 Na                    10.6719   13.4498   13.9002 
 Na                    8.56281   11.6549   13.0346 
 Na                    10.3365   10.5143   10.1204 
 Na                    15.2226   12.3383   14.4317 
 Na                    13.8445   14.6473   15.8066 
 Na                    15.2051   11.8742   10.6592 
 
 ITRead=  0  0  0  0  0  0  0
 MicOpt= -1 -1 -1 -1 -1 -1 -1
 NAtoms=      7 NQM=        7 NQMF=       0 NMMI=      0 NMMIF=      0
                NMic=       0 NMicF=      0.
                    Isotopes and Nuclear Properties:
 (Nuclear quadrupole moments (NQMom) in fm**2, nuclear magnetic moments (NMagM)
  in nuclear magnetons)

  Atom         1           2           3           4           5           6           7
 IAtWgt=          23          23          23          23          23          23          23
 AtmWgt=  22.9897697  22.9897697  22.9897697  22.9897697  22.9897697  22.9897697  22.9897697
 NucSpn=           3           3           3           3           3           3           3
 AtZEff=  -0.0000000  -0.0000000  -0.0000000  -0.0000000  -0.0000000  -0.0000000  -0.0000000
 NQMom=   10.4000000  10.4000000  10.4000000  10.4000000  10.4000000  10.4000000  10.4000000
 NMagM=    2.2175200   2.2175200   2.2175200   2.2175200   2.2175200   2.2175200   2.2175200
 AtZNuc=  11.0000000  11.0000000  11.0000000  11.0000000  11.0000000  11.0000000  11.0000000
 Leave Link  101 at Sun Dec  3 21:17:05 2023, MaxMem=  1879048192 cpu:               2.5 elap:               0.2
 (Enter /home/sekinelabo/g16/l103.exe)

 GradGradGradGradGradGradGradGradGradGradGradGradGradGradGradGradGradGrad
 Berny optimization.
 Initialization pass.
 Trust Radius=3.00D-01 FncErr=1.00D-07 GrdErr=1.00D-07 EigMax=2.50D+02 EigMin=1.00D-04
 Number of steps in this run=      2 maximum allowed number of steps=      2.
 GradGradGradGradGradGradGradGradGradGradGradGradGradGradGradGradGradGrad

 Leave Link  103 at Sun Dec  3 21:17:05 2023, MaxMem=  1879048192 cpu:               0.2 elap:               0.0
 (Enter /home/sekinelabo/g16/l202.exe)
                          Input orientation:                          
 ---------------------------------------------------------------------
 Center     Atomic      Atomic             Coordinates (Angstroms)
 Number     Number       Type             X           Y           Z
 ---------------------------------------------------------------------
      1         11           0       12.244200   11.608900    8.134840
      2         11           0       10.671900   13.449800   13.900200
      3         11           0        8.562810   11.654900   13.034600
      4         11           0       10.336500   10.514300   10.120400
      5         11           0       15.222600   12.338300   14.431700
      6         11           0       13.844500   14.647300   15.806600
      7         11           0       15.205100   11.874200   10.659200
 ---------------------------------------------------------------------
                    Distance matrix (angstroms):
                    1          2          3          4          5
     1  Na   0.000000
     2  Na   6.253033   0.000000
     3  Na   6.128817   2.901584   0.000000
     4  Na   2.963092   4.797556   3.597153   0.000000
     5  Na   7.003809   4.714530   6.838986   6.766702   0.000000
     6  Na   8.405280   3.890213   6.673432   7.856247   3.020098
     7  Na   3.899962   5.791071   7.057665   5.083591   3.800980
                    6          7
     6  Na   0.000000
     7  Na   6.003086   0.000000
 Stoichiometry    Na7(2)
 Framework group  C1[X(Na7)]
 Deg. of freedom    15
 Full point group                 C1      NOp   1
 Largest Abelian subgroup         C1      NOp   1
 Largest concise Abelian subgroup C1      NOp   1
                         Standard orientation:                         
 ---------------------------------------------------------------------
 Center     Atomic      Atomic             Coordinates (Angstroms)
 Number     Number       Type             X           Y           Z
 ---------------------------------------------------------------------
      1         11           0       -3.649978   -1.916577   -0.903458
      2         11           0        0.990002    2.267262   -0.645595
      3         11           0       -1.338754    3.591228    0.469395
      4         11           0       -3.319112    0.592956    0.636895
      5         11           0        3.066022   -1.607000    1.059407
      6         11           0        4.418678    0.430563   -0.712499
      7         11           0       -0.166857   -3.358432    0.095856
 ---------------------------------------------------------------------
 Rotational constants (GHZ):           0.5550179           0.3690712           0.2384937
 Leave Link  202 at Sun Dec  3 21:17:05 2023, MaxMem=  1879048192 cpu:               0.0 elap:               0.0
 (Enter /home/sekinelabo/g16/l301.exe)
 Standard basis: 6-311+G(d) (5D, 7F)
 Ernie: Thresh=  0.10000D-02 Tol=  0.10000D-05 Strict=F.
 There are   217 symmetry adapted cartesian basis functions of A   symmetry.
 There are   210 symmetry adapted basis functions of A   symmetry.
   210 basis functions,   350 primitive gaussians,   217 cartesian basis functions
    39 alpha electrons       38 beta electrons
       nuclear repulsion energy       276.7385156966 Hartrees.
 IExCor=  402 DFT=T Ex+Corr=B3LYP ExCW=0 ScaHFX=  0.200000
 ScaDFX=  0.800000  0.720000  1.000000  0.810000 ScalE2=  1.000000  1.000000
 IRadAn=      5 IRanWt=     -1 IRanGd=            0 ICorTp=0 IEmpDi=  4
 NAtoms=    7 NActive=    7 NUniq=    7 SFac= 1.00D+00 NAtFMM=   60 NAOKFM=F Big=F
 Integral buffers will be    131072 words long.
 Raffenetti 2 integral format.
 Two-electron integral symmetry is turned on.
 Leave Link  301 at Sun Dec  3 21:17:05 2023, MaxMem=  1879048192 cpu:               0.5 elap:               0.0
 (Enter /home/sekinelabo/g16/l302.exe)
 NPDir=0 NMtPBC=     1 NCelOv=     1 NCel=       1 NClECP=     1 NCelD=      1
         NCelK=      1 NCelE2=     1 NClLst=     1 CellRange=     0.0.
 One-electron integrals computed using PRISM.
 One-electron integral symmetry used in STVInt
 NBasis=   210 RedAO= T EigKep=  5.89D-06  NBF=   210
 NBsUse=   210 1.00D-06 EigRej= -1.00D+00 NBFU=   210
 Precomputing XC quadrature grid using
 IXCGrd= 4 IRadAn=           5 IRanWt=          -1 IRanGd=           0 AccXCQ= 0.00D+00.
 Generated NRdTot=       0 NPtTot=           0 NUsed=           0 NTot=          32
 NSgBfM=   205   205   205   205   205 MxSgAt=     7 MxSgA2=     7.
 Leave Link  302 at Sun Dec  3 21:17:05 2023, MaxMem=  1879048192 cpu:               2.0 elap:               0.1
 (Enter /home/sekinelabo/g16/l303.exe)
 DipDrv:  MaxL=1.
 Leave Link  303 at Sun Dec  3 21:17:05 2023, MaxMem=  1879048192 cpu:               0.5 elap:               0.0
 (Enter /home/sekinelabo/g16/l401.exe)
 ExpMin= 7.60D-03 ExpMax= 3.62D+04 ExpMxC= 1.21D+03 IAcc=3 IRadAn=         5 AccDes= 0.00D+00
 Harris functional with IExCor=  402 and IRadAn=       5 diagonalized for initial guess.
 HarFok:  IExCor=  402 AccDes= 0.00D+00 IRadAn=         5 IDoV= 1 UseB2=F ITyADJ=14
 ICtDFT=  3500011 ScaDFX=  1.000000  1.000000  1.000000  1.000000
 FoFCou: FMM=F IPFlag=           0 FMFlag=      100000 FMFlg1=           0
         NFxFlg=           0 DoJE=T BraDBF=F KetDBF=T FulRan=T
         wScrn=  0.000000 ICntrl=       500 IOpCl=  0 I1Cent=   200000004 NGrid=           0
         NMat0=    1 NMatS0=      1 NMatT0=    0 NMatD0=    1 NMtDS0=    0 NMtDT0=    0
 Petite list used in FoFCou.
 Harris En= -1135.87829768139    
 JPrj=0 DoOrth=F DoCkMO=F.
 Initial guess <Sx>= 0.0000 <Sy>= 0.0000 <Sz>= 0.5000 <S**2>= 0.7500 S= 0.5000
 Leave Link  401 at Sun Dec  3 21:17:05 2023, MaxMem=  1879048192 cpu:               4.2 elap:               0.3
 (Enter /home/sekinelabo/g16/l502.exe)
 Keep R1 and R2 ints in memory in canonical form, NReq=506573279.
 FoFCou: FMM=F IPFlag=           0 FMFlag=           0 FMFlg1=           0
         NFxFlg=           0 DoJE=F BraDBF=F KetDBF=F FulRan=T
         wScrn=  0.000000 ICntrl=       600 IOpCl=  0 I1Cent=           0 NGrid=           0
         NMat0=    1 NMatS0=  22155 NMatT0=    0 NMatD0=    1 NMtDS0=    0 NMtDT0=    0
 Symmetry not used in FoFCou.
 Two-electron integral symmetry not used.
 UHF open shell SCF:
 Using DIIS extrapolation, IDIIS=  1040.
 NGot=  1879048192 LenX=  1388082621 LenY=  1388035091
 Requested convergence on RMS density matrix=1.00D-08 within 128 cycles.
 Requested convergence on MAX density matrix=1.00D-06.
 Requested convergence on             energy=1.00D-06.
 No special actions if energy rises.

 Cycle   1  Pass 1  IDiag  1:
 E= -1136.08641737968    
 DIIS: error= 1.06D-02 at cycle   1 NSaved=   1.
 NSaved= 1 IEnMin= 1 EnMin= -1136.08641737968     IErMin= 1 ErrMin= 1.06D-02
 ErrMax= 1.06D-02  0.00D+00 EMaxC= 1.00D-01 BMatC= 1.82D-01 BMatP= 1.82D-01
 IDIUse=3 WtCom= 8.94D-01 WtEn= 1.06D-01
 Coeff-Com:  0.100D+01
 Coeff-En:   0.100D+01
 Coeff:      0.100D+01
 Gap=     0.034 Goal=   None    Shift=    0.000
 Gap=     0.049 Goal=   None    Shift=    0.000
 GapD=    0.034 DampG=0.250 DampE=0.500 DampFc=0.2500 IDamp=-1.
 Damping current iteration by 2.50D-01
 RMSDP=1.33D-02 MaxDP=1.37D+00              OVMax= 1.03D-01

 Cycle   2  Pass 1  IDiag  1:
 E= -1136.09392978868     Delta-E=       -0.007512408997 Rises=F Damp=T
 DIIS: error= 7.40D-03 at cycle   2 NSaved=   2.
 NSaved= 2 IEnMin= 2 EnMin= -1136.09392978868     IErMin= 2 ErrMin= 7.40D-03
 ErrMax= 7.40D-03  0.00D+00 EMaxC= 1.00D-01 BMatC= 7.07D-02 BMatP= 1.82D-01
 IDIUse=3 WtCom= 9.26D-01 WtEn= 7.40D-02
 Coeff-Com: -0.131D+01 0.231D+01
 Coeff-En:   0.000D+00 0.100D+01
 Coeff:     -0.122D+01 0.222D+01
 Gap=     0.035 Goal=   None    Shift=    0.000
 Gap=     0.052 Goal=   None    Shift=    0.000
 RMSDP=1.00D-02 MaxDP=9.70D-01 DE=-7.51D-03 OVMax= 5.45D-02

 Cycle   3  Pass 1  IDiag  1:
 E= -1136.10976169539     Delta-E=       -0.015831906713 Rises=F Damp=F
 DIIS: error= 3.76D-04 at cycle   3 NSaved=   3.
 NSaved= 3 IEnMin= 3 EnMin= -1136.10976169539     IErMin= 3 ErrMin= 3.76D-04
 ErrMax= 3.76D-04  0.00D+00 EMaxC= 1.00D-01 BMatC= 1.09D-04 BMatP= 7.07D-02
 IDIUse=3 WtCom= 9.96D-01 WtEn= 3.76D-03
 Coeff-Com:  0.150D-03 0.323D-02 0.997D+00
 Coeff-En:   0.000D+00 0.000D+00 0.100D+01
 Coeff:      0.150D-03 0.322D-02 0.997D+00
 Gap=     0.035 Goal=   None    Shift=    0.000
 Gap=     0.052 Goal=   None    Shift=    0.000
 RMSDP=4.96D-04 MaxDP=2.86D-02 DE=-1.58D-02 OVMax= 2.45D-02

 Cycle   4  Pass 1  IDiag  1:
 E= -1136.10988342541     Delta-E=       -0.000121730026 Rises=F Damp=F
 DIIS: error= 4.93D-04 at cycle   4 NSaved=   4.
 NSaved= 4 IEnMin= 4 EnMin= -1136.10988342541     IErMin= 3 ErrMin= 3.76D-04
 ErrMax= 4.93D-04  0.00D+00 EMaxC= 1.00D-01 BMatC= 9.46D-05 BMatP= 1.09D-04
 IDIUse=3 WtCom= 9.95D-01 WtEn= 4.93D-03
 Coeff-Com:  0.369D-02-0.566D-02 0.479D+00 0.522D+00
 Coeff-En:   0.000D+00 0.000D+00 0.000D+00 0.100D+01
 Coeff:      0.367D-02-0.563D-02 0.477D+00 0.525D+00
 Gap=     0.036 Goal=   None    Shift=    0.000
 Gap=     0.053 Goal=   None    Shift=    0.000
 RMSDP=2.73D-04 MaxDP=2.14D-02 DE=-1.22D-04 OVMax= 1.72D-02

 Cycle   5  Pass 1  IDiag  1:
 E= -1136.10998775636     Delta-E=       -0.000104330948 Rises=F Damp=F
 DIIS: error= 2.06D-04 at cycle   5 NSaved=   5.
 NSaved= 5 IEnMin= 5 EnMin= -1136.10998775636     IErMin= 5 ErrMin= 2.06D-04
 ErrMax= 2.06D-04  0.00D+00 EMaxC= 1.00D-01 BMatC= 9.45D-06 BMatP= 9.46D-05
 IDIUse=3 WtCom= 9.98D-01 WtEn= 2.06D-03
 Coeff-Com: -0.652D-03 0.468D-04 0.999D-02 0.156D+00 0.835D+00
 Coeff-En:   0.000D+00 0.000D+00 0.000D+00 0.000D+00 0.100D+01
 Coeff:     -0.651D-03 0.467D-04 0.997D-02 0.155D+00 0.835D+00
 Gap=     0.036 Goal=   None    Shift=    0.000
 Gap=     0.053 Goal=   None    Shift=    0.000
 RMSDP=1.68D-04 MaxDP=9.06D-03 DE=-1.04D-04 OVMax= 1.11D-02

 Cycle   6  Pass 1  IDiag  1:
 E= -1136.11002279429     Delta-E=       -0.000035037926 Rises=F Damp=F
 DIIS: error= 1.66D-04 at cycle   6 NSaved=   6.
 NSaved= 6 IEnMin= 6 EnMin= -1136.11002279429     IErMin= 6 ErrMin= 1.66D-04
 ErrMax= 1.66D-04  0.00D+00 EMaxC= 1.00D-01 BMatC= 4.83D-06 BMatP= 9.45D-06
 IDIUse=3 WtCom= 9.98D-01 WtEn= 1.66D-03
 Coeff-Com: -0.153D-02 0.171D-02-0.159D+00-0.847D-01 0.461D+00 0.782D+00
 Coeff-En:   0.000D+00 0.000D+00 0.000D+00 0.000D+00 0.000D+00 0.100D+01
 Coeff:     -0.153D-02 0.171D-02-0.158D+00-0.845D-01 0.460D+00 0.782D+00
 Gap=     0.036 Goal=   None    Shift=    0.000
 Gap=     0.053 Goal=   None    Shift=    0.000
 RMSDP=1.29D-04 MaxDP=9.07D-03 DE=-3.50D-05 OVMax= 1.01D-02

 Cycle   7  Pass 1  IDiag  1:
 E= -1136.11004407191     Delta-E=       -0.000021277619 Rises=F Damp=F
 DIIS: error= 6.45D-05 at cycle   7 NSaved=   7.
 NSaved= 7 IEnMin= 7 EnMin= -1136.11004407191     IErMin= 7 ErrMin= 6.45D-05
 ErrMax= 6.45D-05  0.00D+00 EMaxC= 1.00D-01 BMatC= 9.88D-07 BMatP= 4.83D-06
 IDIUse=1 WtCom= 1.00D+00 WtEn= 0.00D+00
 Coeff-Com:  0.145D-03-0.190D-04-0.674D-01-0.776D-01-0.970D-01 0.218D+00
 Coeff-Com:  0.102D+01
 Coeff:      0.145D-03-0.190D-04-0.674D-01-0.776D-01-0.970D-01 0.218D+00
 Coeff:      0.102D+01
 Gap=     0.037 Goal=   None    Shift=    0.000
 Gap=     0.054 Goal=   None    Shift=    0.000
 RMSDP=9.51D-05 MaxDP=5.08D-03 DE=-2.13D-05 OVMax= 7.72D-03

 Cycle   8  Pass 1  IDiag  1:
 E= -1136.11005282006     Delta-E=       -0.000008748150 Rises=F Damp=F
 DIIS: error= 3.55D-05 at cycle   8 NSaved=   8.
 NSaved= 8 IEnMin= 8 EnMin= -1136.11005282006     IErMin= 8 ErrMin= 3.55D-05
 ErrMax= 3.55D-05  0.00D+00 EMaxC= 1.00D-01 BMatC= 2.52D-07 BMatP= 9.88D-07
 IDIUse=1 WtCom= 1.00D+00 WtEn= 0.00D+00
 Coeff-Com:  0.878D-03-0.104D-02 0.109D-01-0.470D-02-0.106D+00-0.113D+00
 Coeff-Com:  0.218D+00 0.995D+00
 Coeff:      0.878D-03-0.104D-02 0.109D-01-0.470D-02-0.106D+00-0.113D+00
 Coeff:      0.218D+00 0.995D+00
 Gap=     0.037 Goal=   None    Shift=    0.000
 Gap=     0.054 Goal=   None    Shift=    0.000
 RMSDP=4.46D-05 MaxDP=2.24D-03 DE=-8.75D-06 OVMax= 4.03D-03

 Cycle   9  Pass 1  IDiag  1:
 E= -1136.11005507547     Delta-E=       -0.000002255411 Rises=F Damp=F
 DIIS: error= 1.78D-05 at cycle   9 NSaved=   9.
 NSaved= 9 IEnMin= 9 EnMin= -1136.11005507547     IErMin= 9 ErrMin= 1.78D-05
 ErrMax= 1.78D-05  0.00D+00 EMaxC= 1.00D-01 BMatC= 9.30D-08 BMatP= 2.52D-07
 IDIUse=1 WtCom= 1.00D+00 WtEn= 0.00D+00
 Coeff-Com:  0.140D-03-0.191D-03 0.200D-01 0.220D-01 0.957D-02-0.947D-01
 Coeff-Com: -0.286D+00 0.360D+00 0.969D+00
 Coeff:      0.140D-03-0.191D-03 0.200D-01 0.220D-01 0.957D-02-0.947D-01
 Coeff:     -0.286D+00 0.360D+00 0.969D+00
 Gap=     0.037 Goal=   None    Shift=    0.000
 Gap=     0.054 Goal=   None    Shift=    0.000
 RMSDP=2.81D-05 MaxDP=1.61D-03 DE=-2.26D-06 OVMax= 2.39D-03

 Cycle  10  Pass 1  IDiag  1:
 E= -1136.11005575512     Delta-E=       -0.000000679646 Rises=F Damp=F
 DIIS: error= 1.19D-05 at cycle  10 NSaved=  10.
 NSaved=10 IEnMin=10 EnMin= -1136.11005575512     IErMin=10 ErrMin= 1.19D-05
 ErrMax= 1.19D-05  0.00D+00 EMaxC= 1.00D-01 BMatC= 3.80D-08 BMatP= 9.30D-08
 IDIUse=1 WtCom= 1.00D+00 WtEn= 0.00D+00
 Coeff-Com: -0.375D-03 0.460D-03 0.696D-02 0.144D-01 0.392D-01-0.194D-01
 Coeff-Com: -0.230D+00-0.111D+00 0.549D+00 0.751D+00
 Coeff:     -0.375D-03 0.460D-03 0.696D-02 0.144D-01 0.392D-01-0.194D-01
 Coeff:     -0.230D+00-0.111D+00 0.549D+00 0.751D+00
 Gap=     0.037 Goal=   None    Shift=    0.000
 Gap=     0.054 Goal=   None    Shift=    0.000
 RMSDP=1.64D-05 MaxDP=1.12D-03 DE=-6.80D-07 OVMax= 1.24D-03

 Cycle  11  Pass 1  IDiag  1:
 E= -1136.11005591666     Delta-E=       -0.000000161541 Rises=F Damp=F
 DIIS: error= 3.51D-06 at cycle  11 NSaved=  11.
 NSaved=11 IEnMin=11 EnMin= -1136.11005591666     IErMin=11 ErrMin= 3.51D-06
 ErrMax= 3.51D-06  0.00D+00 EMaxC= 1.00D-01 BMatC= 3.79D-09 BMatP= 3.80D-08
 IDIUse=1 WtCom= 1.00D+00 WtEn= 0.00D+00
 Coeff-Com: -0.208D-03 0.261D-03-0.224D-02 0.103D-02 0.139D-01 0.107D-01
 Coeff-Com: -0.242D-01-0.115D+00-0.315D-02 0.225D+00 0.893D+00
 Coeff:     -0.208D-03 0.261D-03-0.224D-02 0.103D-02 0.139D-01 0.107D-01
 Coeff:     -0.242D-01-0.115D+00-0.315D-02 0.225D+00 0.893D+00
 Gap=     0.037 Goal=   None    Shift=    0.000
 Gap=     0.054 Goal=   None    Shift=    0.000
 RMSDP=6.40D-06 MaxDP=4.15D-04 DE=-1.62D-07 OVMax= 4.58D-04

 Cycle  12  Pass 1  IDiag  1:
 E= -1136.11005593677     Delta-E=       -0.000000020115 Rises=F Damp=F
 DIIS: error= 1.37D-06 at cycle  12 NSaved=  12.
 NSaved=12 IEnMin=12 EnMin= -1136.11005593677     IErMin=12 ErrMin= 1.37D-06
 ErrMax= 1.37D-06  0.00D+00 EMaxC= 1.00D-01 BMatC= 5.73D-10 BMatP= 3.79D-09
 IDIUse=1 WtCom= 1.00D+00 WtEn= 0.00D+00
 Coeff-Com:  0.837D-04-0.108D-03-0.127D-02-0.207D-02-0.558D-02 0.288D-02
 Coeff-Com:  0.374D-01 0.139D-01-0.983D-01-0.108D+00 0.104D+00 0.106D+01
 Coeff:      0.837D-04-0.108D-03-0.127D-02-0.207D-02-0.558D-02 0.288D-02
 Coeff:      0.374D-01 0.139D-01-0.983D-01-0.108D+00 0.104D+00 0.106D+01
 Gap=     0.037 Goal=   None    Shift=    0.000
 Gap=     0.054 Goal=   None    Shift=    0.000
 RMSDP=2.62D-06 MaxDP=1.81D-04 DE=-2.01D-08 OVMax= 1.53D-04

 Cycle  13  Pass 1  IDiag  1:
 E= -1136.11005594006     Delta-E=       -0.000000003288 Rises=F Damp=F
 DIIS: error= 8.15D-07 at cycle  13 NSaved=  13.
 NSaved=13 IEnMin=13 EnMin= -1136.11005594006     IErMin=13 ErrMin= 8.15D-07
 ErrMax= 8.15D-07  0.00D+00 EMaxC= 1.00D-01 BMatC= 1.73D-10 BMatP= 5.73D-10
 IDIUse=1 WtCom= 1.00D+00 WtEn= 0.00D+00
 Coeff-Com:  0.691D-04-0.875D-04-0.842D-04-0.911D-03-0.422D-02-0.347D-03
 Coeff-Com:  0.168D-01 0.237D-01-0.336D-01-0.706D-01-0.136D+00 0.381D+00
 Coeff-Com:  0.824D+00
 Coeff:      0.691D-04-0.875D-04-0.842D-04-0.911D-03-0.422D-02-0.347D-03
 Coeff:      0.168D-01 0.237D-01-0.336D-01-0.706D-01-0.136D+00 0.381D+00
 Coeff:      0.824D+00
 Gap=     0.037 Goal=   None    Shift=    0.000
 Gap=     0.054 Goal=   None    Shift=    0.000
 RMSDP=9.66D-07 MaxDP=6.91D-05 DE=-3.29D-09 OVMax= 5.02D-05

 Cycle  14  Pass 1  IDiag  1:
 E= -1136.11005594081     Delta-E=       -0.000000000747 Rises=F Damp=F
 DIIS: error= 2.72D-07 at cycle  14 NSaved=  14.
 NSaved=14 IEnMin=14 EnMin= -1136.11005594081     IErMin=14 ErrMin= 2.72D-07
 ErrMax= 2.72D-07  0.00D+00 EMaxC= 1.00D-01 BMatC= 3.74D-11 BMatP= 1.73D-10
 IDIUse=1 WtCom= 1.00D+00 WtEn= 0.00D+00
 Coeff-Com: -0.140D-04 0.188D-04 0.319D-03 0.376D-03 0.958D-03-0.682D-03
 Coeff-Com: -0.762D-02 0.258D-03 0.213D-01 0.171D-01-0.575D-01-0.217D+00
 Coeff-Com:  0.193D+00 0.105D+01
 Coeff:     -0.140D-04 0.188D-04 0.319D-03 0.376D-03 0.958D-03-0.682D-03
 Coeff:     -0.762D-02 0.258D-03 0.213D-01 0.171D-01-0.575D-01-0.217D+00
 Coeff:      0.193D+00 0.105D+01
 Gap=     0.037 Goal=   None    Shift=    0.000
 Gap=     0.054 Goal=   None    Shift=    0.000
 RMSDP=5.18D-07 MaxDP=2.98D-05 DE=-7.47D-10 OVMax= 3.01D-05

 Cycle  15  Pass 1  IDiag  1:
 E= -1136.11005594106     Delta-E=       -0.000000000251 Rises=F Damp=F
 DIIS: error= 1.41D-07 at cycle  15 NSaved=  15.
 NSaved=15 IEnMin=15 EnMin= -1136.11005594106     IErMin=15 ErrMin= 1.41D-07
 ErrMax= 1.41D-07  0.00D+00 EMaxC= 1.00D-01 BMatC= 7.53D-12 BMatP= 3.74D-11
 IDIUse=1 WtCom= 1.00D+00 WtEn= 0.00D+00
 Coeff-Com: -0.201D-04 0.259D-04 0.473D-04 0.221D-03 0.110D-02 0.510D-05
 Coeff-Com: -0.444D-02-0.549D-02 0.882D-02 0.164D-01 0.317D-01-0.103D+00
 Coeff-Com: -0.161D+00 0.970D-01 0.112D+01
 Coeff:     -0.201D-04 0.259D-04 0.473D-04 0.221D-03 0.110D-02 0.510D-05
 Coeff:     -0.444D-02-0.549D-02 0.882D-02 0.164D-01 0.317D-01-0.103D+00
 Coeff:     -0.161D+00 0.970D-01 0.112D+01
 Gap=     0.037 Goal=   None    Shift=    0.000
 Gap=     0.054 Goal=   None    Shift=    0.000
 RMSDP=4.03D-07 MaxDP=2.76D-05 DE=-2.51D-10 OVMax= 1.72D-05

 Cycle  16  Pass 1  IDiag  1:
 E= -1136.11005594113     Delta-E=       -0.000000000074 Rises=F Damp=F
 DIIS: error= 8.63D-08 at cycle  16 NSaved=  16.
 NSaved=16 IEnMin=16 EnMin= -1136.11005594113     IErMin=16 ErrMin= 8.63D-08
 ErrMax= 8.63D-08  0.00D+00 EMaxC= 1.00D-01 BMatC= 2.22D-12 BMatP= 7.53D-12
 IDIUse=1 WtCom= 1.00D+00 WtEn= 0.00D+00
 Coeff-Com:  0.816D-05-0.108D-04-0.718D-04-0.120D-03-0.344D-03 0.710D-04
 Coeff-Com:  0.250D-02 0.801D-03-0.661D-02-0.555D-02 0.371D-02 0.750D-01
 Coeff-Com: -0.675D-02-0.277D+00-0.206D+00 0.142D+01
 Coeff:      0.816D-05-0.108D-04-0.718D-04-0.120D-03-0.344D-03 0.710D-04
 Coeff:      0.250D-02 0.801D-03-0.661D-02-0.555D-02 0.371D-02 0.750D-01
 Coeff:     -0.675D-02-0.277D+00-0.206D+00 0.142D+01
 Gap=     0.037 Goal=   None    Shift=    0.000
 Gap=     0.054 Goal=   None    Shift=    0.000
 RMSDP=4.21D-07 MaxDP=3.45D-05 DE=-7.37D-11 OVMax= 1.33D-05

 Cycle  17  Pass 1  IDiag  1:
 E= -1136.11005594116     Delta-E=       -0.000000000030 Rises=F Damp=F
 DIIS: error= 5.43D-08 at cycle  17 NSaved=  17.
 NSaved=17 IEnMin=17 EnMin= -1136.11005594116     IErMin=17 ErrMin= 5.43D-08
 ErrMax= 5.43D-08  0.00D+00 EMaxC= 1.00D-01 BMatC= 7.08D-13 BMatP= 2.22D-12
 IDIUse=1 WtCom= 1.00D+00 WtEn= 0.00D+00
 Coeff-Com:  0.826D-05-0.107D-04-0.254D-04-0.862D-04-0.384D-03-0.980D-05
 Coeff-Com:  0.178D-02 0.205D-02-0.408D-02-0.626D-02-0.813D-02 0.429D-01
 Coeff-Com:  0.541D-01-0.689D-01-0.428D+00 0.213D+00 0.120D+01
 Coeff:      0.826D-05-0.107D-04-0.254D-04-0.862D-04-0.384D-03-0.980D-05
 Coeff:      0.178D-02 0.205D-02-0.408D-02-0.626D-02-0.813D-02 0.429D-01
 Coeff:      0.541D-01-0.689D-01-0.428D+00 0.213D+00 0.120D+01
 Gap=     0.037 Goal=   None    Shift=    0.000
 Gap=     0.054 Goal=   None    Shift=    0.000
 RMSDP=3.06D-07 MaxDP=2.54D-05 DE=-3.05D-11 OVMax= 9.22D-06

 Cycle  18  Pass 1  IDiag  1:
 E= -1136.11005594116     Delta-E=        0.000000000004 Rises=F Damp=F
 DIIS: error= 2.45D-08 at cycle  18 NSaved=  18.
 NSaved=18 IEnMin=17 EnMin= -1136.11005594116     IErMin=18 ErrMin= 2.45D-08
 ErrMax= 2.45D-08  0.00D+00 EMaxC= 1.00D-01 BMatC= 1.67D-13 BMatP= 7.08D-13
 IDIUse=1 WtCom= 1.00D+00 WtEn= 0.00D+00
 Coeff-Com: -0.268D-05 0.355D-05 0.187D-04 0.392D-04 0.115D-03 0.153D-04
 Coeff-Com: -0.792D-03-0.392D-03 0.227D-02 0.154D-02-0.292D-02-0.186D-01
 Coeff-Com:  0.648D-02 0.789D-01 0.277D-01-0.409D+00 0.826D-01 0.123D+01
 Coeff:     -0.268D-05 0.355D-05 0.187D-04 0.392D-04 0.115D-03 0.153D-04
 Coeff:     -0.792D-03-0.392D-03 0.227D-02 0.154D-02-0.292D-02-0.186D-01
 Coeff:      0.648D-02 0.789D-01 0.277D-01-0.409D+00 0.826D-01 0.123D+01
 Gap=     0.037 Goal=   None    Shift=    0.000
 Gap=     0.054 Goal=   None    Shift=    0.000
 RMSDP=1.56D-07 MaxDP=1.41D-05 DE= 4.09D-12 OVMax= 5.75D-06

 Cycle  19  Pass 1  IDiag  1:
 E= -1136.11005594116     Delta-E=       -0.000000000002 Rises=F Damp=F
 DIIS: error= 1.08D-08 at cycle  19 NSaved=  19.
 NSaved=19 IEnMin=17 EnMin= -1136.11005594116     IErMin=19 ErrMin= 1.08D-08
 ErrMax= 1.08D-08  0.00D+00 EMaxC= 1.00D-01 BMatC= 3.17D-14 BMatP= 1.67D-13
 IDIUse=1 WtCom= 1.00D+00 WtEn= 0.00D+00
 Coeff-Com: -0.140D-05 0.182D-05 0.566D-05 0.167D-04 0.769D-04-0.223D-04
 Coeff-Com: -0.354D-03-0.245D-03 0.790D-03 0.855D-03 0.890D-03-0.764D-02
 Coeff-Com: -0.714D-02 0.174D-01 0.710D-01-0.715D-01-0.210D+00 0.998D-01
 Coeff-Com:  0.111D+01
 Coeff:     -0.140D-05 0.182D-05 0.566D-05 0.167D-04 0.769D-04-0.223D-04
 Coeff:     -0.354D-03-0.245D-03 0.790D-03 0.855D-03 0.890D-03-0.764D-02
 Coeff:     -0.714D-02 0.174D-01 0.710D-01-0.715D-01-0.210D+00 0.998D-01
 Coeff:      0.111D+01
 Gap=     0.037 Goal=   None    Shift=    0.000
 Gap=     0.054 Goal=   None    Shift=    0.000
 RMSDP=4.74D-08 MaxDP=4.31D-06 DE=-1.82D-12 OVMax= 2.39D-06

 Cycle  20  Pass 1  IDiag  1:
 E= -1136.11005594116     Delta-E=       -0.000000000004 Rises=F Damp=F
 DIIS: error= 4.00D-09 at cycle  20 NSaved=  20.
 NSaved=20 IEnMin=20 EnMin= -1136.11005594116     IErMin=20 ErrMin= 4.00D-09
 ErrMax= 4.00D-09  0.00D+00 EMaxC= 1.00D-01 BMatC= 7.16D-15 BMatP= 3.17D-14
 IDIUse=1 WtCom= 1.00D+00 WtEn= 0.00D+00
 Coeff-Com:  0.288D-06-0.392D-06-0.331D-05-0.460D-05-0.447D-05-0.668D-05
 Coeff-Com:  0.853D-04 0.281D-04-0.331D-03-0.155D-03 0.926D-03 0.305D-02
 Coeff-Com: -0.360D-02-0.172D-01 0.937D-02 0.969D-01-0.841D-01-0.297D+00
 Coeff-Com:  0.269D+00 0.102D+01
 Coeff:      0.288D-06-0.392D-06-0.331D-05-0.460D-05-0.447D-05-0.668D-05
 Coeff:      0.853D-04 0.281D-04-0.331D-03-0.155D-03 0.926D-03 0.305D-02
 Coeff:     -0.360D-02-0.172D-01 0.937D-02 0.969D-01-0.841D-01-0.297D+00
 Coeff:      0.269D+00 0.102D+01
 Gap=     0.037 Goal=   None    Shift=    0.000
 Gap=     0.054 Goal=   None    Shift=    0.000
 RMSDP=1.72D-08 MaxDP=1.39D-06 DE=-3.64D-12 OVMax= 1.01D-06

 Cycle  21  Pass 1  IDiag  1:
 E= -1136.11005594117     Delta-E=       -0.000000000011 Rises=F Damp=F
 DIIS: error= 1.78D-09 at cycle  21 NSaved=  20.
 NSaved=20 IEnMin=20 EnMin= -1136.11005594117     IErMin=20 ErrMin= 1.78D-09
 ErrMax= 1.78D-09  0.00D+00 EMaxC= 1.00D-01 BMatC= 1.06D-15 BMatP= 7.16D-15
 IDIUse=1 WtCom= 1.00D+00 WtEn= 0.00D+00
 Large coefficients: NSaved= 20 BigCof=    0.00 CofMax=   10.00 Det=-2.39D-15
 Inversion failed.  Reducing to 19 matrices.
 Large coefficients: NSaved= 19 BigCof=    0.00 CofMax=   10.00 Det=-2.39D-15
 Inversion failed.  Reducing to 18 matrices.
 Large coefficients: NSaved= 18 BigCof=    0.00 CofMax=   10.00 Det=-2.49D-15
 Inversion failed.  Reducing to 17 matrices.
 Large coefficients: NSaved= 17 BigCof=    0.00 CofMax=   10.00 Det=-2.52D-15
 Inversion failed.  Reducing to 16 matrices.
 Large coefficients: NSaved= 16 BigCof=    0.00 CofMax=   10.00 Det=-2.75D-15
 Inversion failed.  Reducing to 15 matrices.
 Coeff-Com:  0.952D-06-0.334D-05 0.159D-04 0.111D-04-0.406D-04 0.670D-04
 Coeff-Com: -0.565D-04-0.104D-02-0.736D-03 0.108D-01 0.330D-02-0.347D-01
 Coeff-Com: -0.774D-01 0.120D+00 0.980D+00
 Coeff:      0.952D-06-0.334D-05 0.159D-04 0.111D-04-0.406D-04 0.670D-04
 Coeff:     -0.565D-04-0.104D-02-0.736D-03 0.108D-01 0.330D-02-0.347D-01
 Coeff:     -0.774D-01 0.120D+00 0.980D+00
 Gap=     0.037 Goal=   None    Shift=    0.000
 Gap=     0.054 Goal=   None    Shift=    0.000
 RMSDP=2.53D-09 MaxDP=1.68D-07 DE=-1.09D-11 OVMax= 1.68D-07

 SCF Done:  E(UB3LYP) =  -1136.11005594     A.U. after   21 cycles
            NFock= 21  Conv=0.25D-08     -V/T= 2.0028
 <Sx>= 0.0000 <Sy>= 0.0000 <Sz>= 0.5000 <S**2>= 0.7831 S= 0.5164
 <L.S>= 0.000000000000E+00
 KE= 1.132898065260D+03 PE=-3.282500496427D+03 EE= 7.367538595290D+02
 Annihilation of the first spin contaminant:
 S**2 before annihilation     0.7831,   after     0.7506
 Leave Link  502 at Sun Dec  3 21:17:22 2023, MaxMem=  1879048192 cpu:             187.6 elap:              16.9
 (Enter /home/sekinelabo/g16/l601.exe)
 Copying SCF densities to generalized density rwf, IOpCl= 1 IROHF=0.

 **********************************************************************

            Population analysis using the SCF Density.

 **********************************************************************

 Orbital symmetries:
 Alpha Orbitals:
       Occupied  (A) (A) (A) (A) (A) (A) (A) (A) (A) (A) (A) (A)
                 (A) (A) (A) (A) (A) (A) (A) (A) (A) (A) (A) (A)
                 (A) (A) (A) (A) (A) (A) (A) (A) (A) (A) (A) (A)
                 (A) (A) (A)
       Virtual   (A) (A) (A) (A) (A) (A) (A) (A) (A) (A) (A) (A)
                 (A) (A) (A) (A) (A) (A) (A) (A) (A) (A) (A) (A)
                 (A) (A) (A) (A) (A) (A) (A) (A) (A) (A) (A) (A)
                 (A) (A) (A) (A) (A) (A) (A) (A) (A) (A) (A) (A)
                 (A) (A) (A) (A) (A) (A) (A) (A) (A) (A) (A) (A)
                 (A) (A) (A) (A) (A) (A) (A) (A) (A) (A) (A) (A)
                 (A) (A) (A) (A) (A) (A) (A) (A) (A) (A) (A) (A)
                 (A) (A) (A) (A) (A) (A) (A) (A) (A) (A) (A) (A)
                 (A) (A) (A) (A) (A) (A) (A) (A) (A) (A) (A) (A)
                 (A) (A) (A) (A) (A) (A) (A) (A) (A) (A) (A) (A)
                 (A) (A) (A) (A) (A) (A) (A) (A) (A) (A) (A) (A)
                 (A) (A) (A) (A) (A) (A) (A) (A) (A) (A) (A) (A)
                 (A) (A) (A) (A) (A) (A) (A) (A) (A) (A) (A) (A)
                 (A) (A) (A) (A) (A) (A) (A) (A) (A) (A) (A) (A)
                 (A) (A) (A)
 Beta  Orbitals:
       Occupied  (A) (A) (A) (A) (A) (A) (A) (A) (A) (A) (A) (A)
                 (A) (A) (A) (A) (A) (A) (A) (A) (A) (A) (A) (A)
                 (A) (A) (A) (A) (A) (A) (A) (A) (A) (A) (A) (A)
                 (A) (A)
       Virtual   (A) (A) (A) (A) (A) (A) (A) (A) (A) (A) (A) (A)
                 (A) (A) (A) (A) (A) (A) (A) (A) (A) (A) (A) (A)
                 (A) (A) (A) (A) (A) (A) (A) (A) (A) (A) (A) (A)
                 (A) (A) (A) (A) (A) (A) (A) (A) (A) (A) (A) (A)
                 (A) (A) (A) (A) (A) (A) (A) (A) (A) (A) (A) (A)
                 (A) (A) (A) (A) (A) (A) (A) (A) (A) (A) (A) (A)
                 (A) (A) (A) (A) (A) (A) (A) (A) (A) (A) (A) (A)
                 (A) (A) (A) (A) (A) (A) (A) (A) (A) (A) (A) (A)
                 (A) (A) (A) (A) (A) (A) (A) (A) (A) (A) (A) (A)
                 (A) (A) (A) (A) (A) (A) (A) (A) (A) (A) (A) (A)
                 (A) (A) (A) (A) (A) (A) (A) (A) (A) (A) (A) (A)
                 (A) (A) (A) (A) (A) (A) (A) (A) (A) (A) (A) (A)
                 (A) (A) (A) (A) (A) (A) (A) (A) (A) (A) (A) (A)
                 (A) (A) (A) (A) (A) (A) (A) (A) (A) (A) (A) (A)
                 (A) (A) (A) (A)
 The electronic state is 2-A.
 Alpha  occ. eigenvalues --  -38.45050 -38.44768 -38.44744 -38.44357 -38.43910
 Alpha  occ. eigenvalues --  -38.43855 -38.43631  -2.20862  -2.20575  -2.20572
 Alpha  occ. eigenvalues --   -2.20131  -2.19754  -2.19686  -2.19490  -1.14571
 Alpha  occ. eigenvalues --   -1.14522  -1.14506  -1.14289  -1.14279  -1.14237
 Alpha  occ. eigenvalues --   -1.14229  -1.14223  -1.14200  -1.13794  -1.13781
 Alpha  occ. eigenvalues --   -1.13734  -1.13414  -1.13387  -1.13374  -1.13373
 Alpha  occ. eigenvalues --   -1.13331  -1.13303  -1.13182  -1.13122  -1.13115
 Alpha  occ. eigenvalues --   -0.16021  -0.14141  -0.13272  -0.10673
 Alpha virt. eigenvalues --   -0.07015  -0.04805  -0.04474  -0.03848  -0.03237
 Alpha virt. eigenvalues --   -0.02418  -0.01914  -0.01508  -0.01257  -0.00995
 Alpha virt. eigenvalues --   -0.00525  -0.00044   0.00325   0.00529   0.00639
 Alpha virt. eigenvalues --    0.00842   0.00935   0.01048   0.01193   0.01308
 Alpha virt. eigenvalues --    0.01333   0.01533   0.01638   0.01852   0.01945
 Alpha virt. eigenvalues --    0.01959   0.02045   0.02158   0.02209   0.02307
 Alpha virt. eigenvalues --    0.02576   0.02736   0.02758   0.02805   0.02975
 Alpha virt. eigenvalues --    0.03063   0.03167   0.03203   0.03298   0.03431
 Alpha virt. eigenvalues --    0.03526   0.03652   0.03942   0.04055   0.04254
 Alpha virt. eigenvalues --    0.04489   0.04648   0.04794   0.05202   0.05608
 Alpha virt. eigenvalues --    0.05891   0.06014   0.06680   0.06921   0.07106
 Alpha virt. eigenvalues --    0.07354   0.07481   0.07675   0.07842   0.08166
 Alpha virt. eigenvalues --    0.08466   0.08992   0.09155   0.09264   0.09790
 Alpha virt. eigenvalues --    0.10126   0.10426   0.10795   0.11446   0.11499
 Alpha virt. eigenvalues --    0.11910   0.12076   0.12602   0.13207   0.13390
 Alpha virt. eigenvalues --    0.14046   0.14652   0.15770   0.16525   0.17305
 Alpha virt. eigenvalues --    0.27024   0.28351   0.28623   0.28766   0.29825
 Alpha virt. eigenvalues --    0.30089   0.31063   0.31901   0.32371   0.32622
 Alpha virt. eigenvalues --    0.33265   0.33785   0.34023   0.35014   0.36024
 Alpha virt. eigenvalues --    0.36130   0.36450   0.37069   0.38281   0.38592
 Alpha virt. eigenvalues --    0.40233   0.40592   0.41374   0.42434   0.42636
 Alpha virt. eigenvalues --    0.43315   0.43534   0.43632   0.43880   0.44054
 Alpha virt. eigenvalues --    0.44418   0.44799   0.45042   0.45189   0.45507
 Alpha virt. eigenvalues --    0.46015   0.46486   0.47351   0.47634   0.48367
 Alpha virt. eigenvalues --    0.48669   0.49393   0.49638   0.50437   0.50907
 Alpha virt. eigenvalues --    0.51399   0.51730   0.52023   0.52980   0.54135
 Alpha virt. eigenvalues --    0.54272   0.55721   0.58412   0.71059   0.73492
 Alpha virt. eigenvalues --    0.76684   2.03457   2.07005   2.08476   2.11195
 Alpha virt. eigenvalues --    2.13810   2.15842   2.17972   4.41709   4.42294
 Alpha virt. eigenvalues --    4.42997   4.43997   4.44087   4.44278   4.45136
 Alpha virt. eigenvalues --    4.45335   4.45795   4.46227   4.46603   4.46874
 Alpha virt. eigenvalues --    4.46971   4.47291   4.47829   4.48212   4.49008
 Alpha virt. eigenvalues --    4.50251   4.64637   4.67101   4.70268  96.22927
 Alpha virt. eigenvalues --   96.27381  96.29196  96.31997  96.36584  96.38698
 Alpha virt. eigenvalues --   96.41684
  Beta  occ. eigenvalues --  -38.45038 -38.44762 -38.44710 -38.44271 -38.43857
  Beta  occ. eigenvalues --  -38.43836 -38.43617  -2.20844  -2.20568  -2.20515
  Beta  occ. eigenvalues --   -2.19972  -2.19655  -2.19654  -2.19466  -1.14547
  Beta  occ. eigenvalues --   -1.14511  -1.14489  -1.14267  -1.14241  -1.14240
  Beta  occ. eigenvalues --   -1.14193  -1.14184  -1.14149  -1.13687  -1.13674
  Beta  occ. eigenvalues --   -1.13621  -1.13353  -1.13339  -1.13319  -1.13312
  Beta  occ. eigenvalues --   -1.13307  -1.13277  -1.13159  -1.13106  -1.13100
  Beta  occ. eigenvalues --   -0.15603  -0.13572  -0.12609
  Beta virt. eigenvalues --   -0.07245  -0.07013  -0.04552  -0.04053  -0.03700
  Beta virt. eigenvalues --   -0.02726  -0.02271  -0.01656  -0.01336  -0.01020
  Beta virt. eigenvalues --   -0.00583  -0.00324   0.00209   0.00395   0.00561
  Beta virt. eigenvalues --    0.00727   0.00894   0.00971   0.01116   0.01296
  Beta virt. eigenvalues --    0.01354   0.01440   0.01608   0.01766   0.01935
  Beta virt. eigenvalues --    0.01991   0.02010   0.02138   0.02236   0.02318
  Beta virt. eigenvalues --    0.02499   0.02633   0.02788   0.02825   0.02905
  Beta virt. eigenvalues --    0.02999   0.03116   0.03213   0.03287   0.03315
  Beta virt. eigenvalues --    0.03466   0.03583   0.03706   0.04027   0.04152
  Beta virt. eigenvalues --    0.04307   0.04580   0.04684   0.04864   0.05335
  Beta virt. eigenvalues --    0.05676   0.06005   0.06058   0.06713   0.07034
  Beta virt. eigenvalues --    0.07173   0.07463   0.07512   0.07770   0.08033
  Beta virt. eigenvalues --    0.08386   0.08638   0.09155   0.09368   0.09456
  Beta virt. eigenvalues --    0.09943   0.10212   0.10549   0.11035   0.11556
  Beta virt. eigenvalues --    0.11689   0.12016   0.12188   0.12768   0.13445
  Beta virt. eigenvalues --    0.13549   0.14126   0.14881   0.15993   0.16607
  Beta virt. eigenvalues --    0.17388   0.27285   0.28677   0.28974   0.29082
  Beta virt. eigenvalues --    0.30114   0.30441   0.31290   0.32193   0.32615
  Beta virt. eigenvalues --    0.32900   0.33487   0.34039   0.34232   0.35306
  Beta virt. eigenvalues --    0.36206   0.36433   0.36878   0.37509   0.38674
  Beta virt. eigenvalues --    0.38816   0.40508   0.40740   0.41557   0.42620
  Beta virt. eigenvalues --    0.42794   0.43442   0.43647   0.43782   0.44037
  Beta virt. eigenvalues --    0.44201   0.44525   0.44817   0.45116   0.45438
  Beta virt. eigenvalues --    0.45605   0.46109   0.46614   0.47470   0.47743
  Beta virt. eigenvalues --    0.48535   0.48792   0.49502   0.49775   0.50532
  Beta virt. eigenvalues --    0.51028   0.51566   0.51831   0.52135   0.53233
  Beta virt. eigenvalues --    0.54291   0.54443   0.55939   0.58551   0.71190
  Beta virt. eigenvalues --    0.73604   0.76753   2.03603   2.07209   2.08586
  Beta virt. eigenvalues --    2.11341   2.13866   2.15974   2.18045   4.41752
  Beta virt. eigenvalues --    4.42367   4.43031   4.44019   4.44119   4.44335
  Beta virt. eigenvalues --    4.45199   4.45409   4.45870   4.46255   4.46639
  Beta virt. eigenvalues --    4.46921   4.47028   4.47350   4.47852   4.48253
  Beta virt. eigenvalues --    4.49116   4.50284   4.64681   4.67163   4.70299
  Beta virt. eigenvalues --   96.22977  96.27448  96.29235  96.32046  96.36611
  Beta virt. eigenvalues --   96.38741  96.41711
          Condensed to atoms (all electrons):
               1          2          3          4          5          6
     1  Na  10.775527  -0.599797   0.371790  -0.046676   0.011300   0.041930
     2  Na  -0.599797  13.167198  -1.550618   1.044418  -0.039718   0.087500
     3  Na   0.371790  -1.550618  12.102203  -1.123745   0.110185  -0.046238
     4  Na  -0.046676   1.044418  -1.123745  11.739067  -0.207878   0.061294
     5  Na   0.011300  -0.039718   0.110185  -0.207878  10.837189   0.092801
     6  Na   0.041930   0.087500  -0.046238   0.061294   0.092801  10.666598
     7  Na  -0.120387   0.258052  -0.350543   0.197416   0.181443  -0.195585
               7
     1  Na  -0.120387
     2  Na   0.258052
     3  Na  -0.350543
     4  Na   0.197416
     5  Na   0.181443
     6  Na  -0.195585
     7  Na  11.358332
          Atomic-Atomic Spin Densities.
               1          2          3          4          5          6
     1  Na   0.135317  -0.082533   0.023037   0.109887  -0.010437   0.042704
     2  Na  -0.082533   0.162048   0.056005  -0.074343  -0.022792   0.001303
     3  Na   0.023037   0.056005  -0.080625  -0.060078   0.013714   0.012016
     4  Na   0.109887  -0.074343  -0.060078   0.323931   0.008709   0.023335
     5  Na  -0.010437  -0.022792   0.013714   0.008709  -0.049492  -0.016448
     6  Na   0.042704   0.001303   0.012016   0.023335  -0.016448   0.328185
     7  Na  -0.197911   0.010535   0.089874  -0.112618   0.111420  -0.156457
               7
     1  Na  -0.197911
     2  Na   0.010535
     3  Na   0.089874
     4  Na  -0.112618
     5  Na   0.111420
     6  Na  -0.156457
     7  Na   0.642795
 Mulliken charges and spin densities:
               1          2
     1  Na   0.566314   0.020064
     2  Na  -1.367034   0.050223
     3  Na   1.486966   0.053943
     4  Na  -0.663896   0.218823
     5  Na   0.014678   0.034673
     6  Na   0.291700   0.234638
     7  Na  -0.328730   0.387638
 Sum of Mulliken charges =  -0.00000   1.00000
 Mulliken charges and spin densities with hydrogens summed into heavy atoms:
               1          2
     1  Na   0.566314   0.020064
     2  Na  -1.367034   0.050223
     3  Na   1.486966   0.053943
     4  Na  -0.663896   0.218823
     5  Na   0.014678   0.034673
     6  Na   0.291700   0.234638
     7  Na  -0.328730   0.387638
 Electronic spatial extent (au):  <R**2>=           3908.3752
 Charge=             -0.0000 electrons
 Dipole moment (field-independent basis, Debye):
    X=              0.1025    Y=              0.4683    Z=             -0.0811  Tot=              0.4862
 Quadrupole moment (field-independent basis, Debye-Ang):
   XX=            -66.2167   YY=            -68.3436   ZZ=            -67.5059
   XY=             -1.0623   XZ=             -1.1136   YZ=              1.6426
 Traceless Quadrupole moment (field-independent basis, Debye-Ang):
   XX=              1.1387   YY=             -0.9882   ZZ=             -0.1505
   XY=             -1.0623   XZ=             -1.1136   YZ=              1.6426
 Octapole moment (field-independent basis, Debye-Ang**2):
  XXX=             19.6767  YYY=             12.3646  ZZZ=              1.2979  XYY=            -21.4980
  XXY=              7.5547  XXZ=             -4.8407  XZZ=              2.5816  YZZ=              0.0831
  YYZ=             -1.5519  XYZ=            -28.6371
 Hexadecapole moment (field-independent basis, Debye-Ang**3):
 XXXX=          -3674.3090 YYYY=          -2472.6860 ZZZZ=           -446.4262 XXXY=             -4.9365
 XXXZ=            -34.6964 YYYX=            -21.6308 YYYZ=             60.0248 ZZZX=              6.7799
 ZZZY=              5.4617 XXYY=           -959.7419 XXZZ=           -638.0052 YYZZ=           -493.7521
 XXYZ=             16.3051 YYXZ=              9.0803 ZZXY=             -4.4613
 N-N= 2.767385156966D+02 E-N=-3.282500496035D+03  KE= 1.132898065260D+03
                          Isotropic Fermi Contact Couplings
        Atom                 a.u.       MegaHertz       Gauss      10(-4) cm-1
     1  Na(23)             0.05322      62.96169      22.46630      21.00176
     2  Na(23)             0.02246      26.56822       9.48020       8.86220
     3  Na(23)             0.05297      62.66060      22.35886      20.90132
     4  Na(23)             0.12237     144.77015      51.65759      48.29012
     5  Na(23)            -0.04740     -56.07671     -20.00956     -18.70518
     6  Na(23)             0.23744     280.89511     100.23036      93.69652
     7  Na(23)             0.35931     425.07133     151.67602     141.78853
 --------------------------------------------------------
       Center         ----  Spin Dipole Couplings  ----
                      3XX-RR        3YY-RR        3ZZ-RR
 --------------------------------------------------------
     1   Atom       -0.006344      0.015087     -0.008743
     2   Atom        0.012619     -0.004111     -0.008508
     3   Atom        0.006769     -0.004872     -0.001897
     4   Atom        0.005520     -0.001488     -0.004031
     5   Atom        0.018077      0.007739     -0.025816
     6   Atom       -0.000262     -0.000275      0.000537
     7   Atom        0.005244     -0.003568     -0.001676
 --------------------------------------------------------
                        XY            XZ            YZ
 --------------------------------------------------------
     1   Atom       -0.014735     -0.007019      0.010425
     2   Atom       -0.011670     -0.007308      0.004213
     3   Atom       -0.001258     -0.003101      0.000102
     4   Atom        0.016535      0.009978      0.008411
     5   Atom        0.041034     -0.007858     -0.007243
     6   Atom       -0.003756      0.003545      0.003986
     7   Atom        0.001340      0.003510      0.000520
 --------------------------------------------------------


 ---------------------------------------------------------------------------------
              Anisotropic Spin Dipole Couplings in Principal Axis System
 ---------------------------------------------------------------------------------

       Atom             a.u.   MegaHertz   Gauss  10(-4) cm-1        Axes

              Baa    -0.0150    -2.113    -0.754    -0.705  0.7926  0.1873  0.5803
     1 Na(23) Bbb    -0.0120    -1.693    -0.604    -0.565 -0.4229 -0.5167  0.7444
              Bcc     0.0270     3.807     1.358     1.270 -0.4393  0.8354  0.3303
 
              Baa    -0.0111    -1.564    -0.558    -0.522  0.0531 -0.4503  0.8913
     2 Na(23) Bbb    -0.0099    -1.404    -0.501    -0.468  0.5180  0.7755  0.3609
              Bcc     0.0210     2.968     1.059     0.990  0.8537 -0.4425 -0.2745
 
              Baa    -0.0050    -0.710    -0.253    -0.237  0.1308  0.9866  0.0972
     3 Na(23) Bbb    -0.0029    -0.403    -0.144    -0.134  0.2884 -0.1317  0.9484
              Bcc     0.0079     1.113     0.397     0.371  0.9485 -0.0960 -0.3018
 
              Baa    -0.0149    -2.104    -0.751    -0.702 -0.6159  0.7866 -0.0433
     4 Na(23) Bbb    -0.0099    -1.401    -0.500    -0.467 -0.3491 -0.2232  0.9101
              Bcc     0.0248     3.505     1.251     1.169  0.7063  0.5757  0.4121
 
              Baa    -0.0285    -4.024    -1.436    -1.342 -0.6335  0.7530  0.1779
     5 Na(23) Bbb    -0.0272    -3.837    -1.369    -1.280  0.2146 -0.0499  0.9754
              Bcc     0.0557     7.861     2.805     2.622  0.7434  0.6561 -0.1300
 
              Baa    -0.0075    -1.065    -0.380    -0.355  0.5787  0.6015 -0.5508
     6 Na(23) Bbb     0.0034     0.479     0.171     0.160  0.8090 -0.5086  0.2946
              Bcc     0.0041     0.586     0.209     0.195  0.1030  0.6161  0.7809
 
              Baa    -0.0038    -0.532    -0.190    -0.177 -0.1482  0.9890  0.0028
     7 Na(23) Bbb    -0.0031    -0.444    -0.158    -0.148 -0.3774 -0.0592  0.9242
              Bcc     0.0069     0.976     0.348     0.325  0.9141  0.1359  0.3820
 

 ---------------------------------------------------------------------------------

 No NMR shielding tensors so no spin-rotation constants.
 Leave Link  601 at Sun Dec  3 21:17:23 2023, MaxMem=  1879048192 cpu:               2.3 elap:               0.2
 (Enter /home/sekinelabo/g16/l701.exe)
 ... and contract with generalized density number  0.
 Compute integral first derivatives.
 Leave Link  701 at Sun Dec  3 21:17:23 2023, MaxMem=  1879048192 cpu:               1.5 elap:               0.1
 (Enter /home/sekinelabo/g16/l702.exe)
 L702 exits ... SP integral derivatives will be done elsewhere.
 Leave Link  702 at Sun Dec  3 21:17:23 2023, MaxMem=  1879048192 cpu:               0.4 elap:               0.0
 (Enter /home/sekinelabo/g16/l703.exe)
 Integral derivatives from FoFJK, PRISM(SPDF).
 Compute integral first derivatives, UseDBF=F ICtDFT=           0.
 Calling FoFJK, ICntrl=      2127 FMM=F ISym2X=0 I1Cent= 0 IOpClX= 1 NMat=1 NMatS=1 NMatT=0.
 FoFJK:  IHMeth= 1 ICntrl=    2127 DoSepK=F KAlg= 0 I1Cent=           0 FoldK=F
 IRaf=         0 NMat=       1 IRICut=       1 DoRegI=T DoRafI=F ISym2E= 0 IDoP0=0 IntGTp=1.
 FoFCou: FMM=F IPFlag=           0 FMFlag=      100000 FMFlg1=         800
         NFxFlg=           0 DoJE=F BraDBF=F KetDBF=F FulRan=T
         wScrn=  0.000000 ICntrl=      2127 IOpCl=  1 I1Cent=           0 NGrid=           0
         NMat0=    1 NMatS0=      1 NMatT0=    0 NMatD0=    1 NMtDS0=    0 NMtDT0=    0
 Symmetry not used in FoFCou.
 Leave Link  703 at Sun Dec  3 21:17:25 2023, MaxMem=  1879048192 cpu:              29.0 elap:               1.9
 (Enter /home/sekinelabo/g16/l716.exe)
 Dipole        = 4.03459750D-02 1.84247171D-01-3.19162998D-02
 ***** Axes restored to original set *****
 -------------------------------------------------------------------
 Center     Atomic                   Forces (Hartrees/Bohr)
 Number     Number              X              Y              Z
 -------------------------------------------------------------------
      1       11           0.004437599    0.001327527   -0.002599620
      2       11           0.007204055    0.002082906    0.001655440
      3       11          -0.005422964   -0.003714605   -0.001493280
      4       11          -0.001380949    0.000284275    0.004305227
      5       11           0.000100266   -0.002447433   -0.005218582
      6       11          -0.002697276    0.002987142    0.001881554
      7       11          -0.002240730   -0.000519812    0.001469261
 -------------------------------------------------------------------
 Cartesian Forces:  Max     0.007204055 RMS     0.003189055
 Z-matrix is all fixed cartesians, so copy forces.
 Force constants in Cartesian coordinates: 
                1             2             3             4             5 
      1  0.259209D-01
      2  0.864840D-02  0.127307D-01
      3 -0.107682D-01 -0.810596D-02  0.395292D-01
      4 -0.350370D-04  0.130886D-04 -0.264476D-04  0.401977D-01
      5  0.634259D-04 -0.236937D-04  0.478769D-04  0.122886D-01  0.382328D-01
      6 -0.461493D-04  0.172398D-04 -0.348357D-04  0.749783D-02  0.533259D-02
      7  0.276098D-03  0.213016D-02  0.143958D-02 -0.315491D-01 -0.115791D-01
      8 -0.308484D-03  0.537586D-02  0.266722D-02 -0.175354D-01 -0.248124D-01
      9  0.288782D-03 -0.807586D-03 -0.167748D-03 -0.527006D-02 -0.448346D-02
     10 -0.183921D-01 -0.970728D-02  0.840009D-02  0.247007D-02 -0.126369D-02
     11 -0.889127D-02 -0.171123D-01  0.341265D-02  0.297162D-02 -0.144072D-02
     12  0.151103D-01  0.874521D-02 -0.263637D-01  0.340301D-03 -0.205236D-03
     13  0.307372D-02 -0.379389D-03 -0.356539D-02 -0.264082D-02  0.380570D-02
     14 -0.684604D-04  0.245919D-03  0.544542D-04 -0.639133D-03  0.103457D-02
     15 -0.583635D-05 -0.284935D-04  0.984020D-05 -0.157361D-02  0.207710D-02
     16 -0.109811D-05 -0.715675D-04  0.880946D-05 -0.843257D-02 -0.328889D-02
     17  0.000000D+00 -0.463039D-04  0.569968D-05  0.290786D-02 -0.129737D-01
     18  0.000000D+00  0.602838D-05  0.000000D+00 -0.968880D-03 -0.277106D-02
     19 -0.108425D-01 -0.633407D-03  0.451153D-02 -0.102655D-04 -0.260386D-04
     20  0.557102D-03 -0.117015D-02  0.191807D-02 -0.664171D-05 -0.168468D-04
     21 -0.457901D-02  0.173563D-03 -0.129720D-01  0.000000D+00  0.219332D-05
                6             7             8             9            10 
      6  0.265475D-01
      7 -0.226686D-02  0.416258D-01
      8 -0.164627D-02  0.184891D-01  0.276281D-01
      9 -0.169803D-01 -0.268513D-02  0.734831D-02  0.239173D-01
     10 -0.339810D-02 -0.112707D-01 -0.149944D-03  0.899150D-02  0.294192D-01
     11 -0.425306D-02 -0.666077D-02 -0.122523D-01  0.189815D-03  0.131105D-01
     12 -0.403590D-03  0.348751D-02 -0.662113D-02 -0.104296D-01 -0.167725D-01
     13  0.200427D-02 -0.269413D-04  0.143962D-04  0.357923D-04  0.000000D+00
     14  0.413772D-03 -0.683371D-04  0.365163D-04  0.907878D-04  0.215013D-04
     15  0.131405D-02  0.877610D-04 -0.468955D-04 -0.116593D-03 -0.264666D-05
     16 -0.382442D-02  0.992655D-03 -0.527531D-03 -0.132478D-02  0.196250D-03
     17  0.114093D-03 -0.246651D-02  0.408231D-02 -0.245523D-02 -0.104867D-03
     18 -0.104401D-01 -0.102630D-03 -0.168638D-02  0.374693D-02 -0.260723D-03
     19  0.334397D-04 -0.478295D-04  0.178674D-04 -0.361040D-04 -0.242305D-02
     20  0.216353D-04  0.155482D-03 -0.580826D-04  0.117365D-03 -0.190620D-02
     21 -0.281674D-05  0.397602D-04 -0.148530D-04  0.300129D-04  0.304241D-02
               11            12            13            14            15 
     11  0.305295D-01
     12 -0.173542D-04  0.345117D-01
     13 -0.107245D-05  0.000000D+00  0.224038D-01
     14 -0.698954D-04 -0.178738D-04 -0.164671D-01  0.298346D-01
     15  0.860364D-05  0.220014D-05  0.966663D-03  0.737499D-02  0.290139D-01
     16 -0.355261D-03  0.258492D-03 -0.123246D-01  0.138375D-01  0.377800D-02
     17  0.189836D-03 -0.138127D-03  0.899844D-02 -0.253753D-01 -0.127626D-01
     18  0.471975D-03 -0.343414D-03 -0.253213D-02 -0.695023D-02 -0.168548D-01
     19 -0.173721D-03 -0.242380D-02 -0.104856D-01  0.338402D-02 -0.325033D-02
     20  0.155934D-03 -0.174549D-02  0.402905D-02 -0.570641D-02  0.337730D-02
     21  0.187375D-03  0.302640D-02  0.309108D-02 -0.965900D-03 -0.133686D-01
               16            17            18            19            20 
     16  0.184960D-01
     17 -0.823452D-02  0.322351D-01
     18  0.941605D-03  0.154633D-01  0.233479D-01
     19  0.107334D-02 -0.109970D-02  0.292267D-02  0.227358D-01
     20 -0.135977D-02  0.188802D-02 -0.453367D-02 -0.146902D-02  0.490754D-02
     21  0.162302D-03 -0.227167D-03  0.544183D-03 -0.175740D-02  0.844788D-03
               21 
     21  0.227429D-01
 Leave Link  716 at Sun Dec  3 21:17:25 2023, MaxMem=  1879048192 cpu:               0.4 elap:               0.0
 (Enter /home/sekinelabo/g16/l103.exe)

 GradGradGradGradGradGradGradGradGradGradGradGradGradGradGradGradGradGrad
 Berny optimization.
 Search for a local minimum.
 Step number   1 out of a maximum of    2
 All quantities printed in internal units (Hartrees-Bohrs-Radians)
 Second derivative matrix not updated -- first step.
 ITU=  0
     Eigenvalues ---    0.00053   0.00620   0.00757   0.01129   0.01271
     Eigenvalues ---    0.01762   0.02396   0.03606   0.03810   0.04242
     Eigenvalues ---    0.04653   0.05489   0.08329   0.09299   0.10235
 Quadratic step=3.768D-01 exceeds max=3.000D-01 adjusted using Lamda=-2.861D-03.
 Angle between NR and scaled steps=   8.27 degrees.
 Angle between quadratic step and forces=  44.24 degrees.
 Linear search not attempted -- first point.
 B after Tr=    -0.000000    0.000000    0.000000
         Rot=    1.000000    0.000000   -0.000000   -0.000000 Ang=   0.00 deg.
 Variable       Old X    -DE/DX   Delta X   Delta X   Delta X     New X
                                 (Linear)    (Quad)   (Total)
    X1       23.13818   0.00444   0.00000   0.12480   0.12480  23.26298
    Y1       21.93764   0.00133   0.00000   0.03538   0.03538  21.97302
    Z1       15.37262  -0.00260   0.00000   0.03024   0.03024  15.40286
    X2       20.16697   0.00720   0.00000   0.09378   0.09378  20.26075
    Y2       25.41644   0.00208   0.00000   0.01533   0.01533  25.43177
    Z2       26.26757   0.00166   0.00000   0.04033   0.04033  26.30790
    X3       16.18137  -0.00542   0.00000  -0.03437  -0.03437  16.14699
    Y3       22.02457  -0.00371   0.00000  -0.01818  -0.01818  22.00638
    Z3       24.63182  -0.00149   0.00000   0.01579   0.01579  24.64762
    X4       19.53315  -0.00138   0.00000   0.04938   0.04938  19.58253
    Y4       19.86915   0.00028   0.00000   0.02057   0.02057  19.88972
    Z4       19.12478   0.00431   0.00000   0.09894   0.09894  19.22372
    X5       28.76654   0.00010   0.00000  -0.09766  -0.09766  28.66889
    Y5       23.31601  -0.00245   0.00000  -0.05348  -0.05348  23.26253
    Z5       27.27196  -0.00522   0.00000  -0.15618  -0.15618  27.11578
    X6       26.16231  -0.00270   0.00000  -0.06444  -0.06444  26.09787
    Y6       27.67939   0.00299   0.00000   0.01061   0.01061  27.69000
    Z6       29.87014   0.00188   0.00000  -0.03105  -0.03105  29.83910
    X7       28.73347  -0.00224   0.00000  -0.07149  -0.07149  28.66198
    Y7       22.43899  -0.00052   0.00000  -0.01022  -0.01022  22.42876
    Z7       20.14297   0.00147   0.00000   0.00192   0.00192  20.14489
         Item               Value     Threshold  Converged?
 Maximum Force            0.007204     0.000450     NO 
 RMS     Force            0.003189     0.000300     NO 
 Maximum Displacement     0.156179     0.001800     NO 
 RMS     Displacement     0.065482     0.001200     NO 
 Predicted change in Energy=-1.699814D-03
 GradGradGradGradGradGradGradGradGradGradGradGradGradGradGradGradGradGrad

 Leave Link  103 at Sun Dec  3 21:17:25 2023, MaxMem=  1879048192 cpu:               0.2 elap:               0.0
 (Enter /home/sekinelabo/g16/l9999.exe)
 1\1\GINC-SEKINELABO-XA7R-R37\Force\UB3LYP\6-311+G(d)\Na7(2)\SEKINELABO
 \03-Dec-2023\0\\#P B3LYP/6-311+g(d) force\\DPGEN\\0,2\Na,12.2442,11.60
 89,8.13484\Na,10.6719,13.4498,13.9002\Na,8.56281,11.6549,13.0346\Na,10
 .3365,10.5143,10.1204\Na,15.2226,12.3383,14.4317\Na,13.8445,14.6473,15
 .8066\Na,15.2051,11.8742,10.6592\\Version=ES64L-G16RevB.01\State=2-A\H
 F=-1136.1100559\S2=0.783135\S2-1=0.\S2A=0.750613\RMSD=2.529e-09\RMSF=3
 .189e-03\Dipole=-0.1481624,0.059573,0.1053206\Quadrupole=-0.0779413,0.
 3602865,-0.2823453,1.7628989,0.4570052,0.1033828\PG=C01 [X(Na7)]\\@


 TIME GOES, YOU SAY?  AH NO!
 ALAS, TIME STAYS, WE GO.
    -- A. DOBSON (1840-1921)
 Job cpu time:       0 days  0 hours  3 minutes 52.5 seconds.
 Elapsed time:       0 days  0 hours  0 minutes 19.9 seconds.
 File lengths (MBytes):  RWF=     32 Int=      0 D2E=      0 Chk=      4 Scr=      1
 Normal termination of Gaussian 16 at Sun Dec  3 21:17:25 2023.
