ITEM: TIMESTEP
10030
ITEM: NUMBER OF ATOMS
7
ITEM: BOX BOUNDS xy xz yz ff ff ff
0.0000000000000000e+00 3.0693000068800000e+01 0.0000000000000000e+00
0.0000000000000000e+00 3.0693000068800000e+01 0.0000000000000000e+00
0.0000000000000000e+00 3.0693000068800000e+01 0.0000000000000000e+00
ITEM: ATOMS id type x y z fx fy fz
5 1 17.8471 15.1368 10.9553 -0.0636308 -0.0414309 -0.00967982
4 1 14.6925 13.98 11.9619 0.0540989 0.106248 0.0982404
7 1 16.7247 16.7569 13.62 -0.0608452 -0.0436413 -0.0795915
2 1 13.6409 13.8441 18.6161 0.0726576 0.152344 -0.0743726
3 1 12.9045 14.9977 15.3619 0.12853 -0.0474245 -0.0467253
6 1 15.8864 16.4336 16.7844 -0.0862479 -0.0639328 0.11573
1 1 15.7294 16.2763 20.1259 -0.0445622 -0.0621625 -0.00360074
