ITEM: TIMESTEP
13330
ITEM: NUMBER OF ATOMS
7
ITEM: BOX BOUNDS xy xz yz ff ff ff
0.0000000000000000e+00 3.0693000068800000e+01 0.0000000000000000e+00
0.0000000000000000e+00 3.0693000068800000e+01 0.0000000000000000e+00
0.0000000000000000e+00 3.0693000068800000e+01 0.0000000000000000e+00
ITEM: ATOMS id type x y z fx fy fz
1 1 12.5027 11.1094 14.4655 0.219518 0.246537 -0.0757455
5 1 15.0907 12.5581 11.8806 -0.143445 -0.032085 0.218092
4 1 16.9639 15.0958 13.1902 -0.0424583 -0.0485951 -0.0167452
6 1 17.1776 17.2619 15.7485 -0.112538 0.0255056 0.141651
2 1 14.1374 14.2704 15.5602 0.0160943 -0.0398612 -0.117984
7 1 14.1418 18.4304 17.5569 0.189405 -0.121344 -0.024591
3 1 17.4114 18.6995 19.0236 -0.126576 -0.0301575 -0.124678
