ITEM: TIMESTEP
16370
ITEM: NUMBER OF ATOMS
7
ITEM: BOX BOUNDS xy xz yz ff ff ff
0.0000000000000000e+00 3.0693000068800000e+01 0.0000000000000000e+00
0.0000000000000000e+00 3.0693000068800000e+01 0.0000000000000000e+00
0.0000000000000000e+00 3.0693000068800000e+01 0.0000000000000000e+00
ITEM: ATOMS id type x y z fx fy fz
3 1 12.822 16.2259 14.2673 -0.0673826 -0.179654 -0.154554
1 1 13.9977 11.8117 14.7841 2.60691e-05 0.0882223 -0.0424289
7 1 15.2993 18.5754 14.551 0.195044 0.103342 -0.164232
5 1 16.842 13.8314 13.9324 -0.00130485 0.0720792 0.00411724
4 1 15.6759 13.5251 17.0829 0.00643446 0.114422 0.051128
6 1 18.4625 16.494 15.8805 -0.227263 -0.0544276 -0.05015
2 1 14.3261 16.962 16.9272 0.094446 -0.143983 0.356119
