ITEM: TIMESTEP
16400
ITEM: NUMBER OF ATOMS
7
ITEM: BOX BOUNDS xy xz yz ff ff ff
0.0000000000000000e+00 3.0693000068800000e+01 0.0000000000000000e+00
0.0000000000000000e+00 3.0693000068800000e+01 0.0000000000000000e+00
0.0000000000000000e+00 3.0693000068800000e+01 0.0000000000000000e+00
ITEM: ATOMS id type x y z fx fy fz
3 1 12.7153 15.8397 14.2829 0.0287823 -0.0959389 -0.115562
1 1 13.9021 12.094 14.6442 0.0201939 0.122406 -0.00204791
7 1 15.8582 18.8643 14.6161 -0.0120402 -0.155307 0.0708848
5 1 16.8912 13.7141 13.827 -0.0277956 0.0583204 0.109764
4 1 15.5789 13.6384 17.3337 0.0531778 0.00357959 -0.0883807
6 1 18.3591 16.5863 15.7893 -0.184707 -0.0493224 -0.0559244
2 1 14.1207 16.6887 16.9324 0.122389 0.116262 0.0812666
