ITEM: TIMESTEP
18930
ITEM: NUMBER OF ATOMS
7
ITEM: BOX BOUNDS xy xz yz ff ff ff
0.0000000000000000e+00 3.0693000068800000e+01 0.0000000000000000e+00
0.0000000000000000e+00 3.0693000068800000e+01 0.0000000000000000e+00
0.0000000000000000e+00 3.0693000068800000e+01 0.0000000000000000e+00
ITEM: ATOMS id type x y z fx fy fz
5 1 12.5617 13.1125 13.4134 -0.044483 -0.100304 -0.0344463
1 1 14.7012 14.9459 14.9153 0.074322 0.074254 0.0678697
2 1 18.1985 18.2204 12.5812 -0.0912351 0.0220273 0.123901
7 1 16.3219 19.4039 15.106 0.0558901 -0.0829372 -0.10016
3 1 14.2667 11.3132 16.0248 -0.0446734 0.0569818 -0.0343396
4 1 14.624 13.7564 18.3867 0.0812906 0.0705647 -0.0683613
6 1 16.7514 16.6732 16.9981 -0.0311113 -0.0405862 0.0455359
