ITEM: TIMESTEP
19130
ITEM: NUMBER OF ATOMS
7
ITEM: BOX BOUNDS xy xz yz ff ff ff
0.0000000000000000e+00 3.0693000068800000e+01 0.0000000000000000e+00
0.0000000000000000e+00 3.0693000068800000e+01 0.0000000000000000e+00
0.0000000000000000e+00 3.0693000068800000e+01 0.0000000000000000e+00
ITEM: ATOMS id type x y z fx fy fz
5 1 11.8249 12.8228 13.3005 0.0786542 -0.0353485 0.0427664
1 1 13.4573 15.4814 14.3506 -0.0120965 0.0365192 0.048943
2 1 19.5174 17.1381 14.212 -0.141886 0.00805784 0.123159
7 1 15.1123 18.2475 15.0771 0.113984 -0.0163753 0.0161602
3 1 14.9491 12.5624 15.4336 -0.0641505 -0.0506865 -0.0499348
4 1 15.0601 14.6377 18.0119 -0.0605479 0.0154226 -0.026275
6 1 17.5044 16.5357 17.0399 0.0860431 0.0424106 -0.154819
