ITEM: TIMESTEP
20260
ITEM: NUMBER OF ATOMS
7
ITEM: BOX BOUNDS xy xz yz ff ff ff
0.0000000000000000e+00 3.0693000068800000e+01 0.0000000000000000e+00
0.0000000000000000e+00 3.0693000068800000e+01 0.0000000000000000e+00
0.0000000000000000e+00 3.0693000068800000e+01 0.0000000000000000e+00
ITEM: ATOMS id type x y z fx fy fz
5 1 14.4425 13.1874 12.3841 0.000385104 0.0470389 0.0415659
2 1 16.6423 13.5721 15.0189 0.0214973 0.0490844 -0.0146309
1 1 15.2883 16.5476 13.4534 0.00289268 0.0155079 0.0116814
7 1 14.0669 17.7705 16.9934 0.124394 -0.151705 -0.0731588
3 1 13.1966 14.5737 15.3807 0.0280808 0.000272456 0.0789247
6 1 16.2522 14.6236 18.2 -0.0949021 0.106265 -0.0766386
4 1 17.5367 17.1505 15.9949 -0.0823478 -0.0664635 0.0322562
