ITEM: TIMESTEP
20630
ITEM: NUMBER OF ATOMS
7
ITEM: BOX BOUNDS xy xz yz ff ff ff
0.0000000000000000e+00 3.0693000068800000e+01 0.0000000000000000e+00
0.0000000000000000e+00 3.0693000068800000e+01 0.0000000000000000e+00
0.0000000000000000e+00 3.0693000068800000e+01 0.0000000000000000e+00
ITEM: ATOMS id type x y z fx fy fz
5 1 15.9781 13.6909 11.3039 -0.104162 0.0779073 -0.0202945
2 1 16.1308 13.5856 14.4474 -0.101608 0.125281 0.190201
1 1 13.2428 15.9043 13.09 0.239028 -0.137717 -0.197744
7 1 16.3686 17.5492 16.4938 -0.247804 -0.104036 -0.104187
3 1 12.4619 16.247 16.0137 0.088943 -0.0329414 0.261025
6 1 14.4926 13.945 18.082 0.048244 0.147591 -0.195201
4 1 18.7506 16.5034 17.9946 0.0773598 -0.0760855 0.0661998
