ITEM: TIMESTEP
25620
ITEM: NUMBER OF ATOMS
7
ITEM: BOX BOUNDS xy xz yz ff ff ff
0.0000000000000000e+00 3.0693000068800000e+01 0.0000000000000000e+00
0.0000000000000000e+00 3.0693000068800000e+01 0.0000000000000000e+00
0.0000000000000000e+00 3.0693000068800000e+01 0.0000000000000000e+00
ITEM: ATOMS id type x y z fx fy fz
5 1 17.0563 16.2914 16.2853 -0.0295373 -0.0673339 0.000981147
7 1 15.7202 14.592 13.4352 0.0928969 -0.0729044 0.13132
6 1 12.7133 15.9277 13.2192 -0.295257 -0.0740072 -0.327623
2 1 15.0509 18.151 13.5863 0.144357 0.0625499 0.0620102
1 1 13.579 16.1348 16.0698 0.0933023 -0.0232258 0.298967
4 1 15.0274 13.2711 17.5964 0.0184718 0.111346 -0.107978
3 1 18.2784 13.0574 17.2333 -0.0242338 0.0635758 -0.0576775
