ITEM: TIMESTEP
26180
ITEM: NUMBER OF ATOMS
7
ITEM: BOX BOUNDS xy xz yz ff ff ff
0.0000000000000000e+00 3.0693000068800000e+01 0.0000000000000000e+00
0.0000000000000000e+00 3.0693000068800000e+01 0.0000000000000000e+00
0.0000000000000000e+00 3.0693000068800000e+01 0.0000000000000000e+00
ITEM: ATOMS id type x y z fx fy fz
7 1 14.8887 13.9665 13.8302 -0.170901 0.00151176 -0.224721
6 1 13.6483 16.8362 12.4163 -0.0010595 0.00320509 0.0286725
2 1 16.6822 16.9247 14.8768 0.0620231 -0.0712171 -0.173267
4 1 15.2097 13.6607 17.2301 -0.172586 -0.114928 0.179943
3 1 17.5038 13.2039 15.2887 0.38489 -0.0281869 -0.0317054
1 1 13.3951 16.1973 15.8853 -0.170903 0.0997749 -0.0269406
5 1 16.0976 16.6363 17.8981 0.0685357 0.10984 0.248019
