ITEM: TIMESTEP
26670
ITEM: NUMBER OF ATOMS
7
ITEM: BOX BOUNDS xy xz yz ff ff ff
0.0000000000000000e+00 3.0693000068800000e+01 0.0000000000000000e+00
0.0000000000000000e+00 3.0693000068800000e+01 0.0000000000000000e+00
0.0000000000000000e+00 3.0693000068800000e+01 0.0000000000000000e+00
ITEM: ATOMS id type x y z fx fy fz
7 1 14.5608 14.1891 13.5308 0.0659586 0.014781 0.111511
6 1 12.6937 16.902 13.3721 -0.0404008 0.0561019 -0.0600198
2 1 16.5703 16.6281 15.9314 0.036665 -0.0100749 -0.00435686
4 1 16.9367 13.4701 16.1417 0.0220165 -0.248467 0.0281477
3 1 18.5004 10.3761 16.8224 -0.0616019 0.122434 -0.0278725
1 1 15.0147 19.188 14.8641 -0.105355 0.108619 -0.027476
5 1 13.149 16.672 16.7631 0.0827176 -0.0433934 -0.0199339
