ITEM: TIMESTEP
4010
ITEM: NUMBER OF ATOMS
7
ITEM: BOX BOUNDS xy xz yz ff ff ff
0.0000000000000000e+00 3.0693000068800000e+01 0.0000000000000000e+00
0.0000000000000000e+00 3.0693000068800000e+01 0.0000000000000000e+00
0.0000000000000000e+00 3.0693000068800000e+01 0.0000000000000000e+00
ITEM: ATOMS id type x y z fx fy fz
1 1 13.1984 14.5028 16.362 -0.0496085 0.070466 -0.113629
6 1 16.1805 16.2841 14.7863 0.146553 -0.0810846 0.0996672
7 1 10.4439 15.0011 14.4485 0.111218 0.0691618 -0.00927438
2 1 15.8077 12.5452 15.9333 0.120749 0.10851 0.0279116
5 1 13.3909 17.0853 13.3644 -0.161648 -0.0989039 0.0667048
4 1 19.5867 17.3426 15.5833 -0.0433524 0.0918488 -0.0742531
3 1 18.8175 14.6643 16.9477 -0.123911 -0.159998 0.00287302
