ITEM: TIMESTEP
4170
ITEM: NUMBER OF ATOMS
7
ITEM: BOX BOUNDS xy xz yz ff ff ff
0.0000000000000000e+00 3.0693000068800000e+01 0.0000000000000000e+00
0.0000000000000000e+00 3.0693000068800000e+01 0.0000000000000000e+00
0.0000000000000000e+00 3.0693000068800000e+01 0.0000000000000000e+00
ITEM: ATOMS id type x y z fx fy fz
7 1 10.3853 15.1675 13.8223 -0.0481953 -0.0653995 0.0729096
5 1 13.101 16.7372 13.5498 0.100096 0.0568055 0.00344464
6 1 16.1047 16.5121 15.307 0.00921021 -0.0205665 0.00692141
1 1 13.0023 14.6333 16.3876 0.0151501 0.00470199 -0.0977572
2 1 16.143 13.0755 16.3094 -0.0514204 0.00127848 0.0258125
3 1 19.3557 13.9548 16.6388 -0.0150924 0.10562 -0.043507
4 1 19.3336 17.3452 15.4106 -0.00974861 -0.0824403 0.0321761
