ITEM: TIMESTEP
5890
ITEM: NUMBER OF ATOMS
7
ITEM: BOX BOUNDS xy xz yz ff ff ff
0.0000000000000000e+00 3.0693000068800000e+01 0.0000000000000000e+00
0.0000000000000000e+00 3.0693000068800000e+01 0.0000000000000000e+00
0.0000000000000000e+00 3.0693000068800000e+01 0.0000000000000000e+00
ITEM: ATOMS id type x y z fx fy fz
7 1 11.8036 14.7131 13.149 0.0392554 0.00206962 -0.039816
1 1 14.9907 15.2836 11.9094 -0.0314249 0.023995 0.14827
4 1 17.7004 14.6603 15.8545 0.0768922 -0.0227688 -0.250708
6 1 16.5938 17.345 14.2682 -0.0695799 0.00860805 -0.0194582
3 1 16.994 13.4103 18.5741 -0.00697017 -0.145843 0.212173
5 1 13.6029 15.5829 15.7787 -0.0602548 -0.0408356 -0.194761
2 1 15.7401 16.4302 17.8916 0.0520822 0.174775 0.1443
