ITEM: TIMESTEP
8040
ITEM: NUMBER OF ATOMS
7
ITEM: BOX BOUNDS xy xz yz ff ff ff
0.0000000000000000e+00 3.0693000068800000e+01 0.0000000000000000e+00
0.0000000000000000e+00 3.0693000068800000e+01 0.0000000000000000e+00
0.0000000000000000e+00 3.0693000068800000e+01 0.0000000000000000e+00
ITEM: ATOMS id type x y z fx fy fz
5 1 16.0659 14.8548 11.3579 0.133248 -0.0655641 0.0132339
4 1 16.9948 14.3841 14.9279 0.0230317 -0.152497 -0.202159
7 1 13.4772 16.006 12.5761 -0.0791769 0.0346641 0.125931
2 1 13.8909 13.9788 16.8998 0.0811259 0.0972108 -0.0118054
3 1 18.3589 14.0676 17.7404 -0.0156788 -0.0196728 0.0758947
1 1 15.2711 16.8945 15.566 -0.166539 0.173532 0.0596037
6 1 13.3666 17.2396 18.3574 0.0239898 -0.067673 -0.0606993
