
7 atoms
1 atom types
   0.0000000000   26.5189254073 xlo xhi
   0.0000000000   26.5189254073 ylo yhi
   0.0000000000   26.5189254073 zlo zhi
   0.0000000000    0.0000000000    0.0000000000 xy xz yz

Atoms # atomic

     1      1   14.2051044179   14.5886498465   13.5715744179
     2      1    9.8779244179   13.1901508465   11.5903554179
     3      1    9.6763354179   14.5107918465   14.2708244179
     4      1   11.9345724179   12.6243128465   13.6970594179
     5      1   14.0805604179   10.5487198465   14.0327954179
     6      1   15.8903624179   12.3648648465   12.4688414179
     7      1   17.1513794179   14.9887488465   13.1847884179
