
7 atoms
1 atom types
   0.0000000000   26.7661338437 xlo xhi
   0.0000000000   26.7661338437 ylo yhi
   0.0000000000   26.7661338437 zlo zhi
   0.0000000000    0.0000000000    0.0000000000 xy xz yz

Atoms # atomic

     1      1   13.8858162076   13.3678956362   12.1350747790
     2      1   13.1814812076   15.4829686362   14.1417827790
     3      1   15.9992262076   15.2382486362   13.1359767790
     4      1   16.2229632076   12.2933546362   13.6779027790
     5      1   13.6768862076   10.7145556362   13.5085667790
     6      1   11.6839602076   12.8800256362   14.1098267790
     7      1    9.0311352076   13.7044196362   12.9723377790
