
7 atoms
1 atom types
   0.0000000000   23.3300170619 xlo xhi
   0.0000000000   23.3300170619 ylo yhi
   0.0000000000   23.3300170619 zlo zhi
   0.0000000000    0.0000000000    0.0000000000 xy xz yz

Atoms # atomic

     1      1   11.6042911024   11.7257743881   10.0384112452
     2      1   11.7906351024    9.7304213881   11.6670282452
     3      1    9.1455571024   10.7963123881   11.6636012452
     4      1   11.6040081024   11.7260603881   13.2919412452
     5      1   14.1576241024   10.9195103881   11.6634462452
     6      1   13.0581561024   13.3353423881   11.6655212452
     7      1   10.2947881024   13.4216383881   11.6651102452
