
7 atoms
1 atom types
   0.0000000000   26.9405418560 xlo xhi
   0.0000000000   26.9405418560 ylo yhi
   0.0000000000   26.9405418560 zlo zhi
   0.0000000000    0.0000000000    0.0000000000 xy xz yz

Atoms # atomic

     1      1   15.5506102137   14.3246842137   12.4280550709
     2      1   13.5522012137   15.7189652137   14.1822450709
     3      1   17.1824832137   12.2240042137   13.8142110709
     4      1   14.4545812137   12.9270342137   14.8264230709
     5      1   13.2396492137   12.4351622137   12.1202610709
     6      1   11.1294662137   14.3778632137   13.0088270709
     7      1    9.1829052137   12.2841832137   13.9118740709
