
7 atoms
1 atom types
   0.0000000000   27.3071086696 xlo xhi
   0.0000000000   27.3071086696 ylo yhi
   0.0000000000   27.3071086696 zlo zhi
   0.0000000000    0.0000000000    0.0000000000 xy xz yz

Atoms # atomic

     1      1   17.3043779062   12.7994890491   13.2122609062
     2      1    9.0668049062   13.7099200491   12.8698959062
     3      1   11.1335799062   15.0802510491   14.5507369062
     4      1   11.6648059062   12.3321410491   13.4734669062
     5      1   14.5782309062   11.8062530491   13.9798489062
     6      1   15.6242069062   14.3837520491   15.1141699062
     7      1   16.2028739062   15.4630740491   12.3745009062
