
7 atoms
1 atom types
   0.0000000000   25.8495898829 xlo xhi
   0.0000000000   25.8495898829 ylo yhi
   0.0000000000   25.8495898829 zlo zhi
   0.0000000000    0.0000000000    0.0000000000 xy xz yz

Atoms # atomic

     1      1   14.2760932272   12.8880210843   11.4270887986
     2      1   12.7696082272   15.0474170843   12.8684997986
     3      1    9.8301872272   14.4439730843   12.9564797986
     4      1    9.7951062272   11.4425570843   12.9195807986
     5      1   12.7269302272   10.7960970843   12.9216597986
     6      1   14.2262532272   12.9259280843   14.4157647986
     7      1   16.8493862272   12.9295710843   12.9644907986
