
7 atoms
1 atom types
   0.0000000000   26.4995747811 xlo xhi
   0.0000000000   26.4995747811 ylo yhi
   0.0000000000   26.4995747811 zlo zhi
   0.0000000000    0.0000000000    0.0000000000 xy xz yz

Atoms # atomic

     1      1   12.3048435334   11.7866673905   14.5454945334
     2      1   13.8579005334   14.3461323905   14.7353875334
     3      1   17.2579995334   11.8937483905   12.8547095334
     4      1   14.3415425334   12.4624683905   12.4499405334
     5      1   13.2617255334   16.6117543905   12.8594595334
     6      1   11.7742705334   14.0144493905   12.6116195334
     7      1    9.9502295334   11.6332913905   12.6919005334
