
7 atoms
1 atom types
   0.0000000000   25.6892336612 xlo xhi
   0.0000000000   25.6892336612 ylo yhi
   0.0000000000   25.6892336612 zlo zhi
   0.0000000000    0.0000000000    0.0000000000 xy xz yz

Atoms # atomic

     1      1   11.1129809735   12.6618786878   14.2034871163
     2      1   12.4381449735   15.3296676878   13.8930071163
     3      1    9.5171059735   11.7424606878   11.8342731163
     4      1   11.7608609735   13.6961766878   11.4704311163
     5      1   14.6561939735    9.8967376878   13.3232301163
     6      1   13.9739299735   12.8221756878   13.3003971163
     7      1   16.4531009735   13.7632206878   11.8874921163
