
7 atoms
1 atom types
   0.0000000000   24.8559079582 xlo xhi
   0.0000000000   24.8559079582 ylo yhi
   0.0000000000   24.8559079582 zlo zhi
   0.0000000000    0.0000000000    0.0000000000 xy xz yz

Atoms # atomic

     1      1   12.9309116934   12.2420941219   10.6256838362
     2      1   12.8609676934   12.2526951219   14.2179398362
     3      1   15.0265276934   11.1301171219   12.4673548362
     4      1   14.4772496934   14.0551031219   12.4474558362
     5      1   11.5031176934   14.2200661219   12.3891998362
     6      1    9.0029706934   12.5682841219   12.4537498362
     7      1   11.1939326934   10.5273181219   12.3942938362
