
7 atoms
1 atom types
   0.0000000000   23.5070549850 xlo xhi
   0.0000000000   23.5070549850 ylo yhi
   0.0000000000   23.5070549850 zlo zhi
   0.0000000000    0.0000000000    0.0000000000 xy xz yz

Atoms # atomic

     1      1   11.8951784925   11.7564110639   10.2831274925
     2      1   14.0134674925   13.1826010639   11.7641344925
     3      1   14.0111394925   10.3224350639   11.7653124925
     4      1   11.8768794925   11.7540720639   13.2164944925
     5      1   10.7394464925    9.6925340639   11.7338914925
     6      1    9.0000864925   11.7527870639   11.7753394925
     7      1   10.7384944925   13.8138520639   11.7363924925
