
7 atoms
1 atom types
   0.0000000000   26.6104133302 xlo xhi
   0.0000000000   26.6104133302 ylo yhi
   0.0000000000   26.6104133302 zlo zhi
   0.0000000000    0.0000000000    0.0000000000 xy xz yz

Atoms # atomic

     1      1   14.5166045223   12.4720050937   11.8054026651
     2      1   13.0260995223   10.8073540937   13.8099126651
     3      1    9.0972765223   13.2271530937   12.3985446651
     4      1   10.8857555223   14.6300030937   14.3591316651
     5      1   13.7282845223   13.6592210937   14.4352486651
     6      1   16.6138055223   13.0390300937   13.8764816651
     7      1   15.2686205223   15.3016800937   12.4517246651
