
7 atoms
1 atom types
   0.0000000000   27.9734252783 xlo xhi
   0.0000000000   27.9734252783 ylo yhi
   0.0000000000   27.9734252783 zlo zhi
   0.0000000000    0.0000000000    0.0000000000 xy xz yz

Atoms # atomic

     1      1   15.3286243534   15.5995472106   11.5237969249
     2      1   14.4304193534   17.1364792106   16.0148469249
     3      1   17.1400463534   10.9572112106   14.8291899249
     4      1   16.2650803534   13.4181112106   13.3557099249
     5      1   13.7927743534   14.9834872106   14.0235069249
     6      1   11.8031713534   12.8647582106   14.7757749249
     7      1    9.1468723534   12.9473942106   13.3841629249
