
7 atoms
1 atom types
   0.0000000000   24.7676518948 xlo xhi
   0.0000000000   24.7676518948 ylo yhi
   0.0000000000   24.7676518948 zlo zhi
   0.0000000000    0.0000000000    0.0000000000 xy xz yz

Atoms # atomic

     1      1   13.3263472331   10.6548976617   12.5025880903
     2      1   13.3203962331   13.1436976617   10.8287220903
     3      1   15.7676482331   12.3888036617   12.3837680903
     4      1   13.3215802331   13.3490046617   13.8196130903
     5      1   10.3154032331   13.3763786617   13.8032190903
     6      1   10.3160522331   13.1155466617   10.8146840903
     7      1   10.3193542331   10.6584526617   12.5341870903
