
7 atoms
1 atom types
   0.0000000000   26.5534129008 xlo xhi
   0.0000000000   26.5534129008 ylo yhi
   0.0000000000   26.5534129008 zlo zhi
   0.0000000000    0.0000000000    0.0000000000 xy xz yz

Atoms # atomic

     1      1   12.4673088789   11.0126961647   13.0316977361
     2      1   10.4539818789   12.4371781647   14.7401387361
     3      1   17.5426898789   13.5692861647   13.3541697361
     4      1   15.0377868789   12.1100641647   14.1232817361
     5      1   12.3385558789   12.9279291647   10.7291137361
     6      1   12.7404748789   13.9523021647   13.5216357361
     7      1   12.3561468789   16.9274891647   13.4369077361
