
7 atoms
1 atom types
   0.0000000000   23.2984630944 xlo xhi
   0.0000000000   23.2984630944 ylo yhi
   0.0000000000   23.2984630944 zlo zhi
   0.0000000000    0.0000000000    0.0000000000 xy xz yz

Atoms # atomic

     1      1   12.3938015472   10.4533619758   12.7181028329
     2      1   10.7682145472    9.9274679758   10.8357888329
     3      1    9.7093415472   12.5211609758   10.8013428329
     4      1   12.0065855472   13.4644389758   12.3125878329
     5      1   14.2963435472   11.6916169758   11.5521268329
     6      1   12.2071755472   11.9347619758   10.1334058329
     7      1   10.1631585472   11.5518119758   13.1912658329
