
7 atoms
1 atom types
   0.0000000000   25.4540233190 xlo xhi
   0.0000000000   25.4540233190 ylo yhi
   0.0000000000   25.4540233190 zlo zhi
   0.0000000000    0.0000000000    0.0000000000 xy xz yz

Atoms # atomic

     1      1   13.7404329452   11.2653276595   12.3074088024
     2      1   12.7249349452   12.6575556595   14.7672278024
     3      1   16.4436249452   12.5393376595   12.5216338024
     4      1   13.9793009452   14.2392326595   12.5504548024
     5      1   11.2259799452   15.1095636595   11.7314608024
     6      1   10.0755219452   12.8676336595   13.3641398024
     7      1   10.8992859452   10.4104306595   11.8467558024
