1.787719999999999843e+01 1.274610000000000021e+01 1.590160000000000018e+01 2.063739999999999952e+01 1.459590000000000032e+01 1.458680000000000021e+01 1.814770000000000039e+01 1.717030000000000101e+01 1.404609999999999914e+01 1.637490000000000023e+01 1.788459999999999894e+01 1.722899999999999920e+01 1.426829999999999998e+01 1.570759999999999934e+01 1.566789999999999949e+01 1.133549999999999969e+01 1.418960000000000043e+01 1.413530000000000086e+01 8.784459999999999269e+00 1.513139999999999930e+01 1.585870000000000068e+01
1.779970000000000141e+01 1.279819999999999958e+01 1.585490000000000066e+01 2.061280000000000001e+01 1.452870000000000061e+01 1.454620000000000068e+01 1.814499999999999957e+01 1.714270000000000138e+01 1.401270000000000060e+01 1.640850000000000009e+01 1.797469999999999857e+01 1.730849999999999866e+01 1.440750000000000064e+01 1.574360000000000070e+01 1.568950000000000067e+01 1.130969999999999942e+01 1.412100000000000044e+01 1.414700000000000024e+01 8.742190000000000794e+00 1.511650000000000027e+01 1.586660000000000004e+01
1.774589999999999890e+01 1.286730000000000018e+01 1.579780000000000051e+01 2.054639999999999844e+01 1.446990000000000087e+01 1.451420000000000066e+01 1.815490000000000137e+01 1.710109999999999886e+01 1.400549999999999962e+01 1.642289999999999850e+01 1.802969999999999828e+01 1.734299999999999997e+01 1.457130000000000081e+01 1.579800000000000004e+01 1.573320000000000007e+01 1.126779999999999937e+01 1.406509999999999927e+01 1.417070000000000007e+01 8.716260000000000119e+00 1.509430000000000049e+01 1.586100000000000065e+01
1.771590000000000131e+01 1.294899999999999984e+01 1.573090000000000011e+01 2.044219999999999970e+01 1.441840000000000011e+01 1.448889999999999922e+01 1.817010000000000147e+01 1.704510000000000147e+01 1.402599999999999980e+01 1.642160000000000153e+01 1.805330000000000013e+01 1.733620000000000161e+01 1.475559999999999938e+01 1.587310000000000088e+01 1.579310000000000080e+01 1.121110000000000007e+01 1.402289999999999992e+01 1.420930000000000071e+01 8.709039999999999893e+00 1.506370000000000076e+01 1.584110000000000085e+01
1.753340000000000032e+01 1.321770000000000067e+01 1.549050000000000082e+01 2.007659999999999911e+01 1.429770000000000074e+01 1.431990000000000052e+01 1.819310000000000116e+01 1.678979999999999961e+01 1.430620000000000047e+01 1.654449999999999932e+01 1.833920000000000172e+01 1.729220000000000113e+01 1.522509999999999941e+01 1.585989999999999966e+01 1.581060000000000088e+01 1.116269999999999918e+01 1.400060000000000038e+01 1.447869999999999990e+01 8.690160000000000551e+00 1.492050000000000054e+01 1.572739999999999938e+01
1.739839999999999876e+01 1.322600000000000087e+01 1.546819999999999951e+01 2.012879999999999825e+01 1.427360000000000007e+01 1.422100000000000009e+01 1.817470000000000141e+01 1.676050000000000040e+01 1.440259999999999962e+01 1.660790000000000077e+01 1.847950000000000159e+01 1.730110000000000170e+01 1.520950000000000024e+01 1.576660000000000039e+01 1.575960000000000072e+01 1.127710000000000079e+01 1.401820000000000022e+01 1.454989999999999917e+01 8.629089999999999705e+00 1.490109999999999957e+01 1.572330000000000005e+01
1.725690000000000168e+01 1.321889999999999965e+01 1.544919999999999938e+01 2.021399999999999864e+01 1.423659999999999926e+01 1.411129999999999995e+01 1.814379999999999882e+01 1.675359999999999872e+01 1.451169999999999938e+01 1.666659999999999897e+01 1.860640000000000072e+01 1.729250000000000043e+01 1.516290000000000049e+01 1.568050000000000033e+01 1.571310000000000073e+01 1.141009999999999991e+01 1.405010000000000048e+01 1.463119999999999976e+01 8.571239999999999526e+00 1.487940000000000040e+01 1.571649999999999991e+01
1.712709999999999866e+01 1.320550000000000068e+01 1.542670000000000030e+01 2.030320000000000036e+01 1.419539999999999935e+01 1.400140000000000029e+01 1.810409999999999897e+01 1.675700000000000145e+01 1.463790000000000013e+01 1.672360000000000113e+01 1.871290000000000120e+01 1.726180000000000092e+01 1.510229999999999961e+01 1.560919999999999952e+01 1.567340000000000089e+01 1.153500000000000014e+01 1.409280000000000044e+01 1.472119999999999962e+01 8.530239999999999156e+00 1.485270000000000046e+01 1.570309999999999917e+01
1.701950000000000074e+01 1.318829999999999991e+01 1.539760000000000062e+01 2.037719999999999843e+01 1.416060000000000052e+01 1.389910000000000068e+01 1.806459999999999866e+01 1.675939999999999941e+01 1.477839999999999954e+01 1.678010000000000090e+01 1.879380000000000095e+01 1.720779999999999887e+01 1.503320000000000078e+01 1.555969999999999942e+01 1.564339999999999975e+01 1.164230000000000054e+01 1.414160000000000039e+01 1.481550000000000011e+01 8.508549999999999613e+00 1.482199999999999918e+01 1.568379999999999974e+01
1.694490000000000052e+01 1.316060000000000052e+01 1.535919999999999952e+01 2.042889999999999873e+01 1.413480000000000025e+01 1.380899999999999928e+01 1.803419999999999845e+01 1.675700000000000145e+01 1.492420000000000080e+01 1.683409999999999940e+01 1.884949999999999903e+01 1.713510000000000133e+01 1.495020000000000060e+01 1.554379999999999917e+01 1.562759999999999927e+01 1.172710000000000008e+01 1.419110000000000049e+01 1.491009999999999991e+01 8.506090000000000373e+00 1.478870000000000040e+01 1.566029999999999944e+01
1.689989999999999881e+01 1.312969999999999970e+01 1.531109999999999971e+01 2.045820000000000149e+01 1.411369999999999969e+01 1.373220000000000063e+01 1.802080000000000126e+01 1.674729999999999919e+01 1.506400000000000006e+01 1.688040000000000163e+01 1.888639999999999830e+01 1.705389999999999873e+01 1.484629999999999939e+01 1.555320000000000036e+01 1.562550000000000061e+01 1.179969999999999963e+01 1.424089999999999989e+01 1.500450000000000017e+01 8.520189999999999486e+00 1.475430000000000064e+01 1.563429999999999964e+01
1.686349999999999838e+01 1.310330000000000084e+01 1.519089999999999918e+01 2.044630000000000081e+01 1.408779999999999966e+01 1.362129999999999974e+01 1.808070000000000022e+01 1.665129999999999910e+01 1.527779999999999916e+01 1.692070000000000007e+01 1.894910000000000139e+01 1.690950000000000131e+01 1.465949999999999953e+01 1.563809999999999967e+01 1.566719999999999935e+01 1.187589999999999968e+01 1.430920000000000059e+01 1.517820000000000036e+01 8.578969999999999985e+00 1.468670000000000009e+01 1.558060000000000045e+01
1.685770000000000124e+01 1.311829999999999963e+01 1.512020000000000053e+01 2.040439999999999898e+01 1.408120000000000083e+01 1.358730000000000082e+01 1.815159999999999840e+01 1.655480000000000018e+01 1.534869999999999912e+01 1.691019999999999968e+01 1.898750000000000071e+01 1.685200000000000031e+01 1.462410000000000032e+01 1.571799999999999997e+01 1.571080000000000076e+01 1.186229999999999940e+01 1.431080000000000041e+01 1.525220000000000020e+01 8.615149999999999864e+00 1.465479999999999983e+01 1.555439999999999934e+01
1.685670000000000002e+01 1.316060000000000052e+01 1.504320000000000057e+01 2.033719999999999928e+01 1.407670000000000066e+01 1.356739999999999924e+01 1.823290000000000077e+01 1.643049999999999855e+01 1.540569999999999951e+01 1.688159999999999883e+01 1.902130000000000010e+01 1.679570000000000007e+01 1.464630000000000010e+01 1.582349999999999923e+01 1.576590000000000025e+01 1.181869999999999976e+01 1.428839999999999932e+01 1.531900000000000084e+01 8.651999999999999247e+00 1.462449999999999939e+01 1.552860000000000085e+01
1.686280000000000001e+01 1.323509999999999920e+01 1.496069999999999922e+01 2.024239999999999995e+01 1.407409999999999961e+01 1.356320000000000014e+01 1.830890000000000128e+01 1.628729999999999833e+01 1.545669999999999966e+01 1.683990000000000009e+01 1.903480000000000061e+01 1.673179999999999978e+01 1.472220000000000084e+01 1.594819999999999993e+01 1.582789999999999964e+01 1.176660000000000039e+01 1.424970000000000070e+01 1.538160000000000061e+01 8.682700000000000529e+00 1.459639999999999915e+01 1.550370000000000026e+01
1.687059999999999960e+01 1.333350000000000080e+01 1.487490000000000023e+01 2.012620000000000076e+01 1.407130000000000081e+01 1.357130000000000081e+01 1.838670000000000115e+01 1.614300000000000068e+01 1.550530000000000008e+01 1.678350000000000009e+01 1.901660000000000039e+01 1.665749999999999886e+01 1.481630000000000003e+01 1.607849999999999824e+01 1.589240000000000030e+01 1.173399999999999999e+01 1.421199999999999974e+01 1.544469999999999921e+01 8.708170000000000854e+00 1.457049999999999912e+01 1.547940000000000005e+01
1.686860000000000070e+01 1.343679999999999986e+01 1.478689999999999927e+01 2.000560000000000116e+01 1.405850000000000044e+01 1.357890000000000086e+01 1.846979999999999933e+01 1.602090000000000103e+01 1.556140000000000079e+01 1.671369999999999933e+01 1.897370000000000090e+01 1.657720000000000127e+01 1.491099999999999959e+01 1.620880000000000010e+01 1.595710000000000051e+01 1.173240000000000016e+01 1.417929999999999957e+01 1.550820000000000043e+01 8.724460000000000548e+00 1.454749999999999943e+01 1.545579999999999998e+01
1.683449999999999847e+01 1.351619999999999955e+01 1.469510000000000005e+01 1.990559999999999974e+01 1.402389999999999937e+01 1.356649999999999956e+01 1.856050000000000111e+01 1.595219999999999949e+01 1.564289999999999914e+01 1.663680000000000092e+01 1.891870000000000118e+01 1.649680000000000035e+01 1.500290000000000035e+01 1.634159999999999968e+01 1.602240000000000109e+01 1.175479999999999947e+01 1.414569999999999972e+01 1.556889999999999930e+01 8.730380000000000251e+00 1.452740000000000009e+01 1.543290000000000006e+01
1.676310000000000144e+01 1.356550000000000011e+01 1.460100000000000087e+01 1.983599999999999852e+01 1.396460000000000079e+01 1.352650000000000041e+01 1.865729999999999933e+01 1.594089999999999918e+01 1.575469999999999970e+01 1.657519999999999882e+01 1.888660000000000139e+01 1.642500000000000071e+01 1.506750000000000078e+01 1.644549999999999912e+01 1.608210000000000051e+01 1.179160000000000075e+01 1.411369999999999969e+01 1.562500000000000000e+01 8.734870000000000800e+00 1.450869999999999926e+01 1.541130000000000067e+01
1.667299999999999827e+01 1.360440000000000005e+01 1.451280000000000037e+01 1.978709999999999880e+01 1.389289999999999914e+01 1.347330000000000005e+01 1.874459999999999837e+01 1.595749999999999957e+01 1.587470000000000070e+01 1.655539999999999878e+01 1.891430000000000078e+01 1.636830000000000140e+01 1.508380000000000010e+01 1.647830000000000084e+01 1.612940000000000040e+01 1.183440000000000047e+01 1.408799999999999919e+01 1.567520000000000024e+01 8.747239999999999682e+00 1.449019999999999975e+01 1.539179999999999993e+01
1.658449999999999847e+01 1.364610000000000056e+01 1.443670000000000009e+01 1.974340000000000117e+01 1.382440000000000069e+01 1.342839999999999989e+01 1.880959999999999965e+01 1.597569999999999979e+01 1.597550000000000026e+01 1.658200000000000074e+01 1.900049999999999883e+01 1.632590000000000074e+01 1.505589999999999939e+01 1.643809999999999860e+01 1.616600000000000037e+01 1.188509999999999955e+01 1.406850000000000023e+01 1.571829999999999927e+01 8.765079999999999316e+00 1.447209999999999930e+01 1.537470000000000070e+01
1.650910000000000011e+01 1.369570000000000043e+01 1.437459999999999916e+01 1.969300000000000139e+01 1.376829999999999998e+01 1.340509999999999913e+01 1.884140000000000015e+01 1.598859999999999992e+01 1.604380000000000095e+01 1.663919999999999888e+01 1.910660000000000025e+01 1.629309999999999903e+01 1.501329999999999920e+01 1.635829999999999984e+01 1.619579999999999842e+01 1.194260000000000055e+01 1.405300000000000082e+01 1.575319999999999965e+01 8.786899999999999267e+00 1.445500000000000007e+01 1.535989999999999966e+01
1.644269999999999854e+01 1.374660000000000082e+01 1.432199999999999918e+01 1.963200000000000145e+01 1.372690000000000055e+01 1.340579999999999927e+01 1.883380000000000010e+01 1.600840000000000174e+01 1.608289999999999864e+01 1.670720000000000027e+01 1.918299999999999983e+01 1.626589999999999847e+01 1.498969999999999914e+01 1.628190000000000026e+01 1.622210000000000107e+01 1.200319999999999965e+01 1.404030000000000022e+01 1.577870000000000061e+01 8.816940000000000666e+00 1.443839999999999968e+01 1.534810000000000052e+01
1.638009999999999877e+01 1.379470000000000063e+01 1.427660000000000018e+01 1.956210000000000093e+01 1.369989999999999952e+01 1.342830000000000013e+01 1.878810000000000002e+01 1.603770000000000095e+01 1.609639999999999915e+01 1.677740000000000009e+01 1.921499999999999986e+01 1.624360000000000070e+01 1.499269999999999925e+01 1.622469999999999857e+01 1.624630000000000152e+01 1.206709999999999994e+01 1.403139999999999965e+01 1.579509999999999970e+01 8.857969999999999899e+00 1.442220000000000013e+01 1.533919999999999995e+01
1.631629999999999825e+01 1.383730000000000082e+01 1.423649999999999949e+01 1.948710000000000164e+01 1.368560000000000088e+01 1.346920000000000073e+01 1.871349999999999980e+01 1.607219999999999871e+01 1.608599999999999852e+01 1.684669999999999845e+01 1.920880000000000010e+01 1.622660000000000124e+01 1.501309999999999967e+01 1.618850000000000122e+01 1.627090000000000103e+01 1.213649999999999984e+01 1.402710000000000079e+01 1.580310000000000059e+01 8.912209999999999965e+00 1.440600000000000058e+01 1.533309999999999995e+01
1.624650000000000105e+01 1.387149999999999928e+01 1.419989999999999952e+01 1.941029999999999944e+01 1.368219999999999992e+01 1.352580000000000027e+01 1.861759999999999948e+01 1.611499999999999844e+01 1.605320000000000036e+01 1.691920000000000002e+01 1.916720000000000113e+01 1.621499999999999986e+01 1.503350000000000009e+01 1.616989999999999839e+01 1.629879999999999995e+01 1.221710000000000029e+01 1.402999999999999936e+01 1.580310000000000059e+01 8.981370000000000076e+00 1.438979999999999926e+01 1.532980000000000054e+01
1.616740000000000066e+01 1.389600000000000080e+01 1.416549999999999976e+01 1.933579999999999899e+01 1.368619999999999948e+01 1.359309999999999974e+01 1.850140000000000029e+01 1.616839999999999833e+01 1.600140000000000029e+01 1.699909999999999854e+01 1.909680000000000177e+01 1.620830000000000126e+01 1.504819999999999958e+01 1.616679999999999851e+01 1.633380000000000010e+01 1.230739999999999945e+01 1.403780000000000072e+01 1.579449999999999932e+01 9.066179999999999239e+00 1.437349999999999994e+01 1.532890000000000086e+01
1.596279999999999966e+01 1.391510000000000069e+01 1.410710000000000086e+01 1.920670000000000144e+01 1.369190000000000040e+01 1.372899999999999920e+01 1.829749999999999943e+01 1.625159999999999982e+01 1.586200000000000010e+01 1.716000000000000014e+01 1.898110000000000142e+01 1.621079999999999899e+01 1.501370000000000005e+01 1.619849999999999923e+01 1.644079999999999941e+01 1.250929999999999964e+01 1.404509999999999970e+01 1.574329999999999963e+01 9.275579999999999714e+00 1.434220000000000006e+01 1.533249999999999957e+01
1.570829999999999949e+01 1.391249999999999964e+01 1.407530000000000037e+01 1.910210000000000008e+01 1.365910000000000046e+01 1.382850000000000001e+01 1.826500000000000057e+01 1.618530000000000157e+01 1.568950000000000067e+01 1.726239999999999952e+01 1.907410000000000139e+01 1.625179999999999936e+01 1.488129999999999953e+01 1.628079999999999927e+01 1.659459999999999980e+01 1.270599999999999952e+01 1.399709999999999965e+01 1.564910000000000068e+01 9.500590000000000757e+00 1.431649999999999956e+01 1.533670000000000044e+01
1.559200000000000053e+01 1.391699999999999982e+01 1.407000000000000028e+01 1.905809999999999960e+01 1.361509999999999998e+01 1.385410000000000075e+01 1.828969999999999985e+01 1.612300000000000111e+01 1.560379999999999967e+01 1.728900000000000148e+01 1.917419999999999902e+01 1.628839999999999932e+01 1.481830000000000069e+01 1.634740000000000038e+01 1.667299999999999827e+01 1.278009999999999913e+01 1.394159999999999933e+01 1.559960000000000058e+01 9.598399999999999821e+00 1.430710000000000015e+01 1.533660000000000068e+01
1.551900000000000013e+01 1.393420000000000059e+01 1.406150000000000055e+01 1.902230000000000132e+01 1.354480000000000040e+01 1.385929999999999929e+01 1.830839999999999890e+01 1.607290000000000063e+01 1.552790000000000070e+01 1.730170000000000030e+01 1.927250000000000085e+01 1.633249999999999957e+01 1.477480000000000082e+01 1.642820000000000036e+01 1.674020000000000152e+01 1.282319999999999993e+01 1.387229999999999919e+01 1.557010000000000005e+01 9.676080000000000680e+00 1.430039999999999978e+01 1.533399999999999963e+01
1.549840000000000018e+01 1.396809999999999974e+01 1.404570000000000007e+01 1.899340000000000117e+01 1.344660000000000011e+01 1.384500000000000064e+01 1.830770000000000053e+01 1.605020000000000024e+01 1.546620000000000061e+01 1.729749999999999943e+01 1.934619999999999962e+01 1.638200000000000145e+01 1.475929999999999964e+01 1.652179999999999893e+01 1.678829999999999956e+01 1.283970000000000056e+01 1.379589999999999961e+01 1.556980000000000075e+01 9.729549999999999699e+00 1.429679999999999929e+01 1.532850000000000001e+01
1.552289999999999992e+01 1.402480000000000082e+01 1.402800000000000047e+01 1.896630000000000038e+01 1.332939999999999969e+01 1.381840000000000046e+01 1.827990000000000137e+01 1.605780000000000030e+01 1.542079999999999984e+01 1.727570000000000050e+01 1.938560000000000016e+01 1.643540000000000134e+01 1.478449999999999953e+01 1.661520000000000152e+01 1.680180000000000007e+01 1.283939999999999948e+01 1.371589999999999954e+01 1.560159999999999947e+01 9.756809999999999761e+00 1.429679999999999929e+01 1.531949999999999967e+01
1.559450000000000003e+01 1.410670000000000002e+01 1.400680000000000014e+01 1.893530000000000157e+01 1.320730000000000004e+01 1.378850000000000087e+01 1.823120000000000118e+01 1.608670000000000044e+01 1.538400000000000034e+01 1.723999999999999844e+01 1.939020000000000010e+01 1.649070000000000036e+01 1.484270000000000067e+01 1.669859999999999900e+01 1.677840000000000131e+01 1.282360000000000078e+01 1.363460000000000072e+01 1.567040000000000077e+01 9.758160000000000167e+00 1.430129999999999946e+01 1.530669999999999931e+01
1.569549999999999912e+01 1.420800000000000018e+01 1.398980000000000068e+01 1.889570000000000149e+01 1.309329999999999927e+01 1.376200000000000045e+01 1.817510000000000048e+01 1.612689999999999912e+01 1.534800000000000075e+01 1.718779999999999930e+01 1.935630000000000095e+01 1.654749999999999943e+01 1.492300000000000004e+01 1.676950000000000074e+01 1.671989999999999910e+01 1.280610000000000070e+01 1.356209999999999916e+01 1.576759999999999984e+01 9.742419999999999192e+00 1.430930000000000035e+01 1.529069999999999929e+01
1.580090000000000039e+01 1.431540000000000035e+01 1.398249999999999993e+01 1.884629999999999939e+01 1.299160000000000004e+01 1.374009999999999998e+01 1.811720000000000041e+01 1.617569999999999908e+01 1.531489999999999974e+01 1.711959999999999837e+01 1.929149999999999920e+01 1.660620000000000118e+01 1.502260000000000062e+01 1.682499999999999929e+01 1.663040000000000163e+01 1.279640000000000022e+01 1.350820000000000043e+01 1.587809999999999988e+01 9.722530000000000783e+00 1.431809999999999938e+01 1.527340000000000053e+01
1.588940000000000019e+01 1.440709999999999980e+01 1.397259999999999991e+01 1.879210000000000136e+01 1.290029999999999966e+01 1.372109999999999985e+01 1.808350000000000080e+01 1.623199999999999932e+01 1.528509999999999991e+01 1.704919999999999902e+01 1.922579999999999956e+01 1.666890000000000072e+01 1.511139999999999972e+01 1.685800000000000054e+01 1.652819999999999823e+01 1.278909999999999947e+01 1.347819999999999929e+01 1.599210000000000065e+01 9.710789999999999367e+00 1.432409999999999961e+01 1.525750000000000028e+01
1.593529999999999980e+01 1.446380000000000088e+01 1.394849999999999923e+01 1.874050000000000082e+01 1.281770000000000032e+01 1.370449999999999946e+01 1.811120000000000019e+01 1.629439999999999955e+01 1.525600000000000023e+01 1.699480000000000146e+01 1.919369999999999976e+01 1.674050000000000082e+01 1.514710000000000001e+01 1.685549999999999926e+01 1.642989999999999995e+01 1.278149999999999942e+01 1.347610000000000063e+01 1.610010000000000119e+01 9.715120000000000644e+00 1.432440000000000069e+01 1.524590000000000067e+01
1.593299999999999983e+01 1.447669999999999924e+01 1.390540000000000020e+01 1.869279999999999831e+01 1.274859999999999971e+01 1.369229999999999947e+01 1.820939999999999870e+01 1.635790000000000077e+01 1.522369999999999912e+01 1.696509999999999962e+01 1.920670000000000144e+01 1.682460000000000022e+01 1.511309999999999931e+01 1.681469999999999843e+01 1.634250000000000114e+01 1.277319999999999922e+01 1.350350000000000072e+01 1.619640000000000057e+01 9.738899999999999224e+00 1.431739999999999924e+01 1.524060000000000059e+01
1.590349999999999930e+01 1.445599999999999952e+01 1.385340000000000060e+01 1.864649999999999963e+01 1.269699999999999918e+01 1.368500000000000050e+01 1.834059999999999846e+01 1.641610000000000014e+01 1.518650000000000055e+01 1.695850000000000080e+01 1.924869999999999948e+01 1.691760000000000019e+01 1.502929999999999922e+01 1.674530000000000030e+01 1.626340000000000074e+01 1.276520000000000010e+01 1.355920000000000059e+01 1.627700000000000102e+01 9.781900000000000261e+00 1.430320000000000036e+01 1.524249999999999972e+01
1.586749999999999972e+01 1.441600000000000037e+01 1.380690000000000062e+01 1.859909999999999997e+01 1.266760000000000019e+01 1.368309999999999960e+01 1.845899999999999963e+01 1.646649999999999991e+01 1.514809999999999945e+01 1.696689999999999898e+01 1.928709999999999880e+01 1.700769999999999982e+01 1.493019999999999925e+01 1.666460000000000008e+01 1.618909999999999982e+01 1.276350000000000051e+01 1.364090000000000025e+01 1.633990000000000009e+01 9.839389999999999858e+00 1.428289999999999971e+01 1.525070000000000014e+01
1.583120000000000083e+01 1.436529999999999951e+01 1.377529999999999966e+01 1.854929999999999879e+01 1.266210000000000058e+01 1.368640000000000079e+01 1.854870000000000019e+01 1.650769999999999982e+01 1.511069999999999958e+01 1.698019999999999996e+01 1.929660000000000153e+01 1.708459999999999823e+01 1.483689999999999998e+01 1.659319999999999951e+01 1.612150000000000105e+01 1.277849999999999930e+01 1.374200000000000088e+01 1.638520000000000110e+01 9.900679999999999481e+00 1.425849999999999973e+01 1.526179999999999914e+01
1.579049999999999976e+01 1.430480000000000018e+01 1.375740000000000052e+01 1.849930000000000163e+01 1.268019999999999925e+01 1.369510000000000005e+01 1.860069999999999979e+01 1.654240000000000066e+01 1.508019999999999960e+01 1.699699999999999989e+01 1.927130000000000010e+01 1.714450000000000074e+01 1.476389999999999958e+01 1.653709999999999880e+01 1.605959999999999965e+01 1.282080000000000020e+01 1.385839999999999961e+01 1.641720000000000113e+01 9.953229999999999578e+00 1.423119999999999941e+01 1.527139999999999986e+01
1.574590000000000067e+01 1.424329999999999963e+01 1.375389999999999979e+01 1.845609999999999928e+01 1.271860000000000035e+01 1.370950000000000024e+01 1.860529999999999973e+01 1.656530000000000058e+01 1.505519999999999925e+01 1.702270000000000039e+01 1.921519999999999939e+01 1.718819999999999837e+01 1.471759999999999913e+01 1.650489999999999924e+01 1.600120000000000076e+01 1.288679999999999914e+01 1.397780000000000022e+01 1.644020000000000081e+01 9.991149999999999309e+00 1.420040000000000013e+01 1.527730000000000032e+01
1.568999999999999950e+01 1.418560000000000088e+01 1.376280000000000037e+01 1.843019999999999925e+01 1.277260000000000062e+01 1.372979999999999912e+01 1.856090000000000018e+01 1.657420000000000115e+01 1.503480000000000061e+01 1.706070000000000064e+01 1.912999999999999901e+01 1.721610000000000085e+01 1.470850000000000080e+01 1.651899999999999835e+01 1.594340000000000046e+01 1.296550000000000047e+01 1.407850000000000001e+01 1.646130000000000138e+01 1.000970000000000049e+01 1.416549999999999976e+01 1.527720000000000056e+01
1.561979999999999968e+01 1.413020000000000032e+01 1.378209999999999980e+01 1.842610000000000170e+01 1.284329999999999927e+01 1.375600000000000023e+01 1.846600000000000108e+01 1.656950000000000145e+01 1.502169999999999916e+01 1.711400000000000077e+01 1.901360000000000028e+01 1.722589999999999932e+01 1.474280000000000079e+01 1.659430000000000049e+01 1.588349999999999973e+01 1.304710000000000036e+01 1.414899999999999913e+01 1.648440000000000083e+01 1.000970000000000049e+01 1.412560000000000038e+01 1.527180000000000071e+01
1.553589999999999982e+01 1.407659999999999911e+01 1.380790000000000006e+01 1.844819999999999993e+01 1.293120000000000047e+01 1.378730000000000011e+01 1.832509999999999906e+01 1.655229999999999890e+01 1.501900000000000013e+01 1.718509999999999849e+01 1.886439999999999984e+01 1.721389999999999887e+01 1.481700000000000017e+01 1.673780000000000001e+01 1.582060000000000066e+01 1.311519999999999975e+01 1.418280000000000030e+01 1.651219999999999999e+01 9.998889999999999390e+00 1.408039999999999914e+01 1.526449999999999996e+01
1.544439999999999991e+01 1.402459999999999951e+01 1.384029999999999916e+01 1.849360000000000070e+01 1.303260000000000041e+01 1.382029999999999959e+01 1.816130000000000067e+01 1.651810000000000045e+01 1.501909999999999989e+01 1.727380000000000138e+01 1.870139999999999958e+01 1.719050000000000011e+01 1.490959999999999930e+01 1.693690000000000140e+01 1.575319999999999965e+01 1.315770000000000017e+01 1.418079999999999963e+01 1.654289999999999949e+01 9.984999999999999432e+00 1.403110000000000035e+01 1.525919999999999987e+01
1.536040000000000028e+01 1.397560000000000002e+01 1.388439999999999941e+01 1.854560000000000031e+01 1.313649999999999984e+01 1.384890000000000043e+01 1.801249999999999929e+01 1.645769999999999911e+01 1.500019999999999953e+01 1.737600000000000122e+01 1.856090000000000018e+01 1.718449999999999989e+01 1.497869999999999990e+01 1.715309999999999846e+01 1.568299999999999983e+01 1.317459999999999987e+01 1.416130000000000067e+01 1.656429999999999936e+01 9.977809999999999846e+00 1.398029999999999973e+01 1.526019999999999932e+01
1.528800000000000026e+01 1.392830000000000013e+01 1.394200000000000017e+01 1.859280000000000044e+01 1.323179999999999978e+01 1.386930000000000085e+01 1.791720000000000113e+01 1.636400000000000077e+01 1.494209999999999994e+01 1.748880000000000123e+01 1.846880000000000166e+01 1.722080000000000055e+01 1.498429999999999929e+01 1.736159999999999926e+01 1.561539999999999928e+01 1.317070000000000007e+01 1.414080000000000048e+01 1.656569999999999965e+01 9.983629999999999782e+00 1.393019999999999925e+01 1.527009999999999934e+01
1.518030000000000079e+01 1.385749999999999993e+01 1.408159999999999989e+01 1.867050000000000054e+01 1.334869999999999912e+01 1.387459999999999916e+01 1.785829999999999984e+01 1.615700000000000003e+01 1.475029999999999930e+01 1.770820000000000149e+01 1.839320000000000022e+01 1.737849999999999895e+01 1.486519999999999975e+01 1.769640000000000057e+01 1.550910000000000011e+01 1.311379999999999946e+01 1.413770000000000060e+01 1.651829999999999998e+01 1.002929999999999922e+01 1.383510000000000062e+01 1.531310000000000038e+01
1.515409999999999968e+01 1.383910000000000018e+01 1.414179999999999993e+01 1.871059999999999945e+01 1.335190000000000055e+01 1.385720000000000063e+01 1.784339999999999904e+01 1.610040000000000049e+01 1.465750000000000064e+01 1.778719999999999857e+01 1.837290000000000134e+01 1.745090000000000074e+01 1.481329999999999991e+01 1.780900000000000105e+01 1.548290000000000077e+01 1.305930000000000035e+01 1.416290000000000049e+01 1.649419999999999931e+01 1.005770000000000053e+01 1.378940000000000055e+01 1.534099999999999930e+01
1.515409999999999968e+01 1.382549999999999990e+01 1.418249999999999922e+01 1.875860000000000127e+01 1.330659999999999954e+01 1.382460000000000022e+01 1.781589999999999918e+01 1.610399999999999920e+01 1.458680000000000021e+01 1.784219999999999828e+01 1.834969999999999857e+01 1.750080000000000169e+01 1.478669999999999973e+01 1.788980000000000103e+01 1.547579999999999956e+01 1.298930000000000007e+01 1.420679999999999943e+01 1.648570000000000135e+01 1.007869999999999955e+01 1.374300000000000033e+01 1.536930000000000085e+01
1.518340000000000067e+01 1.381670000000000087e+01 1.420410000000000039e+01 1.880940000000000012e+01 1.322899999999999920e+01 1.378219999999999956e+01 1.777700000000000102e+01 1.615309999999999846e+01 1.453359999999999985e+01 1.788040000000000163e+01 1.832300000000000040e+01 1.753190000000000026e+01 1.478359999999999985e+01 1.794529999999999959e+01 1.548000000000000043e+01 1.290740000000000087e+01 1.426469999999999949e+01 1.649830000000000041e+01 1.008419999999999916e+01 1.369369999999999976e+01 1.539540000000000042e+01
1.524140000000000050e+01 1.381589999999999918e+01 1.421490000000000009e+01 1.885210000000000008e+01 1.314359999999999928e+01 1.373700000000000010e+01 1.773229999999999862e+01 1.622459999999999880e+01 1.449230000000000018e+01 1.790340000000000131e+01 1.829070000000000107e+01 1.754329999999999856e+01 1.480429999999999957e+01 1.797429999999999950e+01 1.549319999999999986e+01 1.281719999999999970e+01 1.433580000000000076e+01 1.652449999999999974e+01 1.007489999999999952e+01 1.364049999999999940e+01 1.542029999999999923e+01
1.532349999999999923e+01 1.382670000000000066e+01 1.422630000000000017e+01 1.887529999999999930e+01 1.307109999999999950e+01 1.369459999999999944e+01 1.768550000000000111e+01 1.630020000000000024e+01 1.446000000000000085e+01 1.791039999999999921e+01 1.825080000000000169e+01 1.753180000000000049e+01 1.485089999999999932e+01 1.797469999999999857e+01 1.551500000000000057e+01 1.273429999999999929e+01 1.442120000000000068e+01 1.655509999999999948e+01 1.004570000000000007e+01 1.358079999999999998e+01 1.544260000000000055e+01
1.542830000000000013e+01 1.385130000000000017e+01 1.424419999999999931e+01 1.887089999999999890e+01 1.301880000000000059e+01 1.365770000000000017e+01 1.763779999999999859e+01 1.637559999999999860e+01 1.443689999999999962e+01 1.789819999999999922e+01 1.820159999999999911e+01 1.749350000000000094e+01 1.492810000000000059e+01 1.794409999999999883e+01 1.554679999999999929e+01 1.266569999999999929e+01 1.452100000000000080e+01 1.658429999999999893e+01 9.996539999999999537e+00 1.351309999999999967e+01 1.546209999999999951e+01