-3.091505614252196392e+04
-3.091505437024437924e+04
-3.091508392208195073e+04
-3.091512235626022812e+04
-3.091516657095328628e+04
-3.091525263648627515e+04
-3.091528579519309642e+04
-3.091527393728731113e+04
-3.091524750333037446e+04
-3.091523202114005471e+04
-3.091522145250975154e+04
-3.091522375214400017e+04
-3.091527926146714890e+04
-3.091536305240035654e+04
-3.091543728370146709e+04
-3.091546825161958259e+04
-3.091544769396150514e+04
-3.091540160358759385e+04
-3.091535829285678847e+04
-3.091535941233322228e+04
-3.091540806901296673e+04
-3.091544263046675042e+04
-3.091545407884116867e+04
-3.091546903503539215e+04
-3.091549564260097759e+04
-3.091553028759371955e+04
-3.091555797626767890e+04
-3.091554806397601715e+04
-3.091556718623346751e+04
-3.091553743874602878e+04
-3.091549369236092753e+04
-3.091548250439947515e+04
-3.091551311258306305e+04
-3.091555877192861590e+04
-3.091557787813135656e+04
-3.091553887605144701e+04
-3.091544326122668281e+04
-3.091537973298013094e+04
-3.091540527821319483e+04
-3.091544770892776796e+04
-3.091545045727777688e+04
-3.091542440808983883e+04
-3.091539312451963997e+04
-3.091536932190375228e+04
-3.091537365776603474e+04
-3.091542613274749965e+04
-3.091550547407483100e+04
-3.091553218966962231e+04
-3.091549016712583762e+04
-3.091547862296734093e+04
-3.091544601692377182e+04
-3.091538683624039186e+04
-3.091536451419602963e+04
-3.091536762717861711e+04
-3.091537231842159963e+04
-3.091537955120806873e+04
-3.091539172639861135e+04
-3.091538483865253147e+04
-3.091531626487073663e+04
-3.091534626569618558e+04
-3.091540920917005133e+04
-3.091545117157666391e+04
-3.091544926677962576e+04
-3.091541705121945415e+04
-3.091539437379438459e+04
-3.091540302973634971e+04
-3.091543104467482772e+04
-3.091544159017545462e+04
-3.091543429725182796e+04
-3.091544338667117700e+04
-3.091545466143695012e+04
-3.091547317334301624e+04
-3.091554455425141714e+04
-3.091562027836917332e+04
-3.091555855967980096e+04
-3.091547532086561478e+04
-3.091541758048091651e+04
-3.091539982151391087e+04
-3.091540070969355656e+04
-3.091539397024952632e+04
-3.091538484219001111e+04
-3.091538621092273752e+04
-3.091539215252892609e+04
-3.091538367672633831e+04
-3.091536357676377520e+04
-3.091541659978255120e+04
-3.091536035085393451e+04
-3.091532079529442854e+04
-3.091535466721168632e+04
-3.091540403138747570e+04
-3.091542007005064443e+04
-3.091541944582144424e+04
-3.091540243897715118e+04
-3.091537017253168233e+04
-3.091534791062448130e+04
-3.091536120284243589e+04
-3.091541671570305698e+04
-3.091550975633068447e+04
-3.091547580114658194e+04
-3.091541426041968225e+04
-3.091539199987304892e+04
-3.091540987612112804e+04
-3.091542599560211238e+04
-3.091543109229475886e+04
-3.091543864889671750e+04
-3.091544978297962734e+04
-3.091535876034840476e+04
-3.091542062543503562e+04
-3.091552463497245844e+04
-3.091555991970488685e+04
-3.091551742150607606e+04
-3.091544269550196259e+04
-3.091539124149171403e+04
-3.091537476880693794e+04
-3.091538427564894664e+04
-3.091540860915898156e+04
-3.091532209082852933e+04
-3.091529892740810101e+04
-3.091525586103554087e+04
-3.091525360575585364e+04
-3.091525023834680542e+04
-3.091521242132276893e+04
-3.091518714248917240e+04
-3.091519217931676758e+04
-3.091520457600800000e+04
-3.091522394997077936e+04
-3.091524987942861844e+04
-3.091528333746068893e+04
-3.091533049179980299e+04
-3.091536546360129432e+04
-3.091537228195834541e+04
-3.091537729674471848e+04
-3.091540881079535757e+04
-3.091546035759643200e+04
-3.091550235673842690e+04
-3.091551226385992413e+04
-3.091549909436532471e+04
-3.091547537066245786e+04
-3.091544459648941120e+04
-3.091541395211467534e+04
-3.091541012973124452e+04
-3.091545127770107501e+04
-3.091550758431783470e+04
-3.091554388702822325e+04
-3.091555254242596129e+04
-3.091554488378130554e+04
-3.091554410145395013e+04
-3.091553502645663320e+04
-3.091547095697560508e+04
-3.091537702789622199e+04
-3.091531107130555756e+04
-3.091526673198435310e+04
-3.091522233606346344e+04
-3.091517836518442346e+04
-3.091514049319339392e+04
-3.091511353242401310e+04
-3.091511835945182247e+04
-3.091516367076374081e+04
-3.091523276754837934e+04
-3.091527111709924429e+04
-3.091526256238363567e+04
-3.091530695367859153e+04
-3.091540074289144832e+04
-3.091544116186823521e+04
-3.091542546987813330e+04
-3.091536981388560889e+04
-3.091529641062698647e+04
-3.091526153107209757e+04
-3.091530353511213252e+04
-3.091542144286507755e+04
-3.091539543258941922e+04
-3.091538889777501754e+04
-3.091538618071809469e+04
-3.091537744150929211e+04
-3.091535610043540146e+04
-3.091533147032125635e+04
-3.091532790998347627e+04
-3.091535537688463955e+04
-3.091539612729611326e+04
-3.091542656105471906e+04
-3.091543186836349196e+04
-3.091541815899498397e+04
-3.091539935647131642e+04
-3.091538068320173625e+04
-3.091536167387153182e+04
-3.091533762091089011e+04
-3.091530170215315229e+04
-3.091527990746545765e+04
-3.091536959374549770e+04
-3.091548910043949945e+04
-3.091556387841736068e+04
-3.091557036316281665e+04
-3.091551793471282144e+04
-3.091545721713035164e+04
-3.091544131044240567e+04
-3.091550169985556204e+04
-3.091551020286953644e+04
-3.091550036704186277e+04
-3.091550480331415747e+04
-3.091551866071260520e+04
-3.091550195074454314e+04
-3.091547677286518592e+04
-3.091547608441711782e+04
-3.091549429944695657e+04
-3.091548569520662568e+04
-3.091542375909827388e+04
-3.091534638134457418e+04
-3.091530689789524331e+04
-3.091523812955203903e+04
-3.091515728207447683e+04
-3.091505577516824997e+04
-3.091513913099139245e+04
-3.091514821741748892e+04
-3.091516265768382800e+04
-3.091521416339571806e+04
-3.091526754179520503e+04
-3.091529672845597815e+04
-3.091529756058016574e+04
-3.091528156082928763e+04
-3.091526697416569004e+04
-3.091525281444874054e+04
-3.091524191601643543e+04
-3.091524492341884252e+04
-3.091524552887218670e+04
-3.091523394852253841e+04
-3.091520180643310596e+04
-3.091515209259100811e+04
-3.091514954995907465e+04
-3.091521798904451134e+04
-3.091521233315787686e+04
-3.091520879867091935e+04
-3.091523486472991499e+04
-3.091529495019188835e+04
-3.091534002177149523e+04
-3.091531220928573021e+04
-3.091521687065653532e+04
-3.091514034407499639e+04
-3.091512132113910047e+04
-3.091512528883132836e+04
-3.091512691226262541e+04
-3.091513342612426641e+04
-3.091515093447440449e+04
-3.091518343167243074e+04
-3.091524563717350247e+04
-3.091532573388891979e+04
-3.091538278555343277e+04
-3.091538261956398128e+04
-3.091535032345809668e+04
-3.091530935943724762e+04
-3.091530188011562495e+04
-3.091532039828030611e+04
-3.091526244265353671e+04
-3.091514531586737576e+04
-3.091502908542428122e+04
-3.091508664757440056e+04
-3.091521769407307875e+04
-3.091502395689431432e+04
-3.091498416758900203e+04
-3.091502584944622868e+04
-3.091509404825511956e+04
-3.091508637899802125e+04
-3.091510481226317643e+04
-3.091511999240710793e+04
-3.091516838894600369e+04
-3.091525921946483504e+04
-3.091530741953752295e+04
-3.091531371244270485e+04
-3.091531699223108808e+04
-3.091531293882299360e+04
-3.091528058911068365e+04
-3.091521587907361754e+04
-3.091517416728386888e+04
-3.091518874251868692e+04
-3.091522190176973527e+04
-3.091523576052875433e+04
-3.091522518618405593e+04
-3.091520226358439686e+04
-3.091519052595293761e+04
-3.091519290477232425e+04
-3.091517901499232903e+04
-3.091510779952915982e+04
-3.091512535359442336e+04
-3.091518260635108891e+04
-3.091525162912075393e+04
-3.091530477567923299e+04
-3.091532709690725460e+04
-3.091531520036130314e+04
-3.091521198893384280e+04
-3.091519316164781048e+04
-3.091525388195142659e+04
-3.091523098465834846e+04
-3.091517451041945242e+04
-3.091515838114236976e+04
-3.091518727936244613e+04
-3.091522387922117196e+04
-3.091523384212602468e+04
-3.091520303665987740e+04
-3.091515129693007111e+04
-3.091517384972699074e+04
-3.091522332791849112e+04
-3.091524106674906943e+04
-3.091522454345111692e+04
-3.091519549720108989e+04
-3.091517758204073107e+04
-3.091518423141507083e+04
-3.091519663899085936e+04
-3.091517229840586515e+04
-3.091508669982026186e+04
-3.091499614985082371e+04
-3.091507956771592944e+04
-3.091508510251189000e+04
-3.091508023711603164e+04
-3.091504882184271992e+04
-3.091502588590948289e+04
-3.091502574441027537e+04
-3.091505102841403277e+04
-3.091507797095178103e+04
-3.091510985888686992e+04
-3.091515327138825887e+04
-3.091519270259172845e+04
-3.091521634221141358e+04
-3.091524083844554116e+04
-3.091526973203968009e+04
-3.091524897791539115e+04
-3.091523810832716117e+04
-3.091525525177260715e+04
-3.091527704618819189e+04
-3.091528907389302913e+04
-3.091529781555085719e+04
-3.091530568317896541e+04
-3.091531953159764817e+04
-3.091533392179504153e+04
-3.091534951555204680e+04
-3.091535197464501834e+04
-3.091528322616612058e+04
-3.091523338606318794e+04
-3.091518554926251090e+04
-3.091514654772682843e+04
-3.091511220995064286e+04
-3.091507328787221195e+04
-3.091502982040381903e+04
-3.091500433013775546e+04
-3.091501540245081560e+04
-3.091506252794585816e+04
-3.091511327500429979e+04
-3.091513239590118246e+04
-3.091511462985922117e+04
-3.091505962122558049e+04
-3.091498283423107569e+04
-3.091496231031511343e+04
-3.091505871290951109e+04
-3.091519949400950645e+04
-3.091527783994433048e+04
-3.091526349600629328e+04
-3.091521499252665672e+04
-3.091522769126427374e+04
-3.091530307442336562e+04
-3.091528651602271566e+04
-3.091526336566375903e+04
-3.091525086366446340e+04
-3.091525455978705213e+04
-3.091528699194986621e+04
-3.091527057123883787e+04
-3.091521761080623764e+04
-3.091516971931067019e+04
-3.091516738076413822e+04
-3.091519167726669184e+04
-3.091520844056907663e+04
-3.091520525629265467e+04
-3.091519216326205060e+04
-3.091518483986166757e+04
-3.091518446216763186e+04
-3.091517540023178299e+04
-3.091514645738502804e+04
-3.091513420355357448e+04
-3.091518641730573290e+04
-3.091523251448248629e+04
-3.091518679880936907e+04
-3.091513772225792854e+04
-3.091519034826258940e+04
-3.091517280018382371e+04
-3.091516025002037350e+04
-3.091515094127725388e+04
-3.091515489454744602e+04
-3.091517418442704729e+04
-3.091517478661502173e+04
-3.091513830539793707e+04
-3.091512923992460856e+04
-3.091520073865831000e+04
-3.091529054575690679e+04
-3.091532961423259621e+04
-3.091532236865678351e+04
-3.091528910600245945e+04
-3.091525031263388883e+04
-3.091523603917334913e+04
-3.091520365925639635e+04
-3.091520008504081488e+04
-3.091522953864528972e+04
-3.091523657523765723e+04
-3.091520785770118528e+04
-3.091515407602894993e+04
-3.091507690589812410e+04
-3.091500366128188398e+04
-3.091501734969762038e+04
-3.091505694253672118e+04
-3.091504922919717865e+04
-3.091499378409290148e+04
-3.091493097667596521e+04
-3.091489780273076758e+04
-3.091489104178974230e+04
-3.091488902297699315e+04
-3.091489033238889897e+04
-3.091490621649139212e+04
-3.091491802514456867e+04
-3.091491485909977564e+04
-3.091490503007495136e+04
-3.091488625639535167e+04
-3.091488718348728435e+04
-3.091494085141592222e+04
-3.091502148446775755e+04
-3.091507962077812772e+04
-3.091508816052747716e+04
-3.091507620493281502e+04
-3.091508286546382442e+04
-3.091511660458951883e+04
-3.091515172142770098e+04
-3.091515604096315292e+04
-3.091513550044824296e+04
-3.091513751191391566e+04
-3.091511816706732134e+04
-3.091507162389594305e+04
-3.091511805686119988e+04
-3.091519647844368228e+04
-3.091521804700476423e+04
-3.091520559398595651e+04
-3.091517630718728469e+04
-3.091512655688192535e+04
-3.091509874249135828e+04
-3.091515705894111306e+04
-3.091524159791533020e+04
-3.091524433265964399e+04
-3.091522406398648673e+04
-3.091527332339843997e+04
-3.091530681272361107e+04
-3.091524324964647167e+04
-3.091513060185449285e+04
-3.091507397060589210e+04
-3.091509430567483651e+04
-3.091517327747153831e+04
-3.091521687092864522e+04
-3.091525632145219788e+04
-3.091528228410793236e+04
-3.091528263459058508e+04
-3.091526149107136007e+04
-3.091524384639217169e+04
-3.091524878144918694e+04
-3.091526779159573198e+04
-3.091528267431920904e+04
-3.091528327188124968e+04
-3.091528168845068649e+04
-3.091529152427836016e+04
-3.091531080327339805e+04
-3.091531932043729103e+04
-3.091529666668612845e+04
-3.091525322942237835e+04
-3.091523121160131268e+04
-3.091528273690539936e+04
-3.091536459664653012e+04
-3.091539041861939040e+04
-3.091534958167571313e+04
-3.091527993331627295e+04
-3.091521935886569190e+04
-3.091518758059249376e+04
-3.091518058563354498e+04
-3.091521053693427166e+04
-3.091527808158144035e+04
-3.091532140129199979e+04
-3.091530616645318514e+04
-3.091527741680727559e+04
-3.091530398600480476e+04
-3.091536902149004527e+04
-3.091541893696851912e+04
-3.091541141982306726e+04
-3.091532521768892184e+04
-3.091525516823364887e+04
-3.091528810761670320e+04
-3.091531107321035233e+04
-3.091524254078986633e+04
-3.091512348390007901e+04
-3.091517308944086108e+04
-3.091530623557010404e+04
-3.091533585897362718e+04
-3.091535246962013480e+04
-3.091536203170126100e+04
-3.091533975836527679e+04
-3.091525538973433504e+04
-3.091519643871505832e+04
-3.091524634657434581e+04
-3.091532106468715574e+04
-3.091535814999701324e+04
-3.091536898856427069e+04
-3.091536404752075032e+04
-3.091535202144860523e+04
-3.091534968371841023e+04
-3.091536347390473384e+04
-3.091537757811044867e+04
-3.091537294210657274e+04
-3.091534275515524132e+04
-3.091529829773661913e+04
-3.091526857392308375e+04
-3.091527048688353898e+04
-3.091529202034193077e+04
-3.091531159104303151e+04
-3.091532363616315342e+04
-3.091533441568170019e+04
-3.091533389240674660e+04
-3.091528463653227300e+04
-3.091518753351679334e+04
-3.091513392899068640e+04
-3.091514929988643780e+04
-3.091514604050658818e+04
-3.091509538433418129e+04
-3.091503340468761962e+04
-3.091498978701237502e+04
-3.091497303649934474e+04
-3.091497757590279798e+04
-3.091500479681302750e+04
-3.091505511175465290e+04
-3.091509329069012892e+04
-3.091511533844371661e+04
-3.091513287618214963e+04
-3.091509797594660995e+04
-3.091501585905788306e+04
-3.091496832566415833e+04
-3.091494671138795093e+04
-3.091490797217003274e+04
-3.091486376808941714e+04
-3.091484972456509058e+04
-3.091487633675661345e+04
-3.091493709325136660e+04
-3.091502051030013172e+04
-3.091511182817489316e+04
-3.091518093965368098e+04
-3.091518644887094342e+04
-3.091511224777446841e+04
-3.091504133762304991e+04
-3.091518561130447051e+04
-3.091513149275527758e+04
-3.091506457750747359e+04
-3.091500894355617856e+04
-3.091496927479730584e+04
-3.091492824655758523e+04
-3.091485570916526558e+04
-3.091473888605817774e+04
-3.091493337372697715e+04
-3.091499416205905800e+04
-3.091504628492518168e+04
-3.091510021081776358e+04
-3.091516505092525040e+04
-3.091520633005395575e+04
-3.091521785815774274e+04
-3.091524574030465374e+04
-3.091529206496860206e+04
-3.091528657697622839e+04
-3.091521346379097668e+04
-3.091527657924080268e+04
-3.091534710435110537e+04
-3.091535331181253787e+04
-3.091531374645693722e+04
-3.091525884558038888e+04
-3.091520723837003243e+04
-3.091519309389146292e+04
-3.091522820555947328e+04
-3.091525310425000134e+04
-3.091523379668300913e+04
-3.091520377490478859e+04
-3.091521819639527166e+04
-3.091526101868169280e+04
-3.091525764011597494e+04
-3.091521380937558570e+04
-3.091519619217989748e+04
-3.091521814251672913e+04
-3.091524214731321626e+04
-3.091525201769934938e+04
-3.091525606103923201e+04
-3.091526109133609134e+04
-3.091526832303410265e+04
-3.091527659665609463e+04
-3.091528885620193614e+04
-3.091530105914809610e+04
-3.091529949340493476e+04
-3.091523902045282739e+04
-3.091525054692392223e+04
-3.091529303015647383e+04
-3.091529537632219581e+04
-3.091527027082512723e+04
-3.091527106022744920e+04
-3.091530704048290863e+04
-3.091535149518039179e+04
-3.091538506695605975e+04
-3.091540680123447964e+04
-3.091542159987477862e+04
-3.091544530861138628e+04
-3.091547937699484828e+04
-3.091550534563708788e+04
-3.091551543834024415e+04
-3.091551557412506372e+04
-3.091551192317337336e+04
-3.091550731329242990e+04
-3.091550354288275048e+04
-3.091549947233147759e+04
-3.091549117993364052e+04
-3.091547198502178071e+04
-3.091544733232218277e+04
-3.091544424002024607e+04
-3.091548467205850102e+04
-3.091554306333956265e+04
-3.091557091283281625e+04
-3.091555256609986827e+04
-3.091550648933165212e+04
-3.091544111588099622e+04
-3.091538838919420232e+04
-3.091537471955432193e+04
-3.091537544446565880e+04
-3.091538087286509835e+04
-3.091538857586431186e+04
-3.091539543394999419e+04
-3.091543279382273613e+04
-3.091545152913427955e+04
-3.091541258474251663e+04
-3.091536828732684444e+04
-3.091539274056698196e+04
-3.091544825778142695e+04
-3.091544811573799234e+04
-3.091539914095713902e+04
-3.091533826255537133e+04
-3.091529082086402559e+04
-3.091524596888030283e+04
-3.091519725478453256e+04
-3.091524583363971396e+04
-3.091534559303071728e+04
-3.091549193532171921e+04
-3.091549658003323930e+04
-3.091546161721150202e+04
-3.091540221938126706e+04
-3.091534793293781695e+04
-3.091532852550503230e+04
-3.091534418184822425e+04
-3.091535761148367601e+04
-3.091535807081188250e+04
-3.091537888344065141e+04
-3.091545392400838682e+04
-3.091549686602491056e+04
-3.091553544986580528e+04
-3.091554975870114868e+04
-3.091552833925846426e+04
-3.091550444793345741e+04
-3.091556325065068086e+04
-3.091546767038437611e+04
-3.091545855402575762e+04
-3.091553270206001980e+04
-3.091557029812760084e+04
-3.091553615981087205e+04
-3.091545377189673673e+04
-3.091535847979901519e+04
-3.091530248937856231e+04
-3.091534454484811431e+04
-3.091534862791662090e+04
-3.091527838961433008e+04
-3.091517706012634517e+04
-3.091514956029940367e+04
-3.091519884039200770e+04
-3.091512146971326729e+04
-3.091512894168781349e+04
-3.091521526899433593e+04
-3.091515078181853460e+04
-3.091512468637123675e+04
-3.091516923603645409e+04
-3.091533431173420468e+04
-3.091533906991720141e+04
-3.091531061633117497e+04
-3.091529266688446660e+04
-3.091529946292818204e+04
-3.091531022067762387e+04
-3.091532837584240770e+04
-3.091538081136736582e+04
-3.091546240008308814e+04
-3.091552469102790928e+04
-3.091551450907140679e+04
-3.091541565990127492e+04
-3.091532322091739843e+04
-3.091535075584702645e+04
-3.091545470524728444e+04
-3.091551309543989191e+04
-3.091550829317444368e+04
-3.091547634483008369e+04
-3.091545225105235659e+04
-3.091545463368134006e+04
-3.091546807338500730e+04
-3.091543215353882260e+04
-3.091541691380195334e+04
-3.091541834022281910e+04
-3.091527593405883454e+04
-3.091537413587008996e+04
-3.091538839191534498e+04
-3.091534660583850928e+04
-3.091538989507231963e+04
-3.091540470051546072e+04
-3.091541340788695015e+04
-3.091542442196764387e+04
-3.091543510842325122e+04
-3.091543483222768191e+04
-3.091541693012878386e+04
-3.091539486849738387e+04
-3.091539826066879323e+04
-3.091542173865284713e+04
-3.091544800389919328e+04
-3.091546589919524195e+04
-3.091545462252467041e+04
-3.091540345940413681e+04
-3.091533057397819357e+04
-3.091526650041545508e+04
-3.091522061058945837e+04
-3.091520011742236602e+04
-3.091522538428294865e+04
-3.091526378444699003e+04
-3.091538139641216912e+04
-3.091544948882454264e+04
-3.091549935450617704e+04
-3.091550424031057992e+04
-3.091547677694689628e+04
-3.091547386015840675e+04
-3.091552819014006673e+04
-3.091560072726027647e+04
-3.091564336396503495e+04
-3.091564492589861038e+04
-3.091561494167210913e+04
-3.091556665397875622e+04
-3.091553410208584319e+04
-3.091555232854446876e+04
-3.091558413076368743e+04
-3.091556555872046374e+04
-3.091554418281599646e+04
-3.091555413456417227e+04
-3.091545491450284680e+04
-3.091545534471486098e+04
-3.091546673730594193e+04
-3.091544773967663059e+04
-3.091545033999670341e+04
-3.091548139281434487e+04
-3.091549277696989157e+04
-3.091549817135510602e+04
-3.091555446382194714e+04
-3.091549271247891011e+04
-3.091537880262282852e+04
-3.091528698814026939e+04
-3.091527557758967669e+04
-3.091532299397443421e+04
-3.091537345939503211e+04
-3.091540672204934890e+04
-3.091543121719501869e+04
-3.091545821170651834e+04
-3.091548817661293651e+04
-3.091550074310321725e+04
-3.091546987831625665e+04
-3.091542966505754521e+04
-3.091542739372313736e+04
-3.091544824172670633e+04
-3.091545376155640770e+04
-3.091543577047628060e+04
-3.091541532683391051e+04
-3.091528153062464480e+04
-3.091531818028021371e+04
-3.091535688738869067e+04
-3.091538888498566666e+04
-3.091540701212272688e+04
-3.091538904988666764e+04
-3.091529655784058195e+04
-3.091544165194530433e+04
-3.091559219676279827e+04
-3.091558565677822480e+04
-3.091558634332150541e+04
-3.091559706542402637e+04
-3.091557990918922223e+04
-3.091551201215460605e+04
-3.091545971731251848e+04
-3.091547494208312128e+04
-3.091551262522713660e+04
-3.091553248409682055e+04
-3.091552711012014697e+04
-3.091549525429449932e+04
-3.091544349850997241e+04
-3.091540839990342647e+04
-3.091543324580386616e+04
-3.091550588551098917e+04
-3.091555995317489214e+04
-3.091555789789888877e+04
-3.091553943687811989e+04
-3.091556144762422628e+04
-3.091565225855085737e+04
-3.091563581960820011e+04
-3.091557936741052254e+04
-3.091550633939691397e+04
-3.091549160225434753e+04
-3.091553161333245589e+04
-3.091554932195840229e+04
-3.091554416431225036e+04
-3.091553418644114572e+04
-3.091551843376964462e+04
-3.091551224671675300e+04
-3.091552449537804569e+04
-3.091554954590811030e+04
-3.091555835559440675e+04
-3.091534671468405577e+04
-3.091542802965323426e+04
-3.091543052820271623e+04
-3.091537003865166480e+04
-3.091533137970733878e+04
-3.091531919553703119e+04
-3.091532724031126418e+04
-3.091534892016691447e+04
-3.091536279225950784e+04
-3.091535288459377261e+04
-3.091532010085985166e+04
-3.091528099945838403e+04
-3.091526505113702297e+04
-3.091529479127739251e+04
-3.091534550377736741e+04
-3.091537448744120411e+04
-3.091535307017542800e+04
-3.091532008480513468e+04
-3.091536917169690059e+04
-3.091545193295125500e+04
-3.091550583108821957e+04
-3.091553911306261944e+04
-3.091554081948865496e+04
-3.091552677868546743e+04
-3.091556193035421893e+04
-3.091562347788397165e+04
-3.091563540381821804e+04
-3.091560039201598920e+04
-3.091558861084632008e+04
-3.091561127738682990e+04
-3.091563101298893162e+04
-3.091562979582362823e+04
-3.091561456261749845e+04
-3.091559075265452702e+04
-3.091555112416850898e+04
-3.091549365154384941e+04
-3.091544344599199758e+04
-3.091543413452773893e+04
-3.091546311791945845e+04
-3.091549596233477132e+04
-3.091551310496387669e+04
-3.091552392856486767e+04
-3.091553442018695205e+04
-3.091551505329913198e+04
-3.091534991338250620e+04
-3.091545063115853918e+04
-3.091555899206873437e+04
-3.091555438191567373e+04
-3.091547926978199030e+04
-3.091541897098275149e+04
-3.091540113609597756e+04
-3.091540599387264956e+04
-3.091542202927045582e+04
-3.091545493028545025e+04
-3.091550092079356909e+04
-3.091552492205258022e+04
-3.091546641974906379e+04
-3.091536154244053250e+04
-3.091537970957833750e+04
-3.091550853290675877e+04
-3.091557918944805715e+04
-3.091557419126063178e+04
-3.091555247766286629e+04
-3.091554323722032495e+04
-3.091545753359877563e+04
-3.091551351966540460e+04
-3.091553493693117343e+04
-3.091544796253788445e+04
-3.091535179668255296e+04
-3.091542467829890666e+04
-3.091553689206927811e+04
-3.091544723626599080e+04
-3.091544272189701223e+04
-3.091559213907465892e+04
-3.091551180670864051e+04
-3.091548427123478177e+04
-3.091549168742599068e+04
-3.091552496042063649e+04
-3.091554996469134494e+04
-3.091555231194552471e+04
-3.091561021859179527e+04
-3.091564682824662304e+04
-3.091560651430578582e+04
-3.091558972923429246e+04
-3.091562301501829279e+04
-3.091564031819457523e+04
-3.091562712366550113e+04
-3.091555989086081900e+04
-3.091552433020493118e+04
-3.091542622553832553e+04
-3.091538194363314324e+04
-3.091531283269858613e+04
-3.091529446528498374e+04
-3.091534200303252874e+04
-3.091539754990738220e+04
-3.091544115615384362e+04
-3.091545420129241393e+04
-3.091544467676299610e+04
-3.091544382504660825e+04
-3.091546439739883499e+04
-3.091547558182281136e+04
-3.091557039119054753e+04
-3.091555970283013812e+04
-3.091549928674982584e+04
-3.091544875057963145e+04
-3.091544591733009293e+04
-3.091547820391198911e+04
-3.091551954589899833e+04
-3.091554150521558768e+04
-3.091552608370665985e+04
-3.091547698402554306e+04
-3.091543339084054969e+04
-3.091543627524749536e+04
-3.091547433907879895e+04
-3.091551454281352926e+04
-3.091552093612872341e+04
-3.091549496476535205e+04
-3.091546818576803344e+04
-3.091544689176983957e+04
-3.091542704324048464e+04
-3.091540401070682128e+04
-3.091538501906401871e+04
-3.091536709873349537e+04
-3.091538171206424522e+04
-3.091543497291054882e+04
-3.091546448583584424e+04
-3.091542248560540247e+04
-3.091534676529723583e+04
-3.091532143612257642e+04
-3.091524912866647355e+04
-3.091533071057935013e+04
-3.091530271332827033e+04
-3.091525996614527321e+04
-3.091523766532578884e+04
-3.091529211993560239e+04
-3.091538108538602319e+04
-3.091545382223780325e+04
-3.091563017106864208e+04
-3.091556216056254198e+04
-3.091551147228070113e+04
-3.091554249598216484e+04
-3.091560094032542838e+04
-3.091562021932046628e+04
-3.091560739785949409e+04
-3.091558802444094181e+04
-3.091557090902322670e+04
-3.091556236682485542e+04
-3.091556312058024923e+04
-3.091556695003863933e+04
-3.091556134884689527e+04
-3.091552080932366516e+04
-3.091542065482333055e+04
-3.091538102225560579e+04
-3.091547487133351751e+04
-3.091553934898534499e+04
-3.091553329798938285e+04
-3.091551388402586599e+04
-3.091549404012244122e+04
-3.091546027732284347e+04
-3.091541885887184253e+04
-3.091541841641469728e+04
-3.091547961101277178e+04
-3.091551216535471031e+04
-3.091546185177365260e+04
-3.091539509598457516e+04
-3.091542585845672511e+04
-3.091569684876104657e+04
-3.091560591810431288e+04
-3.091566986622255718e+04
-3.091564678062669554e+04
-3.091567765221650916e+04
-3.091568673755414784e+04
-3.091566957696552345e+04
-3.091558624291148590e+04
-3.091553504196712674e+04
-3.091552499878868912e+04
-3.091562145335683454e+04
-3.091563765175083972e+04
-3.091563015066010121e+04
-3.091556548007955280e+04
-3.091555320311842297e+04
-3.091554318007641268e+04
-3.091551007198276784e+04
-3.091546248498261411e+04
-3.091541636113869390e+04
-3.091537997761048973e+04
-3.091535575104120289e+04
-3.091534333530200092e+04
-3.091533745954736878e+04
-3.091532053243243718e+04
-3.091526925910578939e+04
-3.091531986112754021e+04
-3.091540270809776121e+04
-3.091539622906670047e+04
-3.091536254409166577e+04
-3.091536224748755558e+04
-3.091541588657211832e+04
-3.091550071698028842e+04
-3.091555409674034308e+04
-3.091554382689105842e+04
-3.091551830016174063e+04
-3.091553191020868326e+04
-3.091555948513904877e+04
-3.091556152898627261e+04
-3.091552745760955077e+04
-3.091547020430866178e+04
-3.091541710482588678e+04
-3.091539659206659053e+04
-3.091541456301029393e+04
-3.091544714347516128e+04
-3.091546468910489784e+04
-3.091544165874814644e+04
-3.091539562306912558e+04
-3.091541083477826032e+04
-3.091549785162131593e+04
-3.091556061550003142e+04
-3.091556220137962373e+04
-3.091547533419919637e+04
-3.091544545718555673e+04
-3.091546807420134792e+04
-3.091552000958102508e+04
-3.091555460695383590e+04
-3.091538972146367814e+04
-3.091558635475028132e+04
-3.091560036045078959e+04
-3.091566354773867715e+04
-3.091549982308625113e+04
-3.091544386477523221e+04
-3.091541309876559899e+04
-3.091540852942962010e+04
-3.091542403583807027e+04
-3.091544965182074884e+04
-3.091546940973618621e+04
-3.091546864346354778e+04
-3.091540460690829059e+04
-3.091537798818603915e+04
-3.091537421750424619e+04
-3.091537135214527734e+04
-3.091537218127621600e+04
-3.091537257556920304e+04
-3.091536856080127836e+04
-3.091534668502364366e+04
-3.091528633942082524e+04
-3.091523499697725128e+04
-3.091528925593720487e+04
-3.091538899628023501e+04
-3.091543641157654201e+04
-3.091544296598314395e+04
-3.091544012919612942e+04
-3.091543595986752916e+04
-3.091543085419512863e+04
-3.091543337859542953e+04
-3.091544484683416522e+04
-3.091545660786741064e+04
-3.091546897000017998e+04
-3.091548490743699222e+04
-3.091549992594529249e+04
-3.091550344682655850e+04
-3.091549597049818476e+04
-3.091548357026947269e+04
-3.091548028068499116e+04
-3.091548526989265883e+04
-3.091548481600673404e+04
-3.091547819003418772e+04
-3.091547267673521856e+04
-3.091547208461545233e+04
-3.091547582917431282e+04
-3.091548373136088048e+04
-3.091549489619266024e+04
-3.091550677314640780e+04
-3.091551696027308208e+04
-3.091552602438583563e+04
-3.091552873463990909e+04
-3.091551836819020173e+04
-3.091547062118709800e+04
-3.091544239563248993e+04
-3.091542411311841352e+04
-3.091542506361213236e+04
-3.091544198909437910e+04
-3.091546680125269631e+04
-3.091549217614248482e+04
-3.091550554672923317e+04
-3.091549602954689544e+04
-3.091551426634584277e+04
-3.091557772901295903e+04
-3.091562371679993885e+04
-3.091542215471494274e+04
-3.091534973732484286e+04
-3.091546106209922800e+04
-3.091546229640770252e+04
-3.091547856772822342e+04
-3.091552256636287348e+04
-3.091555358380571124e+04
-3.091553168843588719e+04
-3.091549704915754046e+04
-3.091554203012322614e+04
-3.091557542774602189e+04
-3.091559282752273066e+04
-3.091559329283743500e+04
-3.091557721798312195e+04
-3.091554366661599852e+04
-3.091551629359411527e+04
-3.091556146667219582e+04
-3.091556092108390294e+04
-3.091551131146140688e+04
-3.091544026634151305e+04
-3.091536412697800188e+04
-3.091529284675172676e+04
-3.091526874426636277e+04
-3.091528381665320558e+04
-3.091529719676393870e+04
-3.091529394364270775e+04
-3.091526474609738216e+04
-3.091520979624033862e+04
-3.091513755980595670e+04
-3.091512229503460912e+04
-3.091535391291206179e+04
-3.091538868525408543e+04
-3.091539345377741483e+04
-3.091539553653691837e+04
-3.091539982042545307e+04
-3.091540594462004447e+04
-3.091540527794107766e+04
-3.091539112584332179e+04
-3.091537491003402829e+04
-3.091537277067483956e+04
-3.091537954222831104e+04
-3.091537291952112719e+04
-3.091545955594899715e+04
-3.091565346728063378e+04
-3.091568901460294728e+04
-3.091571509671666718e+04
-3.091575289306004561e+04
-3.091570709983447523e+04
-3.091573029291531566e+04
-3.091580341072650117e+04
-3.091571896862481299e+04
-3.091573636350347078e+04
-3.091586289508894333e+04
-3.091584944069112680e+04