7.120922761914870447e-02 1.783474651605461703e-01 -1.117675091659537240e-01 -1.790794582910716637e-01 -2.312388667929406866e-02 2.575237708041394277e-02 -2.181817754193519920e-02 -1.307870921075573456e-01 2.113286536426470796e-01 -1.094647261402288858e-02 -5.702517021474885761e-02 -1.783448940571723540e-01 8.929693985394636380e-02 3.682678779831793231e-02 4.182943505481977881e-02 -3.466783229532438559e-02 1.702281263943042355e-02 6.067078911055046042e-02 8.600577326925908095e-02 -2.126096801876172990e-02 -4.946890308737266623e-02
5.426442225607987918e-02 1.780747225146517565e-01 -1.091882296834086746e-01 -1.759510425499469510e-01 -5.841084066703342362e-03 1.498793858525724991e-02 -1.609433578907788071e-02 -1.326582897209533651e-01 2.323951434022133444e-01 -1.065346967354278279e-02 -6.532037245175986717e-02 -1.974933406998716501e-01 7.490416027766010065e-02 1.741680852043402811e-02 3.645881148345733735e-02 -3.419459500833976068e-02 3.948032074629877902e-02 8.769503960792385255e-02 1.077247576430324372e-01 -3.115215696403545592e-02 -6.485531127350396829e-02
1.891463050188445238e-02 1.634033895988462326e-01 -9.261880541291701852e-02 -1.395812426652911498e-01 1.236479607915491087e-02 -2.320266528666779706e-03 -1.341293208052486176e-02 -1.239542306254381027e-01 2.310668085551648987e-01 1.107471925030884506e-02 -4.148804394884444968e-02 -1.787059283929236519e-01 4.295830370212756072e-02 -2.453552527565416516e-02 1.648144111303966389e-02 -2.563189517631691075e-02 4.661811508855263214e-02 8.998758964222089429e-02 1.056784678898795293e-01 -3.240850091661705290e-02 -6.389089039798546976e-02
-4.134560482193502806e-02 1.268093894999936244e-01 -5.763524162328799438e-02 -6.032312451234302791e-02 3.054645643123181376e-02 -2.937182214387009868e-02 -1.556139748175323738e-02 -9.700006840603495051e-02 2.111017280588740608e-01 6.836707852766468752e-02 3.619758738067760384e-02 -1.139888396367960410e-01 -2.424195669243182222e-02 -1.108525563193474284e-01 -3.340557480498301118e-02 1.719399670205910878e-03 3.469385186146740907e-02 6.498355790978992130e-02 7.138565673265998002e-02 -2.039471187005554437e-02 -4.168385918179429855e-02
-2.645197945063610390e-01 -6.807515545060159601e-02 5.974519189597659458e-02 3.676697364942946855e-01 -3.982608272800959581e-02 -1.479722956360779995e-01 -7.410747818624939531e-02 1.446596346271856182e-01 1.472537236651638159e-01 6.500335540576830662e-02 5.501323040267012965e-02 -9.692113553245879087e-02 -1.540081664943816764e-01 -1.005504022108029138e-01 2.151082784462919964e-02 2.130324210043401667e-01 -5.244752634593884827e-02 -6.009712452578457736e-02 -1.530700737174110482e-01 6.122630170549722001e-02 7.648086371061921240e-02
-8.262996596150574968e-02 -4.179379956205868385e-02 -2.031156238694632396e-02 2.170421081378741679e-01 -8.588261741765326751e-02 -8.982458168832094247e-02 -6.084953221709817756e-02 1.212693302162966974e-01 1.599397019777758500e-01 8.405862526220051964e-03 -5.810374808006479874e-02 -1.570208825836846289e-01 -1.564427442790483347e-01 5.536228339669943543e-02 8.787491399995604746e-02 1.196881530634671398e-01 -9.861107035800077344e-03 5.486734599723979084e-04 -4.521388126990912720e-02 1.900960706051322766e-02 1.879373722124761184e-02
9.104714134257059499e-02 -3.887045502602955865e-02 -8.983522605628854740e-02 4.330905362438357969e-02 -8.225736166057229237e-02 -2.731149416629614912e-02 -1.879594837014909176e-02 6.208129642142608956e-02 1.541599130155043018e-01 -2.474460740201290740e-02 -1.181517131093419992e-01 -1.748109638919293218e-01 -1.828688532875370754e-01 1.695553200634439817e-01 1.153941533188565516e-01 3.938020198092237467e-02 1.910478930741190545e-02 4.394411615771620649e-02 5.267301211182253556e-02 -1.146187599633810214e-02 -2.154049837756303806e-02
2.128398967837087929e-01 -6.148783434068180731e-02 -1.345492334082603048e-01 -9.305892688844688565e-02 -5.910493573382886306e-02 2.579418322127219679e-02 3.083683684627062591e-02 7.357366570377764717e-03 1.254789463481786327e-01 -4.598397815243458059e-02 -1.355107232259326333e-01 -1.613666643502439102e-01 -2.104704193364671794e-01 2.471539966768635521e-01 1.212905161080969352e-01 -5.911429455010955292e-03 2.562397617792555940e-02 6.117385119667136800e-02 1.117479687803126925e-01 -2.403184612472355347e-02 -3.782154769364745595e-02
2.764472459016297790e-01 -8.716708924114441315e-02 -1.578483664935136921e-01 -1.789741973189476476e-01 -4.179930172327864929e-02 6.519284572441856607e-02 7.283653036650451773e-02 -3.221201719679001041e-02 7.793024610450693945e-02 -6.510275426220005213e-02 -1.190637863201696039e-01 -1.231383166807912405e-01 -2.120375582648757196e-01 2.913821683353189917e-01 1.178565504420279048e-01 -3.128611144981128384e-02 1.392273045748515861e-02 5.919487292984496746e-02 1.381168450277003301e-01 -2.506270431142145969e-02 -3.918783202649343822e-02
2.800170172479038433e-01 -7.788088091972966698e-02 -1.648595597056408402e-01 -2.254948161675651708e-01 -3.437441797830446955e-02 9.174493879822433196e-02 1.047591955896052390e-01 -7.639596587721579624e-02 1.517979431901142311e-02 -8.914606750797082757e-02 -7.200745237258371345e-02 -6.382126491862252782e-02 -1.573077662981350877e-01 2.915537637744874955e-01 1.102924157383278342e-01 -5.468752302727507980e-02 -1.070154930663314713e-02 4.478239870171527026e-02 1.418599087413695559e-01 -2.019344589795320222e-02 -3.331882577715045146e-02
2.501137994587334101e-01 -3.431044892636392341e-02 -1.619337983324403152e-01 -2.505096979562336235e-01 -3.277298053088924940e-02 1.099411515953970381e-01 1.252215789004596513e-01 -1.416833767837233360e-01 -5.443421792288670458e-02 -1.199443892257016780e-01 -1.878653813180092584e-03 5.887055395027177181e-03 -4.285437970375790412e-02 2.720243824559235302e-01 1.032501635974449744e-01 -9.589583092904832573e-02 -4.794778690935547205e-02 2.256451742928659160e-02 1.338689194555485185e-01 -1.343108407034400605e-02 -2.527487176182878492e-02
1.940824635420994870e-01 5.322266259107698294e-02 -1.452024459714656990e-01 -2.704199111065272443e-01 -3.724407787588832064e-02 1.309322566040430069e-01 1.103093850205950077e-01 -2.159577710010008589e-01 -1.108043738421221197e-01 -1.538720522817718372e-01 6.580281428882275851e-02 5.727029921040851373e-02 2.087257714311303858e-01 2.657168488151424590e-01 9.916324051856155453e-02 -1.828101292864791061e-01 -1.299708696305056088e-01 -2.148881919974933094e-02 9.398447268095329321e-02 -1.569658609714850040e-03 -9.870105897608432571e-03
1.723615765518295151e-01 7.190106011497519878e-02 -1.323240462823572494e-01 -2.624420858699800796e-01 -3.992661286992581215e-02 1.325490692496336387e-01 7.008436989310407039e-02 -1.672678608138270795e-01 -8.430359999165773499e-02 -1.370806903680523436e-01 1.620489323415198052e-02 2.531025014425249478e-02 2.408879092224683605e-01 2.504499969358935929e-01 9.037392363517053606e-02 -1.432494872707823219e-01 -1.342326277388085631e-01 -2.800198968836825272e-02 5.943840784141284084e-02 2.871202559608136088e-03 -3.603658488740923201e-03
1.391862697650054770e-01 6.388302282166159751e-02 -1.149784059033104461e-01 -2.320489700439626879e-01 -4.382934210310904938e-02 1.224908100071293304e-01 2.644132994046175661e-02 -7.558344578902237432e-02 -4.955076701879498197e-02 -1.067723695313033960e-01 -5.432484318536455470e-02 -9.640557788394113134e-03 1.958131760671501798e-01 2.061329165227716032e-01 7.406145543585808400e-02 -3.279195527378801073e-02 -1.038709822180866604e-01 -2.387454602031347309e-02 1.017251907643670732e-02 7.592725373216909455e-03 1.492062709893073958e-03
7.946241802703155055e-02 1.685461105671536008e-02 -9.609180042820060497e-02 -1.703833181939477803e-01 -5.454004453775298383e-02 9.137423711378750424e-02 -6.970775467090746524e-04 4.540630264640553582e-02 -1.031536957988593919e-02 -7.202673564788733551e-02 -1.041233617252604743e-01 -2.796722837075425738e-02 1.177005873113722012e-01 1.469964076395122998e-01 5.537354482947674794e-02 9.091534658362876442e-02 -6.334741056682818838e-02 -1.655142654687493872e-02 -4.497122053348834303e-02 1.275344406514098035e-02 4.178042982451483749e-03
-1.926054674979769607e-02 -6.509123571908534411e-02 -7.974667921604067233e-02 -7.159072793775557442e-02 -7.889610679791476955e-02 3.027129694816599326e-02 -1.551084958942400976e-02 1.908518721528993101e-01 4.777300330200343753e-02 -2.697277700782959101e-02 -1.082069937918254121e-01 -2.555558482818204649e-02 4.771052549001970206e-02 8.091056629129984856e-02 3.506599336379357529e-02 1.742274776922754786e-01 -3.661888837951114695e-02 -1.164653264064558977e-02 -8.860305047542081647e-02 1.705078624413754185e-02 3.838503070905303818e-03
-1.484032125615296072e-01 -1.469736276636202654e-01 -6.563039609657463080e-02 4.850026560232111039e-02 -1.088754806690176574e-01 -5.219864353935342594e-02 -2.146562784731750537e-02 3.243754410032768098e-01 1.225698457248404621e-01 4.362853892961399138e-02 -4.682766001351865853e-02 -4.800969907859696691e-03 -2.778802246559925956e-02 -1.973800064631538176e-02 7.446018214706951431e-03 2.029006796274122060e-01 -1.927350511080173218e-02 -9.035268632130281224e-03 -9.737267270696839394e-02 1.731278167792942371e-02 1.649465658438107555e-03
-2.368253602035687300e-01 -1.543622588510236426e-01 -4.257793466900517548e-02 1.222265520023684965e-01 -1.097014219168224169e-01 -9.739252162501425836e-02 -2.370377333422459334e-02 3.441348332296623735e-01 1.490560157081415593e-01 1.567298851038361196e-01 1.088556317509718069e-01 3.124348255587340931e-02 -1.376468987530341803e-01 -1.987601233321509564e-01 -3.113729598653479716e-02 1.909171267565267782e-01 -3.338680575035415238e-03 -1.003326811771081649e-02 -7.169753157190390802e-02 1.317201969439827508e-02 8.415735563175505939e-04
-2.318762433193097272e-01 -8.567620923880329975e-02 -6.218316353709668967e-03 1.121578026580990345e-01 -6.673442788529135306e-02 -6.328585835205902121e-02 -4.054182648521257454e-02 2.449068523281481002e-01 8.424790989258088003e-02 2.813592360531708692e-01 2.955030299787367865e-01 5.957765880013873167e-02 -2.510536405859982167e-01 -4.060102871149807724e-01 -6.144628531016094186e-02 1.653466295287766008e-01 1.069769265157242272e-02 -1.526803458680079696e-02 -3.539190642745853460e-02 7.313349280618030787e-03 2.392977332078305083e-03
-1.759933114894124961e-01 -1.892558340225691110e-02 2.526067927120531631e-02 6.380902646656316790e-02 -1.461286602508492932e-02 6.104210785979702000e-03 -7.488688246298806639e-02 1.411442164062340632e-01 -1.247463361528434317e-02 3.140064382070130722e-01 3.231746328835696236e-01 5.613387151918169948e-02 -2.655401111692263227e-01 -4.539616221469919832e-01 -5.722684756339101869e-02 1.471672831697361239e-01 2.054172756097035965e-02 -2.263486281759420626e-02 -8.562442721685463096e-03 2.639494723559811067e-03 4.837582419902840790e-03
-1.196538031223929738e-01 1.329178168955063959e-02 4.372264131309566704e-02 2.391979743969263952e-02 1.767263330612875091e-02 5.714529216437356368e-02 -1.184774719068045212e-01 8.879871144216823498e-02 -8.310736843595595280e-02 2.404797208508412942e-01 1.598176259895870699e-01 3.942607046511125563e-02 -1.717054309708315740e-01 -3.048881743579759940e-01 -3.394833472719563372e-02 1.324255534435555270e-01 2.627364257842145986e-02 -3.086383343169570026e-02 1.301168568800709080e-02 -9.663234920151172851e-04 7.625532652266804774e-03
-8.215390046080993380e-02 1.600897515706717691e-02 5.128662175059331418e-02 6.285267885563845976e-03 3.035316087958830553e-02 7.864321307006620632e-02 -1.536503203268139162e-01 7.566973201824764295e-02 -1.202537443836392689e-01 1.524278635166992080e-01 -2.747979859314616385e-02 3.210583062745139826e-02 -7.125514752540507146e-02 -1.187197726887529725e-01 -1.306516463818247105e-02 1.174360721962739718e-01 2.787559424651144327e-02 -3.899073124185668121e-02 3.091011329242438974e-02 -3.707891019515436194e-03 1.027407765970244843e-02
-6.159283820246846952e-02 3.189762267623975564e-03 5.181956005791796271e-02 5.110273643729797144e-03 3.301985787684309087e-02 8.099351008613915603e-02 -1.695208158561673506e-01 7.454590273355254926e-02 -1.364329265840530658e-01 1.007849896826299163e-01 -1.333328444021077974e-01 3.370222871225393713e-02 -2.169188494421334101e-02 1.286888660662533499e-03 3.815620250878338972e-03 1.049642667947008473e-01 2.668774448780831740e-02 -4.599976472714981113e-02 4.194606030385608642e-02 -5.397311624382649005e-03 1.210177220401350423e-02
-5.571179918933601843e-02 -1.728424243048006306e-02 4.728588205680020473e-02 1.501241548937598189e-02 3.008437773288955008e-02 7.179435932496182338e-02 -1.633589609325467040e-01 7.337599927639865127e-02 -1.387093815112300232e-01 7.262626553259382556e-02 -1.724751678988847015e-01 3.809788988426523332e-02 -1.164159612216786148e-02 6.773299301361411506e-02 2.000647526060928341e-02 9.648728754916102712e-02 2.470686360448528726e-02 -5.151966656039601994e-02 4.658638767291974070e-02 -6.140823298022846100e-03 1.304449296705698785e-02
-6.130065801506798945e-02 -3.892804774160303627e-02 4.023010591217109078e-02 3.147081951618624363e-02 2.266710445390186443e-02 5.554411182729572516e-02 -1.339849276397750977e-01 6.488996974698300890e-02 -1.310266675199295572e-01 5.056558152044026561e-02 -1.687978215874502141e-01 4.251869644727244990e-02 -2.397353350020539967e-02 1.040769790203968231e-01 3.504784137397443100e-02 9.165500160220824144e-02 2.211308309891192592e-02 -5.542383561146859566e-02 4.556771651621371877e-02 -6.021318413207864088e-03 1.310974757068444560e-02
-7.205527489533669616e-02 -5.554611728792729214e-02 3.367173542624048166e-02 4.840030110314713641e-02 1.123880706762580076e-02 3.547109641137207586e-02 -7.840050091157794998e-02 3.565606158808442422e-02 -1.172525982595184479e-01 2.212480733029652952e-02 -1.239958825000939263e-01 4.704101017147793717e-02 -4.620807552249640848e-02 1.212528237326368080e-01 4.666953715602895764e-02 8.609360216050863934e-02 1.651913348849980839e-02 -5.795899496011894247e-02 4.004514073545874242e-02 -5.124877510893073411e-03 1.235821405451794155e-02
-7.853954618203391747e-02 -6.415931359021190272e-02 2.946433044326000894e-02 5.857852802907372036e-02 -1.833042439328591306e-03 1.542579748981816497e-02 1.307184950695439163e-02 -3.784376202679722717e-02 -1.054297907715640165e-01 -2.348996037765803055e-02 -2.285371513677345034e-02 5.453659925923206447e-02 -7.670444686000628398e-02 1.228609974708914226e-01 5.349941615823457924e-02 7.786874531180525139e-02 7.357726524850099342e-03 -5.816884841748982959e-02 2.921493341599982682e-02 -3.528942224697821737e-03 1.067244441644154586e-02
-2.544800986302157148e-02 -4.709073531072754254e-02 3.507766617311070673e-02 3.556211347080517199e-02 -3.003012745170202322e-02 -1.840251813188772262e-02 1.798118113760694969e-01 -2.723101348848894765e-01 -1.119160160968253465e-01 -1.408381522606149683e-01 2.473171588969659551e-01 9.169403095142276972e-02 -7.565641370277129130e-02 1.280136943202891953e-01 4.669951622136765679e-02 3.452313059744600149e-02 -2.703906005280657179e-02 -4.857241076299040339e-02 -7.954479617912861913e-03 1.139153060803048964e-03 5.419731645802326227e-03
1.473748740561380555e-01 -1.459152586708225424e-03 2.675258771489595969e-02 5.981414888846234897e-04 -9.988335515150002786e-02 -7.513031453042098851e-02 2.279411696056838840e-02 -9.678646113773828330e-02 -3.803340661164992392e-02 -1.355671846560216609e-01 7.874045219966392672e-02 9.187750488817830741e-02 9.034137346645802757e-02 1.762689337710856008e-01 -6.445139093347743500e-03 -6.850560957744591950e-02 -6.437220094956387639e-02 -1.154939635518281021e-04 -5.703576316064898344e-02 7.491783854760881121e-03 1.094261595896216287e-03
2.636183142414335601e-01 2.068298398032782787e-02 -4.267414535725338846e-03 -5.244948038450294309e-03 -1.423229130369264017e-01 -1.051112824856156314e-01 -7.285895038792419842e-02 6.385520348315690264e-02 2.620494269627308970e-02 -1.192387756157915341e-01 -6.670198056071378889e-02 7.092532638461192251e-02 1.440137220376154770e-01 1.711707957352802123e-01 -4.601801956110391362e-02 -1.298665342555961610e-01 -5.776251124029189998e-02 5.850160061612913465e-02 -8.042282798128688737e-02 1.107842163916714084e-02 -2.351531145692386073e-04
3.411632033722729607e-01 4.148984372120612107e-02 -3.138890416269646266e-02 -8.028887349551106986e-03 -1.566155224257687884e-01 -1.140917866158836502e-01 -1.234570820770769933e-01 1.611631872292401124e-01 6.527398974689621602e-02 -1.108521963648751163e-01 -1.626012567682830201e-01 5.135244199696301082e-02 1.617605573871125635e-01 1.401552157824618727e-01 -8.630427837095915045e-02 -1.578546914078132746e-01 -3.864363228639147718e-02 1.169226742745903408e-01 -1.027310064042040033e-01 1.505216474753518288e-02 -1.764136868910314709e-03
3.420861780614055103e-01 5.677531038888139481e-02 -3.099593672304237421e-02 -1.460114179370032572e-02 -1.212869165633735924e-01 -9.162255427763067728e-02 -1.304181387734147102e-01 1.751247413476698656e-01 6.482615496124488619e-02 -1.041082436374224374e-01 -2.078881059519410712e-01 3.606862083544697811e-02 1.560411893541256978e-01 9.427017368785174656e-02 -1.192733312451356165e-01 -1.308606256640484911e-01 -1.565812239067620668e-02 1.446325351976255891e-01 -1.181392175469452438e-01 1.866291948158783909e-02 -3.635437326441292877e-03
2.720606350134943674e-01 5.564119669069102908e-02 -5.808739586260732064e-03 -2.302320227117542195e-02 -4.785126768870240355e-02 -4.961499318107290973e-02 -1.031476794169646632e-01 1.307220431921997938e-01 3.771587534498360705e-02 -9.024655117403168614e-02 -2.140982461969219985e-01 2.297867076074092130e-02 1.293024341753808426e-01 4.580204687770333960e-02 -1.337068885209306002e-01 -6.781321143887719671e-02 1.029073840956477859e-02 1.339781399268682172e-01 -1.171324763098937488e-01 1.949354013753292966e-02 -5.542013322261030508e-03
1.386888641063069583e-01 2.977450835427720641e-02 3.514081247197163582e-02 -2.067151685928060589e-02 2.704646483052315989e-02 -1.157572445373068921e-02 -5.080783088032124473e-02 7.638249329553700728e-02 1.165928531337971814e-02 -6.135274856942149468e-02 -1.873992916984038304e-01 9.882498615870228056e-03 7.820031480289260650e-02 -6.612363656780754356e-03 -1.278809225420653173e-01 1.206114877070720709e-02 4.522617114403596622e-02 8.893441427823826906e-02 -9.611817994881595439e-02 1.558196630874376758e-02 -6.160415105731326287e-03
-1.309272686634978082e-02 -1.931932217292313750e-02 5.817969847372733011e-02 -2.722438518399125044e-03 7.992043438204317340e-02 1.193979269146307545e-02 2.752011349404760374e-02 3.781743392824934991e-02 4.758083903584440643e-04 -8.254630225772175908e-03 -1.185325449410716825e-01 -1.675845179053462837e-03 -8.690946468308801201e-03 -7.137516663089481239e-02 -1.017471479871794454e-01 6.046854611916608474e-02 8.593244540103782414e-02 3.552231279057849189e-02 -5.522791753438379553e-02 5.556720033559258906e-03 -2.694670601961909277e-03
-1.529570480130980903e-01 -8.572490593670338554e-02 4.386009249945989341e-02 2.454185018995375459e-02 1.107743433547159484e-01 2.401600812794084730e-02 1.423448702597387983e-01 1.265831324030977992e-02 -2.251463802383455674e-03 7.870255413593388316e-02 8.054701227424220997e-03 -3.969115122295171875e-03 -1.536174616256965331e-01 -1.596902021063807131e-01 -5.714328670374198282e-02 6.588575808366206599e-02 1.223984045518743818e-01 -1.060621279353203897e-02 -4.900523030493863889e-03 -8.470602909172746456e-03 6.093977794551912533e-03
-2.548397959922126255e-01 -1.494878068087402700e-01 8.884910506829503049e-03 5.039522021089119785e-02 1.250331170231588906e-01 2.894815572993265224e-02 2.603702907713589809e-01 -3.979965178532676728e-03 -4.429034093803431264e-03 1.800480443540557474e-01 1.616613642189507483e-01 1.105111652133721097e-02 -3.251978341284256779e-01 -2.585028983909561928e-01 -1.501508943688475116e-02 5.272309720554447382e-02 1.458546320532679574e-01 -4.672980381911121667e-02 3.650097757878793120e-02 -2.057844291714845328e-02 1.728974459170002850e-02
-2.750542735157636698e-01 -1.744643277350714228e-01 -7.069145882172957716e-03 6.099860479071204239e-02 1.359255964663316496e-01 3.183622472767302231e-02 2.866269640675132013e-01 -1.879090900753641394e-02 -6.872353629941057966e-03 2.304412591043153713e-01 2.316051461795745614e-01 2.858264767431092576e-02 -4.025453653642908636e-01 -3.020991956842625226e-01 -4.273173807282687107e-04 4.304217309418145038e-02 1.539933055168810072e-01 -7.207455817064031822e-02 5.649063782333245409e-02 -2.616961573591685547e-02 2.602445123943118721e-02
-2.193060160805868908e-01 -1.485049254109978012e-01 1.427461166522565536e-02 5.885790412167259816e-02 1.488363406358827190e-01 3.410254950755713804e-02 1.788271302059653289e-01 -3.032261617150736749e-02 -9.698201926035076139e-05 1.999048813983089201e-01 1.522001151798465790e-01 1.337390273131033175e-02 -3.185843906082279076e-01 -2.469869778017004525e-01 -2.356210553832731487e-03 4.962476337389341158e-02 1.484850764929519229e-01 -8.741715475528179236e-02 5.067572758897456731e-02 -2.370701292447560324e-02 2.811923200221427832e-02
-1.460766211185632601e-01 -1.070331822575433245e-01 4.425239145223677784e-02 5.563919123005944822e-02 1.567992534728616660e-01 3.381371175454261219e-02 2.791899447146145921e-02 -3.323732180020046861e-02 1.738657234475795080e-02 1.351976656791367692e-01 3.197784110150282515e-03 -3.492386276928900746e-02 -1.665300569896767668e-01 -1.333202459955761254e-01 9.571960750380695965e-03 7.218588694672657680e-02 1.280091691783512564e-01 -9.157689148171170579e-02 2.166493978085574576e-02 -1.441545670804331332e-02 2.147611794908267646e-02
-9.503641391531648941e-02 -7.339147731870902802e-02 6.081358819193222187e-02 6.090074859630460052e-02 1.523511417920245248e-01 3.017724598675179670e-02 -8.515376103324383272e-02 -3.086357632135831516e-02 3.687173068529223802e-02 8.476063932738731044e-02 -1.154900040526324195e-01 -8.611694777914288834e-02 -4.280280337007915520e-02 -2.053493984806348260e-02 3.497065685069247060e-02 1.013562374302244273e-01 8.950242243558176325e-02 -8.323720915633367468e-02 -2.402464703527686790e-02 -1.573566686843050734e-03 6.520935220807847106e-03
-7.336386366847423568e-02 -4.560983118947683351e-02 6.546517699377318866e-02 7.853702650072758029e-02 1.358072742890686080e-01 2.485830159320306584e-02 -1.534593901902743251e-01 -2.750077879667650257e-02 5.393398405047700184e-02 5.889703631502207770e-02 -1.797890314001774903e-01 -1.237733792141238603e-01 4.312239151944451815e-02 7.454826814865644913e-02 5.701020639311325106e-02 1.186444907819676348e-01 3.347597161535809801e-02 -6.555753102696067203e-02 -7.237763983634577791e-02 9.068178755315129541e-03 -1.193670736741449592e-02
-7.465507178280478273e-02 -2.043368979720259701e-02 6.276978648286661577e-02 1.075027685777371483e-01 1.107825194634446814e-01 1.919164117937941991e-02 -1.891437853375382006e-01 -2.566202850785803680e-02 6.641679377449008492e-02 4.714082040444948773e-02 -2.052588956418765209e-01 -1.469304331269401798e-01 1.149095003328921838e-01 1.698295025272277270e-01 6.856541344192089438e-02 9.578203389372320908e-02 -4.157885532000764328e-02 -4.580940023335245553e-02 -1.015363175105265109e-01 1.232149869833984272e-02 -2.420380151836438662e-02
-9.061046514556163334e-02 -1.537879772014480364e-03 5.411108165086546407e-02 1.419166787038634303e-01 8.413020478012755987e-02 1.372866357482950377e-02 -1.990875790578401916e-01 -2.629775952806785722e-02 7.419870093395239397e-02 3.945239856365913289e-02 -2.061918462120994888e-01 -1.580867077762664608e-01 1.862035743633768392e-01 2.746676824124765770e-01 6.710908906892386339e-02 2.255279319790199147e-02 -1.340620093189221207e-01 -2.631771129024867290e-02 -1.004274520474670307e-01 9.291607638499765551e-03 -2.474311616205609674e-02
-1.034035042026593826e-01 5.953235595869208439e-03 4.496278731442222842e-02 1.646880156885398017e-01 6.822283962839359450e-02 8.978241559299035557e-03 -1.854711698563115130e-01 -3.534526661225750183e-02 7.263824687431580385e-02 3.065655107769862595e-02 -1.846724308822017546e-01 -1.555049086124150881e-01 2.327408025397892100e-01 3.477266646428837094e-01 5.555876711652647792e-02 -6.949913534315600716e-02 -2.063335654300642308e-01 -1.276959059432854725e-02 -6.971155990390072443e-02 4.448523057376958453e-03 -1.386354365781990693e-02
-1.032234755444247642e-01 5.530237668808951276e-03 4.090322077543619844e-02 1.652955674157725874e-01 6.584683157858248204e-02 4.415870044529491764e-03 -1.416422391297422756e-01 -5.978797505611690294e-02 5.252635637538005664e-02 2.025803201470346981e-02 -1.325974059930613846e-01 -1.303449651713959045e-01 2.123497930585919735e-01 3.299171972152004639e-01 4.442491248861985681e-02 -1.301628796304622193e-01 -2.098794255149617760e-01 -1.476168148836141600e-02 -2.287479818443874380e-02 9.704886794806998236e-04 2.836235553724234318e-03
-8.232457030276385535e-02 7.249894449352244433e-03 4.573843778023512635e-02 1.363516282953730063e-01 7.309796015755415377e-02 -5.613232885715741536e-04 -5.189566471778291751e-02 -1.129849266134557301e-01 -3.244423925351310085e-03 1.724870978185392284e-02 -3.024322049932391676e-02 -6.106802458180508181e-02 9.228276220195923141e-02 1.933420371925078651e-01 3.777038273650851208e-02 -1.334022641932008646e-01 -1.289370803859615777e-01 -3.687949541748116594e-02 2.173945035662894557e-02 -1.524715722740541081e-03 1.824444669646549388e-02
-4.150331630288491697e-02 2.033763337515682307e-02 5.356744755350575232e-02 8.602757622586904018e-02 7.723481406395710236e-02 -6.699678327355556434e-03 8.559835622864414573e-02 -2.027109321984245371e-01 -1.012368868116118731e-01 4.089684443906912992e-02 1.187084598339081809e-01 6.409709288856554887e-02 -1.174982414758528604e-01 7.953605442765764033e-03 2.600089993252702528e-02 -1.106997299348077973e-01 -1.733031660293885001e-02 -6.602871143124625086e-02 5.717851081996326579e-02 -4.193263914424476269e-03 3.029983619561535044e-02
3.123376378512038309e-03 4.040602080500760307e-02 4.893215954705477932e-02 4.082217959709350669e-02 6.010941439991142332e-02 -1.615959039270533498e-02 2.031762504870178454e-01 -2.793211738308142289e-01 -1.825330671869166699e-01 8.448465709124186596e-02 2.254168088912035517e-01 1.771474797939186219e-01 -3.101064857654735607e-01 -9.717989137599965244e-02 1.299481924987485638e-02 -1.016105195538948430e-01 5.742430830250010859e-02 -7.810790934763764404e-02 8.011059318757063341e-02 -6.855487191808823551e-03 3.772605691434392089e-02
4.352363791196228737e-02 5.737571444873497406e-02 2.416662336357900537e-02 1.642893918214633278e-02 5.574923445445878825e-03 -3.361116023075336884e-02 1.900786899463252633e-01 -2.304232613806986574e-01 -1.474668167127857199e-01 8.003608261179744054e-02 1.931458620050857111e-01 1.558737591024227653e-01 -3.104446372811978661e-01 -1.077137533205925202e-01 2.655888078671263947e-02 -1.058732032594123795e-01 9.146556270562546109e-02 -6.369445810022590637e-02 8.625043946631143210e-02 -9.424996481533354578e-03 3.817317179105057801e-02
1.196861990249030450e-01 6.136915220894645362e-02 -6.844673131018552681e-02 2.628284712849972282e-02 -1.974822335332967749e-01 -8.718889219775437238e-02 -1.897212037332298568e-02 1.479158856280564649e-01 9.742568885853648830e-02 -7.251262276347113234e-02 1.117180411370414898e-02 -9.323638444330768771e-02 1.127289989836260595e-02 -1.198989835401200743e-01 1.065605620353684141e-01 -1.113226568602160155e-01 1.139678080111982128e-01 2.838780946064312430e-02 4.556545394524476322e-02 -1.704343288848842591e-02 1.649794759669956021e-02
1.463947180279717986e-01 5.652164533002067281e-02 -9.983841226452570827e-02 2.797257626577179593e-02 -2.497960625037971838e-01 -9.387694913786027995e-02 -7.192749105765802731e-02 2.564409249072229779e-01 1.609995622105304391e-01 -1.215608419168199977e-01 -2.385675398496666169e-02 -1.628554874698859845e-01 1.031337440366785763e-01 -1.366677711662174499e-01 1.268428138438532360e-01 -8.569621242305158759e-02 1.217479668203663296e-01 7.155493817879204910e-02 1.683558489174911878e-03 -2.439000082469616401e-02 -2.826465360903732474e-03
1.542535011783112142e-01 5.523696781825962465e-02 -9.878400277092365400e-02 -8.127309186700794677e-03 -1.876618527749379650e-01 -6.863092515588573028e-02 -6.770918459637258191e-02 2.196993434747133156e-01 1.663243687197714649e-01 -1.408429345128902610e-01 -3.231943789574805853e-02 -1.920652786791381683e-01 1.399167202335066806e-01 -1.493177540315960838e-01 1.308485414781915546e-01 -2.903007108342243320e-02 1.294927986691782051e-01 8.588138328803383847e-02 -4.846077345449929796e-02 -3.513006525986907963e-02 -2.357408688004930183e-02
1.377198152447156043e-01 5.716652947824128056e-02 -7.029473757114973465e-02 -6.572434421385386916e-02 -6.955266571539886478e-02 -3.211662926162142662e-02 -3.064338702842468731e-02 1.125286586087382856e-01 1.490043365303278522e-01 -1.412790450671569664e-01 -3.010921459148061669e-02 -2.008188572256331406e-01 1.443822125731508144e-01 -1.567661376614069291e-01 1.257944721542133826e-01 4.671113760861730219e-02 1.344700434243467635e-01 6.982062610901799971e-02 -9.116644053911567014e-02 -4.773721354303991221e-02 -4.138921073515495347e-02
1.044925721697404913e-01 5.704712743756125415e-02 -3.433677702491180067e-02 -1.159287885544079133e-01 3.305400212964736822e-02 -3.072519953777952135e-03 1.561585345121066677e-02 1.344296256793103654e-02 1.306363226057167537e-01 -1.281980938542592874e-01 -2.256328329966715909e-02 -1.956601954164081114e-01 1.243822164930435542e-01 -1.568602914669560700e-01 1.160035562405184878e-01 1.206253202432231858e-01 1.362808201084581006e-01 4.078793250015427113e-02 -1.209890799485507235e-01 -6.040128605490704961e-02 -5.435837037335912447e-02
6.239317126067000369e-02 4.778081945625983762e-02 -7.303579087797528076e-03 -1.429057821717705790e-01 9.572192149684338736e-02 1.394643603059174397e-02 6.868399272952128987e-02 -5.236597094692139326e-02 1.110510454998060587e-01 -1.032377708791831911e-01 -1.027634023067140918e-02 -1.768104081416113083e-01 7.751398446828608457e-02 -1.466658665897744573e-01 1.063839272335872360e-01 1.555094337543529992e-01 1.311081714968795053e-01 5.852705453952991230e-03 -1.179570291618766281e-01 -6.530273468261547920e-02 -5.312012698852919268e-02