 Set GAUSS_MDEF to "14GB".
 Entering Gaussian System, Link 0=g16
 Initial command:
 /home/sekinelabo/g16/l1.exe "/home/sekinelabo/g16temp/Gau-1142254.inp" -scrdir="/home/sekinelabo/g16temp/"
 Entering Link 1 = /home/sekinelabo/g16/l1.exe PID=   1142256.
  
 Copyright (c) 1988-2017, Gaussian, Inc.  All Rights Reserved.
  
 This is part of the Gaussian(R) 16 program.  It is based on
 the Gaussian(R) 09 system (copyright 2009, Gaussian, Inc.),
 the Gaussian(R) 03 system (copyright 2003, Gaussian, Inc.),
 the Gaussian(R) 98 system (copyright 1998, Gaussian, Inc.),
 the Gaussian(R) 94 system (copyright 1995, Gaussian, Inc.),
 the Gaussian 92(TM) system (copyright 1992, Gaussian, Inc.),
 the Gaussian 90(TM) system (copyright 1990, Gaussian, Inc.),
 the Gaussian 88(TM) system (copyright 1988, Gaussian, Inc.),
 the Gaussian 86(TM) system (copyright 1986, Carnegie Mellon
 University), and the Gaussian 82(TM) system (copyright 1983,
 Carnegie Mellon University). Gaussian is a federally registered
 trademark of Gaussian, Inc.
  
 This software contains proprietary and confidential information,
 including trade secrets, belonging to Gaussian, Inc.
  
 This software is provided under written license and may be
 used, copied, transmitted, or stored only in accord with that
 written license.
  
 The following legend is applicable only to US Government
 contracts under FAR:
  
                    RESTRICTED RIGHTS LEGEND
  
 Use, reproduction and disclosure by the US Government is
 subject to restrictions as set forth in subparagraphs (a)
 and (c) of the Commercial Computer Software - Restricted
 Rights clause in FAR 52.227-19.
  
 Gaussian, Inc.
 340 Quinnipiac St., Bldg. 40, Wallingford CT 06492
  
  
 ---------------------------------------------------------------
 Warning -- This program may not be used in any manner that
 competes with the business of Gaussian, Inc. or will provide
 assistance to any competitor of Gaussian, Inc.  The licensee
 of this program is prohibited from giving any competitor of
 Gaussian, Inc. access to this program.  By using this program,
 the user acknowledges that Gaussian, Inc. is engaged in the
 business of creating and licensing software in the field of
 computational chemistry and represents and warrants to the
 licensee that it is not a competitor of Gaussian, Inc. and that
 it will not use this program in any manner prohibited above.
 ---------------------------------------------------------------
  

 Cite this work as:
 Gaussian 16, Revision B.01,
 M. J. Frisch, G. W. Trucks, H. B. Schlegel, G. E. Scuseria, 
 M. A. Robb, J. R. Cheeseman, G. Scalmani, V. Barone, 
 G. A. Petersson, H. Nakatsuji, X. Li, M. Caricato, A. V. Marenich, 
 J. Bloino, B. G. Janesko, R. Gomperts, B. Mennucci, H. P. Hratchian, 
 J. V. Ortiz, A. F. Izmaylov, J. L. Sonnenberg, D. Williams-Young, 
 F. Ding, F. Lipparini, F. Egidi, J. Goings, B. Peng, A. Petrone, 
 T. Henderson, D. Ranasinghe, V. G. Zakrzewski, J. Gao, N. Rega, 
 G. Zheng, W. Liang, M. Hada, M. Ehara, K. Toyota, R. Fukuda, 
 J. Hasegawa, M. Ishida, T. Nakajima, Y. Honda, O. Kitao, H. Nakai, 
 T. Vreven, K. Throssell, J. A. Montgomery, Jr., J. E. Peralta, 
 F. Ogliaro, M. J. Bearpark, J. J. Heyd, E. N. Brothers, K. N. Kudin, 
 V. N. Staroverov, T. A. Keith, R. Kobayashi, J. Normand, 
 K. Raghavachari, A. P. Rendell, J. C. Burant, S. S. Iyengar, 
 J. Tomasi, M. Cossi, J. M. Millam, M. Klene, C. Adamo, R. Cammi, 
 J. W. Ochterski, R. L. Martin, K. Morokuma, O. Farkas, 
 J. B. Foresman, and D. J. Fox, Gaussian, Inc., Wallingford CT, 2016.
 
 ******************************************
 Gaussian 16:  ES64L-G16RevB.01 20-Dec-2017
                 7-Dec-2023 
 ******************************************
 %nproc=15
 Will use up to   15 processors via shared memory.
 -------------------------
 #P B3LYP/6-311+g(d) force
 -------------------------
 1/10=7,30=1,38=1/1,3;
 2/12=2,17=6,18=5,40=1/2;
 3/5=4,6=6,7=11,11=2,25=1,30=1,71=1,74=-5/1,2,3;
 4//1;
 5/5=2,38=5/2;
 6/7=2,8=2,9=2,10=2,28=1/1;
 7/29=1/1,2,3,16;
 1/10=7,30=1/3;
 99//99;
 Leave Link    1 at Thu Dec  7 11:10:20 2023, MaxMem=           0 cpu:               0.3 elap:               0.0
 (Enter /home/sekinelabo/g16/l101.exe)
 -----
 DPGEN
 -----
 Symbolic Z-matrix:
 Charge =  0 Multiplicity = 2
 Na                    12.6913   13.8403   12.1556 
 Na                    11.8495   15.641    14.8921 
 Na                    14.9297   16.718    13.6288 
 Na                    11.6302   12.1871   15.3294 
 Na                    15.0864   10.949    13.3694 
 Na                    16.5902   14.0251   12.4463 
 Na                    14.4796   13.8964   15.4353 
 
 ITRead=  0  0  0  0  0  0  0
 MicOpt= -1 -1 -1 -1 -1 -1 -1
 NAtoms=      7 NQM=        7 NQMF=       0 NMMI=      0 NMMIF=      0
                NMic=       0 NMicF=      0.
                    Isotopes and Nuclear Properties:
 (Nuclear quadrupole moments (NQMom) in fm**2, nuclear magnetic moments (NMagM)
  in nuclear magnetons)

  Atom         1           2           3           4           5           6           7
 IAtWgt=          23          23          23          23          23          23          23
 AtmWgt=  22.9897697  22.9897697  22.9897697  22.9897697  22.9897697  22.9897697  22.9897697
 NucSpn=           3           3           3           3           3           3           3
 AtZEff=  -0.0000000  -0.0000000  -0.0000000  -0.0000000  -0.0000000  -0.0000000  -0.0000000
 NQMom=   10.4000000  10.4000000  10.4000000  10.4000000  10.4000000  10.4000000  10.4000000
 NMagM=    2.2175200   2.2175200   2.2175200   2.2175200   2.2175200   2.2175200   2.2175200
 AtZNuc=  11.0000000  11.0000000  11.0000000  11.0000000  11.0000000  11.0000000  11.0000000
 Leave Link  101 at Thu Dec  7 11:10:20 2023, MaxMem=  1879048192 cpu:               2.4 elap:               0.2
 (Enter /home/sekinelabo/g16/l103.exe)

 GradGradGradGradGradGradGradGradGradGradGradGradGradGradGradGradGradGrad
 Berny optimization.
 Initialization pass.
 Trust Radius=3.00D-01 FncErr=1.00D-07 GrdErr=1.00D-07 EigMax=2.50D+02 EigMin=1.00D-04
 Number of steps in this run=      2 maximum allowed number of steps=      2.
 GradGradGradGradGradGradGradGradGradGradGradGradGradGradGradGradGradGrad

 Leave Link  103 at Thu Dec  7 11:10:20 2023, MaxMem=  1879048192 cpu:               0.2 elap:               0.0
 (Enter /home/sekinelabo/g16/l202.exe)
                          Input orientation:                          
 ---------------------------------------------------------------------
 Center     Atomic      Atomic             Coordinates (Angstroms)
 Number     Number       Type             X           Y           Z
 ---------------------------------------------------------------------
      1         11           0       12.691300   13.840300   12.155600
      2         11           0       11.849500   15.641000   14.892100
      3         11           0       14.929700   16.718000   13.628800
      4         11           0       11.630200   12.187100   15.329400
      5         11           0       15.086400   10.949000   13.369400
      6         11           0       16.590200   14.025100   12.446300
      7         11           0       14.479600   13.896400   15.435300
 ---------------------------------------------------------------------
                    Distance matrix (angstroms):
                    1          2          3          4          5
     1  Na   0.000000
     2  Na   3.382245   0.000000
     3  Na   3.932164   3.499070   0.000000
     4  Na   3.732561   3.488373   5.857286   0.000000
     5  Na   3.945812   5.900085   5.776955   4.161708   0.000000
     6  Na   3.914087   5.573805   3.377466   6.024293   3.546254
     7  Na   3.735987   3.202518   3.380452   3.324455   3.650112
                    6          7
     6  Na   0.000000
     7  Na   3.661327   0.000000
 Stoichiometry    Na7(2)
 Framework group  C1[X(Na7)]
 Deg. of freedom    15
 Full point group                 C1      NOp   1
 Largest Abelian subgroup         C1      NOp   1
 Largest concise Abelian subgroup C1      NOp   1
                         Standard orientation:                         
 ---------------------------------------------------------------------
 Center     Atomic      Atomic             Coordinates (Angstroms)
 Number     Number       Type             X           Y           Z
 ---------------------------------------------------------------------
      1         11           0       -0.268054    0.045447    2.096794
      2         11           0       -2.168566   -1.876612    0.063737
      3         11           0        1.204294   -2.759463   -0.232709
      4         11           0       -2.765590    1.547254   -0.235350
      5         11           0        1.126064    3.015330   -0.095388
      6         11           0        3.062520    0.047582    0.040741
      7         11           0       -0.190667   -0.019538   -1.637825
 ---------------------------------------------------------------------
 Rotational constants (GHZ):           0.7369202           0.6921502           0.4658950
 Leave Link  202 at Thu Dec  7 11:10:20 2023, MaxMem=  1879048192 cpu:               0.0 elap:               0.0
 (Enter /home/sekinelabo/g16/l301.exe)
 Standard basis: 6-311+G(d) (5D, 7F)
 Ernie: Thresh=  0.10000D-02 Tol=  0.10000D-05 Strict=F.
 There are   217 symmetry adapted cartesian basis functions of A   symmetry.
 There are   210 symmetry adapted basis functions of A   symmetry.
   210 basis functions,   350 primitive gaussians,   217 cartesian basis functions
    39 alpha electrons       38 beta electrons
       nuclear repulsion energy       339.3595315746 Hartrees.
 IExCor=  402 DFT=T Ex+Corr=B3LYP ExCW=0 ScaHFX=  0.200000
 ScaDFX=  0.800000  0.720000  1.000000  0.810000 ScalE2=  1.000000  1.000000
 IRadAn=      5 IRanWt=     -1 IRanGd=            0 ICorTp=0 IEmpDi=  4
 NAtoms=    7 NActive=    7 NUniq=    7 SFac= 1.00D+00 NAtFMM=   60 NAOKFM=F Big=F
 Integral buffers will be    131072 words long.
 Raffenetti 2 integral format.
 Two-electron integral symmetry is turned on.
 Leave Link  301 at Thu Dec  7 11:10:20 2023, MaxMem=  1879048192 cpu:               0.5 elap:               0.0
 (Enter /home/sekinelabo/g16/l302.exe)
 NPDir=0 NMtPBC=     1 NCelOv=     1 NCel=       1 NClECP=     1 NCelD=      1
         NCelK=      1 NCelE2=     1 NClLst=     1 CellRange=     0.0.
 One-electron integrals computed using PRISM.
 One-electron integral symmetry used in STVInt
 NBasis=   210 RedAO= T EigKep=  4.33D-06  NBF=   210
 NBsUse=   210 1.00D-06 EigRej= -1.00D+00 NBFU=   210
 Precomputing XC quadrature grid using
 IXCGrd= 4 IRadAn=           5 IRanWt=          -1 IRanGd=           0 AccXCQ= 0.00D+00.
 Generated NRdTot=       0 NPtTot=           0 NUsed=           0 NTot=          32
 NSgBfM=   211   211   211   211   211 MxSgAt=     7 MxSgA2=     7.
 Leave Link  302 at Thu Dec  7 11:10:20 2023, MaxMem=  1879048192 cpu:               2.0 elap:               0.1
 (Enter /home/sekinelabo/g16/l303.exe)
 DipDrv:  MaxL=1.
 Leave Link  303 at Thu Dec  7 11:10:20 2023, MaxMem=  1879048192 cpu:               0.5 elap:               0.0
 (Enter /home/sekinelabo/g16/l401.exe)
 ExpMin= 7.60D-03 ExpMax= 3.62D+04 ExpMxC= 1.21D+03 IAcc=3 IRadAn=         5 AccDes= 0.00D+00
 Harris functional with IExCor=  402 and IRadAn=       5 diagonalized for initial guess.
 HarFok:  IExCor=  402 AccDes= 0.00D+00 IRadAn=         5 IDoV= 1 UseB2=F ITyADJ=14
 ICtDFT=  3500011 ScaDFX=  1.000000  1.000000  1.000000  1.000000
 FoFCou: FMM=F IPFlag=           0 FMFlag=      100000 FMFlg1=           0
         NFxFlg=           0 DoJE=T BraDBF=F KetDBF=T FulRan=T
         wScrn=  0.000000 ICntrl=       500 IOpCl=  0 I1Cent=   200000004 NGrid=           0
         NMat0=    1 NMatS0=      1 NMatT0=    0 NMatD0=    1 NMtDS0=    0 NMtDT0=    0
 Petite list used in FoFCou.
 Harris En= -1135.90790518573    
 JPrj=0 DoOrth=F DoCkMO=F.
 Initial guess <Sx>= 0.0000 <Sy>= 0.0000 <Sz>= 0.5000 <S**2>= 0.7500 S= 0.5000
 Leave Link  401 at Thu Dec  7 11:10:21 2023, MaxMem=  1879048192 cpu:               4.5 elap:               0.3
 (Enter /home/sekinelabo/g16/l502.exe)
 Keep R1 and R2 ints in memory in canonical form, NReq=506573335.
 FoFCou: FMM=F IPFlag=           0 FMFlag=           0 FMFlg1=           0
         NFxFlg=           0 DoJE=F BraDBF=F KetDBF=F FulRan=T
         wScrn=  0.000000 ICntrl=       600 IOpCl=  0 I1Cent=           0 NGrid=           0
         NMat0=    1 NMatS0=  22155 NMatT0=    0 NMatD0=    1 NMtDS0=    0 NMtDT0=    0
 Symmetry not used in FoFCou.
 Two-electron integral symmetry not used.
 UHF open shell SCF:
 Using DIIS extrapolation, IDIIS=  1040.
 NGot=  1879048192 LenX=  1388082565 LenY=  1388035035
 Requested convergence on RMS density matrix=1.00D-08 within 128 cycles.
 Requested convergence on MAX density matrix=1.00D-06.
 Requested convergence on             energy=1.00D-06.
 No special actions if energy rises.

 Cycle   1  Pass 1  IDiag  1:
 E= -1136.10051299118    
 DIIS: error= 1.32D-02 at cycle   1 NSaved=   1.
 NSaved= 1 IEnMin= 1 EnMin= -1136.10051299118     IErMin= 1 ErrMin= 1.32D-02
 ErrMax= 1.32D-02  0.00D+00 EMaxC= 1.00D-01 BMatC= 1.94D-01 BMatP= 1.94D-01
 IDIUse=3 WtCom= 8.68D-01 WtEn= 1.32D-01
 Coeff-Com:  0.100D+01
 Coeff-En:   0.100D+01
 Coeff:      0.100D+01
 Gap=     0.037 Goal=   None    Shift=    0.000
 Gap=     0.056 Goal=   None    Shift=    0.000
 GapD=    0.037 DampG=0.250 DampE=0.500 DampFc=0.2500 IDamp=-1.
 Damping current iteration by 2.50D-01
 RMSDP=2.83D-02 MaxDP=2.57D+00              OVMax= 2.43D-01

 Cycle   2  Pass 1  IDiag  1:
 E= -1136.11377004148     Delta-E=       -0.013257050294 Rises=F Damp=T
 DIIS: error= 9.26D-03 at cycle   2 NSaved=   2.
 NSaved= 2 IEnMin= 2 EnMin= -1136.11377004148     IErMin= 2 ErrMin= 9.26D-03
 ErrMax= 9.26D-03  0.00D+00 EMaxC= 1.00D-01 BMatC= 7.36D-02 BMatP= 1.94D-01
 IDIUse=3 WtCom= 9.07D-01 WtEn= 9.26D-02
 Coeff-Com: -0.127D+01 0.227D+01
 Coeff-En:   0.000D+00 0.100D+01
 Coeff:     -0.115D+01 0.215D+01
 Gap=     0.053 Goal=   None    Shift=    0.000
 Gap=     0.056 Goal=   None    Shift=    0.000
 RMSDP=1.65D-02 MaxDP=1.54D+00 DE=-1.33D-02 OVMax= 1.62D-01

 Cycle   3  Pass 1  IDiag  1:
 E= -1136.13561900939     Delta-E=       -0.021848967913 Rises=F Damp=F
 DIIS: error= 2.61D-03 at cycle   3 NSaved=   3.
 NSaved= 3 IEnMin= 3 EnMin= -1136.13561900939     IErMin= 3 ErrMin= 2.61D-03
 ErrMax= 2.61D-03  0.00D+00 EMaxC= 1.00D-01 BMatC= 2.99D-03 BMatP= 7.36D-02
 IDIUse=3 WtCom= 9.74D-01 WtEn= 2.61D-02
 Coeff-Com: -0.199D+00 0.365D+00 0.834D+00
 Coeff-En:   0.000D+00 0.000D+00 0.100D+01
 Coeff:     -0.194D+00 0.355D+00 0.838D+00
 Gap=     0.048 Goal=   None    Shift=    0.000
 Gap=     0.056 Goal=   None    Shift=    0.000
 RMSDP=6.34D-03 MaxDP=8.40D-01 DE=-2.18D-02 OVMax= 1.14D-01

 Cycle   4  Pass 1  IDiag  1:
 E= -1136.13281250071     Delta-E=        0.002806508683 Rises=F Damp=F
 DIIS: error= 3.92D-03 at cycle   4 NSaved=   4.
 NSaved= 4 IEnMin= 3 EnMin= -1136.13561900939     IErMin= 3 ErrMin= 2.61D-03
 ErrMax= 3.92D-03  0.00D+00 EMaxC= 1.00D-01 BMatC= 4.87D-03 BMatP= 2.99D-03
 IDIUse=3 WtCom= 1.38D-01 WtEn= 8.62D-01
 Coeff-Com:  0.113D-01-0.113D-01 0.563D+00 0.437D+00
 Coeff-En:   0.000D+00 0.000D+00 0.634D+00 0.366D+00
 Coeff:      0.156D-02-0.155D-02 0.625D+00 0.375D+00
 Gap=     0.050 Goal=   None    Shift=    0.000
 Gap=     0.055 Goal=   None    Shift=    0.000
 RMSDP=2.31D-03 MaxDP=3.41D-01 DE= 2.81D-03 OVMax= 6.96D-02

 Cycle   5  Pass 1  IDiag  1:
 E= -1136.13827328635     Delta-E=       -0.005460785645 Rises=F Damp=F
 DIIS: error= 8.56D-04 at cycle   5 NSaved=   5.
 NSaved= 5 IEnMin= 5 EnMin= -1136.13827328635     IErMin= 5 ErrMin= 8.56D-04
 ErrMax= 8.56D-04  0.00D+00 EMaxC= 1.00D-01 BMatC= 2.06D-04 BMatP= 2.99D-03
 IDIUse=3 WtCom= 9.91D-01 WtEn= 8.56D-03
 Coeff-Com:  0.375D-02-0.571D-02 0.327D+00 0.193D+00 0.482D+00
 Coeff-En:   0.000D+00 0.000D+00 0.000D+00 0.000D+00 0.100D+01
 Coeff:      0.372D-02-0.566D-02 0.324D+00 0.192D+00 0.486D+00
 Gap=     0.051 Goal=   None    Shift=    0.000
 Gap=     0.054 Goal=   None    Shift=    0.000
 RMSDP=8.39D-04 MaxDP=1.08D-01 DE=-5.46D-03 OVMax= 9.25D-03

 Cycle   6  Pass 1  IDiag  1:
 E= -1136.13841287630     Delta-E=       -0.000139589946 Rises=F Damp=F
 DIIS: error= 1.00D-04 at cycle   6 NSaved=   6.
 NSaved= 6 IEnMin= 6 EnMin= -1136.13841287630     IErMin= 6 ErrMin= 1.00D-04
 ErrMax= 1.00D-04  0.00D+00 EMaxC= 1.00D-01 BMatC= 3.45D-06 BMatP= 2.06D-04
 IDIUse=3 WtCom= 9.99D-01 WtEn= 1.00D-03
 Coeff-Com: -0.335D-02 0.411D-02 0.308D-01 0.762D-02 0.129D+00 0.832D+00
 Coeff-En:   0.000D+00 0.000D+00 0.000D+00 0.000D+00 0.000D+00 0.100D+01
 Coeff:     -0.334D-02 0.411D-02 0.307D-01 0.761D-02 0.129D+00 0.832D+00
 Gap=     0.051 Goal=   None    Shift=    0.000
 Gap=     0.054 Goal=   None    Shift=    0.000
 RMSDP=2.68D-04 MaxDP=3.68D-02 DE=-1.40D-04 OVMax= 3.60D-03

 Cycle   7  Pass 1  IDiag  1:
 E= -1136.13841459726     Delta-E=       -0.000001720963 Rises=F Damp=F
 DIIS: error= 8.22D-05 at cycle   7 NSaved=   7.
 NSaved= 7 IEnMin= 7 EnMin= -1136.13841459726     IErMin= 7 ErrMin= 8.22D-05
 ErrMax= 8.22D-05  0.00D+00 EMaxC= 1.00D-01 BMatC= 2.64D-06 BMatP= 3.45D-06
 IDIUse=1 WtCom= 1.00D+00 WtEn= 0.00D+00
 Coeff-Com: -0.281D-02 0.357D-02-0.257D-01-0.225D-01 0.203D-01 0.560D+00
 Coeff-Com:  0.467D+00
 Coeff:     -0.281D-02 0.357D-02-0.257D-01-0.225D-01 0.203D-01 0.560D+00
 Coeff:      0.467D+00
 Gap=     0.051 Goal=   None    Shift=    0.000
 Gap=     0.054 Goal=   None    Shift=    0.000
 RMSDP=1.76D-04 MaxDP=3.39D-02 DE=-1.72D-06 OVMax= 1.93D-03

 Cycle   8  Pass 1  IDiag  1:
 E= -1136.13841780299     Delta-E=       -0.000003205728 Rises=F Damp=F
 DIIS: error= 2.41D-05 at cycle   8 NSaved=   8.
 NSaved= 8 IEnMin= 8 EnMin= -1136.13841780299     IErMin= 8 ErrMin= 2.41D-05
 ErrMax= 2.41D-05  0.00D+00 EMaxC= 1.00D-01 BMatC= 1.36D-07 BMatP= 2.64D-06
 IDIUse=1 WtCom= 1.00D+00 WtEn= 0.00D+00
 Coeff-Com: -0.783D-03 0.976D-03-0.147D-01-0.107D-01-0.255D-02 0.171D+00
 Coeff-Com:  0.205D+00 0.653D+00
 Coeff:     -0.783D-03 0.976D-03-0.147D-01-0.107D-01-0.255D-02 0.171D+00
 Coeff:      0.205D+00 0.653D+00
 Gap=     0.051 Goal=   None    Shift=    0.000
 Gap=     0.054 Goal=   None    Shift=    0.000
 RMSDP=6.42D-05 MaxDP=1.19D-02 DE=-3.21D-06 OVMax= 7.83D-04

 Cycle   9  Pass 1  IDiag  1:
 E= -1136.13841797343     Delta-E=       -0.000000170438 Rises=F Damp=F
 DIIS: error= 1.72D-05 at cycle   9 NSaved=   9.
 NSaved= 9 IEnMin= 9 EnMin= -1136.13841797343     IErMin= 9 ErrMin= 1.72D-05
 ErrMax= 1.72D-05  0.00D+00 EMaxC= 1.00D-01 BMatC= 7.89D-08 BMatP= 1.36D-07
 IDIUse=1 WtCom= 1.00D+00 WtEn= 0.00D+00
 Coeff-Com:  0.661D-03-0.861D-03-0.878D-03 0.131D-02-0.114D-01-0.105D+00
 Coeff-Com: -0.466D-01 0.485D+00 0.678D+00
 Coeff:      0.661D-03-0.861D-03-0.878D-03 0.131D-02-0.114D-01-0.105D+00
 Coeff:     -0.466D-01 0.485D+00 0.678D+00
 Gap=     0.051 Goal=   None    Shift=    0.000
 Gap=     0.054 Goal=   None    Shift=    0.000
 RMSDP=3.49D-05 MaxDP=4.15D-03 DE=-1.70D-07 OVMax= 6.18D-04

 Cycle  10  Pass 1  IDiag  1:
 E= -1136.13841812842     Delta-E=       -0.000000154995 Rises=F Damp=F
 DIIS: error= 4.44D-06 at cycle  10 NSaved=  10.
 NSaved=10 IEnMin=10 EnMin= -1136.13841812842     IErMin=10 ErrMin= 4.44D-06
 ErrMax= 4.44D-06  0.00D+00 EMaxC= 1.00D-01 BMatC= 4.64D-09 BMatP= 7.89D-08
 IDIUse=1 WtCom= 1.00D+00 WtEn= 0.00D+00
 Coeff-Com:  0.203D-03-0.256D-03 0.147D-02 0.153D-02-0.242D-02-0.315D-01
 Coeff-Com: -0.291D-01-0.283D-01 0.100D+00 0.988D+00
 Coeff:      0.203D-03-0.256D-03 0.147D-02 0.153D-02-0.242D-02-0.315D-01
 Coeff:     -0.291D-01-0.283D-01 0.100D+00 0.988D+00
 Gap=     0.051 Goal=   None    Shift=    0.000
 Gap=     0.054 Goal=   None    Shift=    0.000
 RMSDP=1.42D-05 MaxDP=2.07D-03 DE=-1.55D-07 OVMax= 2.98D-04

 Cycle  11  Pass 1  IDiag  1:
 E= -1136.13841815508     Delta-E=       -0.000000026660 Rises=F Damp=F
 DIIS: error= 2.42D-06 at cycle  11 NSaved=  11.
 NSaved=11 IEnMin=11 EnMin= -1136.13841815508     IErMin=11 ErrMin= 2.42D-06
 ErrMax= 2.42D-06  0.00D+00 EMaxC= 1.00D-01 BMatC= 1.12D-09 BMatP= 4.64D-09
 IDIUse=1 WtCom= 1.00D+00 WtEn= 0.00D+00
 Coeff-Com: -0.138D-03 0.183D-03 0.598D-03-0.108D-03 0.267D-02 0.181D-01
 Coeff-Com:  0.920D-02-0.107D+00-0.164D+00-0.604D-01 0.130D+01
 Coeff:     -0.138D-03 0.183D-03 0.598D-03-0.108D-03 0.267D-02 0.181D-01
 Coeff:      0.920D-02-0.107D+00-0.164D+00-0.604D-01 0.130D+01
 Gap=     0.051 Goal=   None    Shift=    0.000
 Gap=     0.054 Goal=   None    Shift=    0.000
 RMSDP=8.09D-06 MaxDP=6.52D-04 DE=-2.67D-08 OVMax= 2.55D-04

 Cycle  12  Pass 1  IDiag  1:
 E= -1136.13841816590     Delta-E=       -0.000000010815 Rises=F Damp=F
 DIIS: error= 1.18D-06 at cycle  12 NSaved=  12.
 NSaved=12 IEnMin=12 EnMin= -1136.13841816590     IErMin=12 ErrMin= 1.18D-06
 ErrMax= 1.18D-06  0.00D+00 EMaxC= 1.00D-01 BMatC= 2.71D-10 BMatP= 1.12D-09
 IDIUse=1 WtCom= 1.00D+00 WtEn= 0.00D+00
 Coeff-Com: -0.921D-04 0.119D-03 0.476D-04-0.282D-03 0.165D-02 0.127D-01
 Coeff-Com:  0.720D-02-0.425D-01-0.787D-01-0.141D+00 0.389D+00 0.852D+00
 Coeff:     -0.921D-04 0.119D-03 0.476D-04-0.282D-03 0.165D-02 0.127D-01
 Coeff:      0.720D-02-0.425D-01-0.787D-01-0.141D+00 0.389D+00 0.852D+00
 Gap=     0.051 Goal=   None    Shift=    0.000
 Gap=     0.054 Goal=   None    Shift=    0.000
 RMSDP=2.86D-06 MaxDP=2.00D-04 DE=-1.08D-08 OVMax= 9.11D-05

 Cycle  13  Pass 1  IDiag  1:
 E= -1136.13841816739     Delta-E=       -0.000000001490 Rises=F Damp=F
 DIIS: error= 5.64D-07 at cycle  13 NSaved=  13.
 NSaved=13 IEnMin=13 EnMin= -1136.13841816739     IErMin=13 ErrMin= 5.64D-07
 ErrMax= 5.64D-07  0.00D+00 EMaxC= 1.00D-01 BMatC= 5.49D-11 BMatP= 2.71D-10
 IDIUse=1 WtCom= 1.00D+00 WtEn= 0.00D+00
 Coeff-Com:  0.885D-05-0.127D-04-0.145D-03-0.551D-04-0.162D-03-0.143D-02
 Coeff-Com: -0.265D-03 0.173D-01 0.210D-01-0.268D-01-0.227D+00 0.170D+00
 Coeff-Com:  0.105D+01
 Coeff:      0.885D-05-0.127D-04-0.145D-03-0.551D-04-0.162D-03-0.143D-02
 Coeff:     -0.265D-03 0.173D-01 0.210D-01-0.268D-01-0.227D+00 0.170D+00
 Coeff:      0.105D+01
 Gap=     0.051 Goal=   None    Shift=    0.000
 Gap=     0.054 Goal=   None    Shift=    0.000
 RMSDP=1.48D-06 MaxDP=9.29D-05 DE=-1.49D-09 OVMax= 5.25D-05

 Cycle  14  Pass 1  IDiag  1:
 E= -1136.13841816776     Delta-E=       -0.000000000371 Rises=F Damp=F
 DIIS: error= 2.12D-07 at cycle  14 NSaved=  14.
 NSaved=14 IEnMin=14 EnMin= -1136.13841816776     IErMin=14 ErrMin= 2.12D-07
 ErrMax= 2.12D-07  0.00D+00 EMaxC= 1.00D-01 BMatC= 7.50D-12 BMatP= 5.49D-11
 IDIUse=1 WtCom= 1.00D+00 WtEn= 0.00D+00
 Coeff-Com:  0.135D-04-0.175D-04-0.389D-04 0.296D-04-0.278D-03-0.171D-02
 Coeff-Com: -0.983D-03 0.610D-02 0.131D-01 0.244D-01-0.578D-01-0.135D+00
 Coeff-Com: -0.959D-01 0.125D+01
 Coeff:      0.135D-04-0.175D-04-0.389D-04 0.296D-04-0.278D-03-0.171D-02
 Coeff:     -0.983D-03 0.610D-02 0.131D-01 0.244D-01-0.578D-01-0.135D+00
 Coeff:     -0.959D-01 0.125D+01
 Gap=     0.051 Goal=   None    Shift=    0.000
 Gap=     0.054 Goal=   None    Shift=    0.000
 RMSDP=6.58D-07 MaxDP=4.42D-05 DE=-3.71D-10 OVMax= 2.06D-05

 Cycle  15  Pass 1  IDiag  1:
 E= -1136.13841816783     Delta-E=       -0.000000000067 Rises=F Damp=F
 DIIS: error= 9.06D-08 at cycle  15 NSaved=  15.
 NSaved=15 IEnMin=15 EnMin= -1136.13841816783     IErMin=15 ErrMin= 9.06D-08
 ErrMax= 9.06D-08  0.00D+00 EMaxC= 1.00D-01 BMatC= 1.17D-12 BMatP= 7.50D-12
 IDIUse=1 WtCom= 1.00D+00 WtEn= 0.00D+00
 Coeff-Com: -0.278D-05 0.386D-05 0.339D-04 0.364D-05 0.706D-04 0.410D-03
 Coeff-Com:  0.189D-03-0.334D-02-0.527D-02-0.472D-02 0.523D-01-0.360D-02
 Coeff-Com: -0.143D+00-0.250D+00 0.136D+01
 Coeff:     -0.278D-05 0.386D-05 0.339D-04 0.364D-05 0.706D-04 0.410D-03
 Coeff:      0.189D-03-0.334D-02-0.527D-02-0.472D-02 0.523D-01-0.360D-02
 Coeff:     -0.143D+00-0.250D+00 0.136D+01
 Gap=     0.051 Goal=   None    Shift=    0.000
 Gap=     0.054 Goal=   None    Shift=    0.000
 RMSDP=3.07D-07 MaxDP=2.93D-05 DE=-6.71D-11 OVMax= 8.12D-06

 Cycle  16  Pass 1  IDiag  1:
 E= -1136.13841816783     Delta-E=       -0.000000000003 Rises=F Damp=F
 DIIS: error= 2.70D-08 at cycle  16 NSaved=  16.
 NSaved=16 IEnMin=16 EnMin= -1136.13841816783     IErMin=16 ErrMin= 2.70D-08
 ErrMax= 2.70D-08  0.00D+00 EMaxC= 1.00D-01 BMatC= 1.92D-13 BMatP= 1.17D-12
 IDIUse=1 WtCom= 1.00D+00 WtEn= 0.00D+00
 Coeff-Com: -0.156D-05 0.201D-05 0.457D-05-0.219D-05 0.274D-04 0.166D-03
 Coeff-Com:  0.130D-03-0.420D-03-0.132D-02-0.164D-02 0.474D-03 0.194D-01
 Coeff-Com:  0.296D-01-0.148D+00-0.118D+00 0.122D+01
 Coeff:     -0.156D-05 0.201D-05 0.457D-05-0.219D-05 0.274D-04 0.166D-03
 Coeff:      0.130D-03-0.420D-03-0.132D-02-0.164D-02 0.474D-03 0.194D-01
 Coeff:      0.296D-01-0.148D+00-0.118D+00 0.122D+01
 Gap=     0.051 Goal=   None    Shift=    0.000
 Gap=     0.054 Goal=   None    Shift=    0.000
 RMSDP=9.22D-08 MaxDP=4.99D-06 DE=-2.73D-12 OVMax= 2.42D-06

 Cycle  17  Pass 1  IDiag  1:
 E= -1136.13841816784     Delta-E=       -0.000000000012 Rises=F Damp=F
 DIIS: error= 1.38D-08 at cycle  17 NSaved=  17.
 NSaved=17 IEnMin=17 EnMin= -1136.13841816784     IErMin=17 ErrMin= 1.38D-08
 ErrMax= 1.38D-08  0.00D+00 EMaxC= 1.00D-01 BMatC= 4.53D-14 BMatP= 1.92D-13
 IDIUse=1 WtCom= 1.00D+00 WtEn= 0.00D+00
 Coeff-Com:  0.333D-06-0.488D-06-0.691D-05-0.127D-05-0.116D-04-0.465D-04
 Coeff-Com: -0.389D-04 0.608D-03 0.956D-03 0.718D-03-0.104D-01 0.272D-02
 Coeff-Com:  0.321D-01 0.374D-01-0.312D+00 0.185D+00 0.106D+01
 Coeff:      0.333D-06-0.488D-06-0.691D-05-0.127D-05-0.116D-04-0.465D-04
 Coeff:     -0.389D-04 0.608D-03 0.956D-03 0.718D-03-0.104D-01 0.272D-02
 Coeff:      0.321D-01 0.374D-01-0.312D+00 0.185D+00 0.106D+01
 Gap=     0.051 Goal=   None    Shift=    0.000
 Gap=     0.054 Goal=   None    Shift=    0.000
 RMSDP=4.42D-08 MaxDP=4.83D-06 DE=-1.16D-11 OVMax= 1.24D-06

 Cycle  18  Pass 1  IDiag  1:
 E= -1136.13841816783     Delta-E=        0.000000000009 Rises=F Damp=F
 DIIS: error= 3.94D-09 at cycle  18 NSaved=  18.
 NSaved=18 IEnMin=17 EnMin= -1136.13841816784     IErMin=18 ErrMin= 3.94D-09
 ErrMax= 3.94D-09  0.00D+00 EMaxC= 1.00D-01 BMatC= 8.07D-15 BMatP= 4.53D-14
 IDIUse=1 WtCom= 1.00D+00 WtEn= 0.00D+00
 Coeff-Com:  0.425D-06-0.559D-06-0.213D-05 0.264D-06-0.704D-05-0.422D-04
 Coeff-Com: -0.307D-04 0.170D-03 0.399D-03 0.487D-03-0.164D-02-0.408D-02
 Coeff-Com: -0.111D-02 0.375D-01-0.239D-01-0.231D+00 0.194D+00 0.103D+01
 Coeff:      0.425D-06-0.559D-06-0.213D-05 0.264D-06-0.704D-05-0.422D-04
 Coeff:     -0.307D-04 0.170D-03 0.399D-03 0.487D-03-0.164D-02-0.408D-02
 Coeff:     -0.111D-02 0.375D-01-0.239D-01-0.231D+00 0.194D+00 0.103D+01
 Gap=     0.051 Goal=   None    Shift=    0.000
 Gap=     0.054 Goal=   None    Shift=    0.000
 RMSDP=1.86D-08 MaxDP=1.80D-06 DE= 8.64D-12 OVMax= 5.13D-07

 Cycle  19  Pass 1  IDiag  1:
 E= -1136.13841816784     Delta-E=       -0.000000000008 Rises=F Damp=F
 DIIS: error= 2.07D-09 at cycle  19 NSaved=  19.
 NSaved=19 IEnMin=17 EnMin= -1136.13841816784     IErMin=19 ErrMin= 2.07D-09
 ErrMax= 2.07D-09  0.00D+00 EMaxC= 1.00D-01 BMatC= 1.08D-15 BMatP= 8.07D-15
 IDIUse=1 WtCom= 1.00D+00 WtEn= 0.00D+00
 Large coefficients: NSaved= 19 BigCof=    0.00 CofMax=   10.00 Det=-2.39D-15
 Inversion failed.  Reducing to 18 matrices.
 Large coefficients: NSaved= 18 BigCof=    0.00 CofMax=   10.00 Det=-2.74D-15
 Inversion failed.  Reducing to 17 matrices.
 Large coefficients: NSaved= 17 BigCof=    0.00 CofMax=   10.00 Det=-2.77D-15
 Inversion failed.  Reducing to 16 matrices.
 Large coefficients: NSaved= 16 BigCof=    0.00 CofMax=   10.00 Det=-2.85D-15
 Inversion failed.  Reducing to 15 matrices.
 Coeff-Com: -0.356D-06-0.350D-05-0.116D-05-0.518D-05-0.868D-05-0.758D-04
 Coeff-Com:  0.611D-03-0.473D-03-0.323D-02 0.254D-02 0.232D-01-0.335D-01
 Coeff-Com: -0.111D+00 0.354D-01 0.109D+01
 Coeff:     -0.356D-06-0.350D-05-0.116D-05-0.518D-05-0.868D-05-0.758D-04
 Coeff:      0.611D-03-0.473D-03-0.323D-02 0.254D-02 0.232D-01-0.335D-01
 Coeff:     -0.111D+00 0.354D-01 0.109D+01
 Gap=     0.051 Goal=   None    Shift=    0.000
 Gap=     0.054 Goal=   None    Shift=    0.000
 RMSDP=7.97D-09 MaxDP=9.23D-07 DE=-7.73D-12 OVMax= 1.71D-07

 SCF Done:  E(UB3LYP) =  -1136.13841817     A.U. after   19 cycles
            NFock= 19  Conv=0.80D-08     -V/T= 2.0029
 <Sx>= 0.0000 <Sy>= 0.0000 <Sz>= 0.5000 <S**2>= 0.7592 S= 0.5046
 <L.S>= 0.000000000000E+00
 KE= 1.132897041129D+03 PE=-3.408239942964D+03 EE= 7.998449520929D+02
 Annihilation of the first spin contaminant:
 S**2 before annihilation     0.7592,   after     0.7501
 Leave Link  502 at Thu Dec  7 11:10:37 2023, MaxMem=  1879048192 cpu:             181.9 elap:              16.2
 (Enter /home/sekinelabo/g16/l601.exe)
 Copying SCF densities to generalized density rwf, IOpCl= 1 IROHF=0.

 **********************************************************************

            Population analysis using the SCF Density.

 **********************************************************************

 Orbital symmetries:
 Alpha Orbitals:
       Occupied  (A) (A) (A) (A) (A) (A) (A) (A) (A) (A) (A) (A)
                 (A) (A) (A) (A) (A) (A) (A) (A) (A) (A) (A) (A)
                 (A) (A) (A) (A) (A) (A) (A) (A) (A) (A) (A) (A)
                 (A) (A) (A)
       Virtual   (A) (A) (A) (A) (A) (A) (A) (A) (A) (A) (A) (A)
                 (A) (A) (A) (A) (A) (A) (A) (A) (A) (A) (A) (A)
                 (A) (A) (A) (A) (A) (A) (A) (A) (A) (A) (A) (A)
                 (A) (A) (A) (A) (A) (A) (A) (A) (A) (A) (A) (A)
                 (A) (A) (A) (A) (A) (A) (A) (A) (A) (A) (A) (A)
                 (A) (A) (A) (A) (A) (A) (A) (A) (A) (A) (A) (A)
                 (A) (A) (A) (A) (A) (A) (A) (A) (A) (A) (A) (A)
                 (A) (A) (A) (A) (A) (A) (A) (A) (A) (A) (A) (A)
                 (A) (A) (A) (A) (A) (A) (A) (A) (A) (A) (A) (A)
                 (A) (A) (A) (A) (A) (A) (A) (A) (A) (A) (A) (A)
                 (A) (A) (A) (A) (A) (A) (A) (A) (A) (A) (A) (A)
                 (A) (A) (A) (A) (A) (A) (A) (A) (A) (A) (A) (A)
                 (A) (A) (A) (A) (A) (A) (A) (A) (A) (A) (A) (A)
                 (A) (A) (A) (A) (A) (A) (A) (A) (A) (A) (A) (A)
                 (A) (A) (A)
 Beta  Orbitals:
       Occupied  (A) (A) (A) (A) (A) (A) (A) (A) (A) (A) (A) (A)
                 (A) (A) (A) (A) (A) (A) (A) (A) (A) (A) (A) (A)
                 (A) (A) (A) (A) (A) (A) (A) (A) (A) (A) (A) (A)
                 (A) (A)
       Virtual   (A) (A) (A) (A) (A) (A) (A) (A) (A) (A) (A) (A)
                 (A) (A) (A) (A) (A) (A) (A) (A) (A) (A) (A) (A)
                 (A) (A) (A) (A) (A) (A) (A) (A) (A) (A) (A) (A)
                 (A) (A) (A) (A) (A) (A) (A) (A) (A) (A) (A) (A)
                 (A) (A) (A) (A) (A) (A) (A) (A) (A) (A) (A) (A)
                 (A) (A) (A) (A) (A) (A) (A) (A) (A) (A) (A) (A)
                 (A) (A) (A) (A) (A) (A) (A) (A) (A) (A) (A) (A)
                 (A) (A) (A) (A) (A) (A) (A) (A) (A) (A) (A) (A)
                 (A) (A) (A) (A) (A) (A) (A) (A) (A) (A) (A) (A)
                 (A) (A) (A) (A) (A) (A) (A) (A) (A) (A) (A) (A)
                 (A) (A) (A) (A) (A) (A) (A) (A) (A) (A) (A) (A)
                 (A) (A) (A) (A) (A) (A) (A) (A) (A) (A) (A) (A)
                 (A) (A) (A) (A) (A) (A) (A) (A) (A) (A) (A) (A)
                 (A) (A) (A) (A) (A) (A) (A) (A) (A) (A) (A) (A)
                 (A) (A) (A) (A)
 The electronic state is 2-A.
 Alpha  occ. eigenvalues --  -38.43990 -38.43817 -38.43814 -38.43669 -38.43592
 Alpha  occ. eigenvalues --  -38.43296 -38.43193  -2.19816  -2.19642  -2.19601
 Alpha  occ. eigenvalues --   -2.19545  -2.19488  -2.19167  -2.19152  -1.13503
 Alpha  occ. eigenvalues --   -1.13474  -1.13453  -1.13318  -1.13314  -1.13298
 Alpha  occ. eigenvalues --   -1.13277  -1.13254  -1.13235  -1.13234  -1.13189
 Alpha  occ. eigenvalues --   -1.13182  -1.13163  -1.13130  -1.13104  -1.12868
 Alpha  occ. eigenvalues --   -1.12836  -1.12806  -1.12796  -1.12791  -1.12768
 Alpha  occ. eigenvalues --   -0.18560  -0.12957  -0.12442  -0.10732
 Alpha virt. eigenvalues --   -0.05645  -0.05123  -0.04896  -0.03135  -0.02857
 Alpha virt. eigenvalues --   -0.02609  -0.01431  -0.01230  -0.00507  -0.00374
 Alpha virt. eigenvalues --   -0.00013   0.00358   0.00822   0.00844   0.00877
 Alpha virt. eigenvalues --    0.00925   0.01105   0.01138   0.01228   0.01283
 Alpha virt. eigenvalues --    0.01348   0.01415   0.01750   0.01799   0.02195
 Alpha virt. eigenvalues --    0.02220   0.02279   0.02521   0.02571   0.02909
 Alpha virt. eigenvalues --    0.02990   0.03026   0.03050   0.03060   0.03211
 Alpha virt. eigenvalues --    0.03228   0.03260   0.03282   0.03387   0.03469
 Alpha virt. eigenvalues --    0.04184   0.04384   0.04558   0.04669   0.04781
 Alpha virt. eigenvalues --    0.04854   0.04996   0.05085   0.05286   0.05406
 Alpha virt. eigenvalues --    0.05842   0.07212   0.07311   0.07410   0.07496
 Alpha virt. eigenvalues --    0.07652   0.07711   0.07924   0.08013   0.09197
 Alpha virt. eigenvalues --    0.09326   0.09927   0.10679   0.11025   0.11253
 Alpha virt. eigenvalues --    0.11935   0.12198   0.12589   0.12917   0.12954
 Alpha virt. eigenvalues --    0.13758   0.14086   0.14511   0.14890   0.15182
 Alpha virt. eigenvalues --    0.15453   0.15573   0.15619   0.15976   0.17409
 Alpha virt. eigenvalues --    0.25841   0.26739   0.27627   0.28256   0.29137
 Alpha virt. eigenvalues --    0.29623   0.29873   0.30853   0.31729   0.33572
 Alpha virt. eigenvalues --    0.35034   0.36132   0.36482   0.37570   0.38266
 Alpha virt. eigenvalues --    0.38952   0.39798   0.41570   0.41776   0.42279
 Alpha virt. eigenvalues --    0.43468   0.43738   0.44291   0.44603   0.44898
 Alpha virt. eigenvalues --    0.45186   0.45327   0.45476   0.45828   0.46043
 Alpha virt. eigenvalues --    0.46528   0.46971   0.47952   0.49051   0.49307
 Alpha virt. eigenvalues --    0.49893   0.50437   0.50623   0.51146   0.52166
 Alpha virt. eigenvalues --    0.53062   0.53696   0.55013   0.56163   0.56546
 Alpha virt. eigenvalues --    0.56992   0.57593   0.58325   0.58701   0.60617
 Alpha virt. eigenvalues --    0.61714   0.63049   0.65523   0.65882   0.67337
 Alpha virt. eigenvalues --    0.67843   2.02782   2.13803   2.15394   2.18519
 Alpha virt. eigenvalues --    2.20025   2.22644   2.26564   4.43819   4.44360
 Alpha virt. eigenvalues --    4.44521   4.44973   4.45565   4.45907   4.46011
 Alpha virt. eigenvalues --    4.46467   4.46707   4.47917   4.48650   4.49504
 Alpha virt. eigenvalues --    4.50068   4.50921   4.51346   4.52475   4.54731
 Alpha virt. eigenvalues --    4.55256   4.59313   4.62358   4.66319  96.22347
 Alpha virt. eigenvalues --   96.34757  96.36958  96.40798  96.42377  96.46174
 Alpha virt. eigenvalues --   96.50715
  Beta  occ. eigenvalues --  -38.43983 -38.43816 -38.43815 -38.43583 -38.43570
  Beta  occ. eigenvalues --  -38.43291 -38.43129  -2.19808  -2.19642  -2.19604
  Beta  occ. eigenvalues --   -2.19476  -2.19362  -2.19147  -2.19052  -1.13490
  Beta  occ. eigenvalues --   -1.13453  -1.13451  -1.13317  -1.13305  -1.13294
  Beta  occ. eigenvalues --   -1.13265  -1.13257  -1.13238  -1.13196  -1.13128
  Beta  occ. eigenvalues --   -1.13103  -1.13076  -1.13034  -1.13026  -1.12837
  Beta  occ. eigenvalues --   -1.12797  -1.12784  -1.12767  -1.12710  -1.12695
  Beta  occ. eigenvalues --   -0.17824  -0.12738  -0.12222
  Beta virt. eigenvalues --   -0.06783  -0.05653  -0.05056  -0.04868  -0.02349
  Beta virt. eigenvalues --   -0.02111  -0.01536  -0.01349  -0.01150  -0.00557
  Beta virt. eigenvalues --   -0.00428   0.00134   0.00386   0.00832   0.00867
  Beta virt. eigenvalues --    0.00924   0.00970   0.01187   0.01349   0.01384
  Beta virt. eigenvalues --    0.01442   0.01456   0.01492   0.01786   0.01827
  Beta virt. eigenvalues --    0.02202   0.02245   0.02400   0.02498   0.02547
  Beta virt. eigenvalues --    0.02939   0.03066   0.03072   0.03115   0.03214
  Beta virt. eigenvalues --    0.03268   0.03303   0.03338   0.03393   0.03431
  Beta virt. eigenvalues --    0.03502   0.04256   0.04475   0.04598   0.04740
  Beta virt. eigenvalues --    0.04886   0.05053   0.05144   0.05269   0.05465
  Beta virt. eigenvalues --    0.05570   0.06171   0.07180   0.07340   0.07404
  Beta virt. eigenvalues --    0.07732   0.07818   0.07863   0.08022   0.08104
  Beta virt. eigenvalues --    0.09486   0.09591   0.10094   0.10746   0.11241
  Beta virt. eigenvalues --    0.11504   0.12123   0.12668   0.12886   0.13015
  Beta virt. eigenvalues --    0.13210   0.13971   0.14209   0.14706   0.15087
  Beta virt. eigenvalues --    0.15420   0.15574   0.15739   0.16063   0.16367
  Beta virt. eigenvalues --    0.17802   0.26235   0.26797   0.27894   0.28502
  Beta virt. eigenvalues --    0.29242   0.29829   0.29938   0.31488   0.32349
  Beta virt. eigenvalues --    0.33970   0.35078   0.36413   0.36659   0.37766
  Beta virt. eigenvalues --    0.38541   0.39261   0.39988   0.41723   0.41874
  Beta virt. eigenvalues --    0.42360   0.43795   0.44024   0.44446   0.44770
  Beta virt. eigenvalues --    0.45126   0.45305   0.45387   0.45444   0.46028
  Beta virt. eigenvalues --    0.46302   0.46643   0.47148   0.48103   0.49077
  Beta virt. eigenvalues --    0.49264   0.50060   0.50477   0.50636   0.51405
  Beta virt. eigenvalues --    0.52311   0.53395   0.53989   0.55322   0.56436
  Beta virt. eigenvalues --    0.56581   0.57448   0.57786   0.58487   0.58994
  Beta virt. eigenvalues --    0.60637   0.62127   0.63496   0.65465   0.66027
  Beta virt. eigenvalues --    0.67576   0.68003   2.02910   2.13816   2.15390
  Beta virt. eigenvalues --    2.18557   2.20312   2.22701   2.26817   4.43903
  Beta virt. eigenvalues --    4.44358   4.44589   4.45000   4.45617   4.45917
  Beta virt. eigenvalues --    4.46034   4.46517   4.46744   4.48012   4.48745
  Beta virt. eigenvalues --    4.49509   4.50095   4.50928   4.51420   4.52524
  Beta virt. eigenvalues --    4.54798   4.55281   4.59378   4.62424   4.66404
  Beta virt. eigenvalues --   96.22387  96.34763  96.36959  96.40819  96.42456
  Beta virt. eigenvalues --   96.46195  96.50790
          Condensed to atoms (all electrons):
               1          2          3          4          5          6
     1  Na  14.946277   0.023028  -0.021200  -0.246626   0.054898   0.221536
     2  Na   0.023028  11.640372   0.161197   0.000895  -0.183713  -0.083451
     3  Na  -0.021200   0.161197  10.836521  -0.231798   0.050537   0.304484
     4  Na  -0.246626   0.000895  -0.231798  11.057531   0.288621  -0.053874
     5  Na   0.054898  -0.183713   0.050537   0.288621  10.692028   0.227515
     6  Na   0.221536  -0.083451   0.304484  -0.053874   0.227515  10.590399
     7  Na  -3.478802  -1.002235  -0.229004   0.041278  -0.092193  -0.231311
               7
     1  Na  -3.478802
     2  Na  -1.002235
     3  Na  -0.229004
     4  Na   0.041278
     5  Na  -0.092193
     6  Na  -0.231311
     7  Na  16.197312
          Atomic-Atomic Spin Densities.
               1          2          3          4          5          6
     1  Na   3.912478   0.435783   0.070773  -0.174273   0.032499   0.178568
     2  Na   0.435783  -0.118677   0.055271   0.023728   0.076106   0.078809
     3  Na   0.070773   0.055271  -0.072954   0.035961  -0.026290  -0.047577
     4  Na  -0.174273   0.023728   0.035961  -0.137687  -0.064414  -0.014164
     5  Na   0.032499   0.076106  -0.026290  -0.064414  -0.101043  -0.053497
     6  Na   0.178568   0.078809  -0.047577  -0.014164  -0.053497  -0.050568
     7  Na  -3.707083  -0.490837  -0.038271   0.228792   0.022101  -0.137368
               7
     1  Na  -3.707083
     2  Na  -0.490837
     3  Na  -0.038271
     4  Na   0.228792
     5  Na   0.022101
     6  Na  -0.137368
     7  Na   4.599217
 Mulliken charges and spin densities:
               1          2
     1  Na  -0.499110   0.748745
     2  Na   0.443908   0.060184
     3  Na   0.129263  -0.023087
     4  Na   0.143974  -0.102058
     5  Na  -0.037693  -0.114538
     6  Na   0.024703  -0.045796
     7  Na  -0.205044   0.476550
 Sum of Mulliken charges =  -0.00000   1.00000
 Mulliken charges and spin densities with hydrogens summed into heavy atoms:
               1          2
     1  Na  -0.499110   0.748745
     2  Na   0.443908   0.060184
     3  Na   0.129263  -0.023087
     4  Na   0.143974  -0.102058
     5  Na  -0.037693  -0.114538
     6  Na   0.024703  -0.045796
     7  Na  -0.205044   0.476550
 Electronic spatial extent (au):  <R**2>=           2280.3135
 Charge=             -0.0000 electrons
 Dipole moment (field-independent basis, Debye):
    X=             -0.1470    Y=              0.2539    Z=              0.1283  Tot=              0.3202
 Quadrupole moment (field-independent basis, Debye-Ang):
   XX=            -58.3568   YY=            -60.4678   ZZ=            -74.7057
   XY=             -0.7167   XZ=              0.3019   YZ=             -0.1142
 Traceless Quadrupole moment (field-independent basis, Debye-Ang):
   XX=              6.1533   YY=              4.0423   ZZ=            -10.1956
   XY=             -0.7167   XZ=              0.3019   YZ=             -0.1142
 Octapole moment (field-independent basis, Debye-Ang**2):
  XXX=             -4.2988  YYY=              4.8632  ZZZ=              0.6809  XYY=             -2.3860
  XXY=              2.3465  XXZ=              0.2653  XZZ=              1.1426  YZZ=              1.2599
  YYZ=             -1.6168  XYZ=              0.7126
 Hexadecapole moment (field-independent basis, Debye-Ang**3):
 XXXX=          -1465.4805 YYYY=          -1405.2268 ZZZZ=           -762.2347 XXXY=            -34.6791
 XXXZ=             13.0406 YYYX=             15.4658 YYYZ=              0.5590 ZZZX=             -0.0402
 ZZZY=              2.7260 XXYY=           -475.0626 XXZZ=           -449.6083 YYZZ=           -433.0504
 XXYZ=             -6.9175 YYXZ=             -4.2944 ZZXY=             -2.3866
 N-N= 3.393595315746D+02 E-N=-3.408239942959D+03  KE= 1.132897041129D+03
                          Isotropic Fermi Contact Couplings
        Atom                 a.u.       MegaHertz       Gauss      10(-4) cm-1
     1  Na(23)             0.41060     485.74959     173.32753     162.02862
     2  Na(23)            -0.01448     -17.13162      -6.11299      -5.71449
     3  Na(23)            -0.01367     -16.17614      -5.77205      -5.39578
     4  Na(23)            -0.00842      -9.95822      -3.55334      -3.32171
     5  Na(23)            -0.02464     -29.15566     -10.40347      -9.72528
     6  Na(23)            -0.01830     -21.64366      -7.72300      -7.21955
     7  Na(23)             0.24323     287.74753     102.67547      95.98224
 --------------------------------------------------------
       Center         ----  Spin Dipole Couplings  ----
                      3XX-RR        3YY-RR        3ZZ-RR
 --------------------------------------------------------
     1   Atom        0.002330      0.002546     -0.004876
     2   Atom       -0.020173     -0.021726      0.041900
     3   Atom       -0.013420     -0.010007      0.023427
     4   Atom       -0.011536     -0.014643      0.026180
     5   Atom       -0.009647     -0.006018      0.015665
     6   Atom       -0.005744     -0.013611      0.019355
     7   Atom       -0.001009      0.000395      0.000615
 --------------------------------------------------------
                        XY            XZ            YZ
 --------------------------------------------------------
     1   Atom        0.003026     -0.002091     -0.002006
     2   Atom        0.002334      0.002942      0.002193
     3   Atom       -0.001987      0.000504     -0.003884
     4   Atom       -0.001682     -0.004230      0.001449
     5   Atom        0.001956      0.002341     -0.000268
     6   Atom        0.000042     -0.001339      0.002754
     7   Atom       -0.002508      0.005162      0.002261
 --------------------------------------------------------


 ---------------------------------------------------------------------------------
              Anisotropic Spin Dipole Couplings in Principal Axis System
 ---------------------------------------------------------------------------------

       Atom             a.u.   MegaHertz   Gauss  10(-4) cm-1        Axes

              Baa    -0.0056    -0.796    -0.284    -0.265  0.1907  0.1666  0.9674
     1 Na(23) Bbb    -0.0006    -0.083    -0.030    -0.028  0.7129 -0.7010 -0.0198
              Bcc     0.0062     0.878     0.313     0.293  0.6749  0.6934 -0.2525
 
              Baa    -0.0234    -3.306    -1.180    -1.103 -0.5844  0.8115 -0.0009
     2 Na(23) Bbb    -0.0187    -2.642    -0.943    -0.881  0.8100  0.5833 -0.0604
              Bcc     0.0421     5.948     2.122     1.984  0.0485  0.0361  0.9982
 
              Baa    -0.0144    -2.029    -0.724    -0.677  0.8982  0.4383  0.0331
     3 Na(23) Bbb    -0.0095    -1.344    -0.479    -0.448 -0.4391  0.8914  0.1118
              Bcc     0.0239     3.373     1.204     1.125  0.0195 -0.1150  0.9932
 
              Baa    -0.0154    -2.172    -0.775    -0.725  0.4098  0.9121  0.0099
     4 Na(23) Bbb    -0.0113    -1.600    -0.571    -0.534  0.9053 -0.4080  0.1179
              Bcc     0.0267     3.772     1.346     1.258 -0.1116  0.0393  0.9930
 
              Baa    -0.0107    -1.510    -0.539    -0.504  0.9174 -0.3887 -0.0854
     5 Na(23) Bbb    -0.0052    -0.732    -0.261    -0.244  0.3874  0.9214 -0.0316
              Bcc     0.0159     2.243     0.800     0.748  0.0910 -0.0041  0.9958
 
              Baa    -0.0138    -1.955    -0.697    -0.652 -0.0189  0.9963 -0.0834
     6 Na(23) Bbb    -0.0058    -0.821    -0.293    -0.274  0.9985  0.0232  0.0506
              Bcc     0.0197     2.775     0.990     0.926 -0.0523  0.0823  0.9952
 
              Baa    -0.0070    -0.984    -0.351    -0.328  0.6889  0.4167 -0.5931
     7 Na(23) Bbb     0.0019     0.274     0.098     0.091 -0.3337  0.9087  0.2508
              Bcc     0.0050     0.710     0.253     0.237  0.6435  0.0251  0.7651
 

 ---------------------------------------------------------------------------------

 No NMR shielding tensors so no spin-rotation constants.
 Leave Link  601 at Thu Dec  7 11:10:37 2023, MaxMem=  1879048192 cpu:               2.3 elap:               0.2
 (Enter /home/sekinelabo/g16/l701.exe)
 ... and contract with generalized density number  0.
 Compute integral first derivatives.
 Leave Link  701 at Thu Dec  7 11:10:37 2023, MaxMem=  1879048192 cpu:               1.7 elap:               0.1
 (Enter /home/sekinelabo/g16/l702.exe)
 L702 exits ... SP integral derivatives will be done elsewhere.
 Leave Link  702 at Thu Dec  7 11:10:37 2023, MaxMem=  1879048192 cpu:               0.4 elap:               0.0
 (Enter /home/sekinelabo/g16/l703.exe)
 Integral derivatives from FoFJK, PRISM(SPDF).
 Compute integral first derivatives, UseDBF=F ICtDFT=           0.
 Calling FoFJK, ICntrl=      2127 FMM=F ISym2X=0 I1Cent= 0 IOpClX= 1 NMat=1 NMatS=1 NMatT=0.
 FoFJK:  IHMeth= 1 ICntrl=    2127 DoSepK=F KAlg= 0 I1Cent=           0 FoldK=F
 IRaf=         0 NMat=       1 IRICut=       1 DoRegI=T DoRafI=F ISym2E= 0 IDoP0=0 IntGTp=1.
 FoFCou: FMM=F IPFlag=           0 FMFlag=      100000 FMFlg1=         800
         NFxFlg=           0 DoJE=F BraDBF=F KetDBF=F FulRan=T
         wScrn=  0.000000 ICntrl=      2127 IOpCl=  1 I1Cent=           0 NGrid=           0
         NMat0=    1 NMatS0=      1 NMatT0=    0 NMatD0=    1 NMtDS0=    0 NMtDT0=    0
 Symmetry not used in FoFCou.
 Leave Link  703 at Thu Dec  7 11:10:40 2023, MaxMem=  1879048192 cpu:              33.7 elap:               2.3
 (Enter /home/sekinelabo/g16/l716.exe)
 Dipole        =-5.78410447D-02 9.99066739D-02 5.04634181D-02
 ***** Axes restored to original set *****
 -------------------------------------------------------------------
 Center     Atomic                   Forces (Hartrees/Bohr)
 Number     Number              X              Y              Z
 -------------------------------------------------------------------
      1       11           0.002319118   -0.001143746    0.000470708
      2       11          -0.002307356    0.001888825    0.000224665
      3       11          -0.000905900    0.001000639   -0.000527427
      4       11           0.001327529   -0.000684271   -0.001841925
      5       11          -0.002318420    0.002966594    0.000699825
      6       11          -0.001906210   -0.001740144    0.000771235
      7       11           0.003791238   -0.002287898    0.000202919
 -------------------------------------------------------------------
 Cartesian Forces:  Max     0.003791238 RMS     0.001761285
 Z-matrix is all fixed cartesians, so copy forces.
 Force constants in Cartesian coordinates: 
                1             2             3             4             5 
      1  0.974532D-01
      2  0.228668D-02  0.854651D-01
      3  0.270264D-01  0.226557D-02  0.130833D+00
      4 -0.202613D-01 -0.436868D-02 -0.148611D-01  0.903213D-01
      5  0.841828D-02 -0.208270D-01  0.346491D-02 -0.191022D-01  0.929479D-01
      6  0.151415D-01 -0.178107D-01 -0.312300D-01 -0.140947D-01  0.879445D-02
      7 -0.129679D-01 -0.117060D-01  0.423506D-03 -0.240559D-01 -0.175062D-01
      8  0.268414D-02 -0.156642D-01  0.920616D-02  0.152807D-01 -0.219537D-01
      9 -0.120816D-01 -0.169802D-01 -0.155331D-01  0.903971D-02  0.569052D-02
     10 -0.120052D-01  0.134075D-02 -0.140837D-01 -0.106990D-01  0.157884D-01
     11 -0.284173D-02 -0.123465D-01 -0.724625D-02 -0.102842D-01 -0.285871D-01
     12  0.898417D-02  0.167214D-01 -0.228919D-01  0.466710D-02 -0.675598D-02
     13 -0.119141D-01  0.124027D-01 -0.164504D-02  0.205805D-02  0.477692D-02
     14 -0.802739D-02 -0.128142D-01 -0.679374D-02  0.127684D-02 -0.117849D-02
     15 -0.974994D-02  0.143770D-01 -0.164574D-01  0.325644D-02 -0.183736D-02
     16 -0.221283D-01 -0.284861D-03  0.120906D-01 -0.290180D-02  0.370586D-02
     17 -0.885780D-03 -0.978920D-02  0.410421D-03  0.367565D-02  0.559307D-02
     18 -0.212268D-01 -0.775883D-03 -0.152236D-01  0.455928D-02 -0.190373D-02
     19 -0.181765D-01  0.329388D-03 -0.895067D-02 -0.344613D-01  0.391886D-02
     20 -0.163420D-02 -0.140240D-01 -0.130707D-02  0.135219D-01 -0.259947D-01
     21 -0.809368D-02  0.220285D-02 -0.294965D-01  0.743325D-02 -0.745281D-02
                6             7             8             9            10 
      6  0.651336D-01
      7  0.762437D-02  0.686912D-01
      8 -0.862515D-02  0.104733D-01  0.101210D+00
      9 -0.942763D-02 -0.948280D-02 -0.192656D-02  0.521245D-01
     10  0.264052D-02  0.410767D-02 -0.636785D-02  0.298141D-02  0.521836D-01
     11  0.759145D-02 -0.568333D-02 -0.475491D-03  0.219051D-02  0.954380D-02
     12 -0.647534D-02  0.279264D-02  0.226877D-02  0.559175D-02 -0.448048D-02
     13  0.320391D-02  0.637092D-02  0.110859D-03 -0.113515D-02 -0.470268D-02
     14 -0.114778D-03  0.688757D-03 -0.620715D-02 -0.494243D-03 -0.128546D-02
     15  0.569397D-02 -0.110485D-02 -0.512328D-03  0.678617D-02  0.365756D-02
     16  0.552334D-02 -0.228590D-01 -0.154364D-01  0.657305D-02 -0.868531D-03
     17 -0.221649D-02  0.156653D-01 -0.292526D-01 -0.114898D-01 -0.347487D-02
     18  0.421968D-02  0.948002D-02  0.554113D-02 -0.109338D-01  0.396923D-02
     19 -0.200390D-01 -0.192871D-01 -0.674478D-02  0.410542D-02 -0.280158D-01
     20  0.123812D-01  0.806811D-02 -0.276564D-01  0.230098D-01 -0.155448D-01
     21 -0.279142D-01 -0.973288D-02 -0.595203D-02 -0.286079D-01  0.531545D-02
               11            12            13            14            15 
     11  0.589835D-01
     12 -0.648470D-02  0.437587D-01
     13  0.557805D-02  0.362334D-02  0.392822D-01
     14  0.171626D-02  0.988507D-03 -0.793862D-03  0.574646D-01
     15 -0.292503D-02 -0.376151D-03 -0.339020D-02  0.329788D-03  0.360645D-01
     16  0.803531D-03  0.400470D-02 -0.170776D-01  0.774283D-02  0.631659D-02
     17  0.206659D-02  0.289479D-02 -0.169796D-01 -0.203241D-01  0.991702D-02
     18  0.385124D-03  0.436383D-02  0.708565D-02 -0.316521D-02 -0.820185D-02
     19  0.288391D-02 -0.195915D-01 -0.140168D-01  0.398272D-03  0.101441D-02
     20 -0.213573D-01 -0.963275D-02 -0.509509D-02 -0.186569D-01 -0.193491D-01
     21  0.648889D-02 -0.239709D-01 -0.774252D-02  0.924968D-02 -0.235093D-01
               16            17            18            19            20 
     16  0.834901D-01
     17  0.364437D-02  0.645924D-01
     18 -0.208668D-01 -0.342648D-03  0.561169D-01
     19 -0.176548D-01 -0.164508D-02  0.169995D-01  0.131612D+00
     20 -0.175350D-03 -0.128861D-01  0.261220D-03  0.859432D-03  0.120575D+00
     21 -0.136414D-01  0.826677D-03 -0.303412D-01  0.264618D-01 -0.536325D-02
               21 
     21  0.163840D+00
 Leave Link  716 at Thu Dec  7 11:10:40 2023, MaxMem=  1879048192 cpu:               0.4 elap:               0.0
 (Enter /home/sekinelabo/g16/l103.exe)

 GradGradGradGradGradGradGradGradGradGradGradGradGradGradGradGradGradGrad
 Berny optimization.
 Search for a local minimum.
 Step number   1 out of a maximum of    2
 All quantities printed in internal units (Hartrees-Bohrs-Radians)
 Second derivative matrix not updated -- first step.
 ITU=  0
     Eigenvalues ---    0.04261   0.04716   0.06091   0.06456   0.06891
     Eigenvalues ---    0.08808   0.09844   0.10689   0.11822   0.13086
     Eigenvalues ---    0.14694   0.15624   0.15935   0.17521   0.21437
 Angle between quadratic step and forces=  33.41 degrees.
 Linear search not attempted -- first point.
 B after Tr=     0.000000    0.000000   -0.000000
         Rot=    1.000000   -0.000000    0.000000    0.000000 Ang=   0.00 deg.
 Variable       Old X    -DE/DX   Delta X   Delta X   Delta X     New X
                                 (Linear)    (Quad)   (Total)
    X1       23.98308   0.00232   0.00000   0.02669   0.02669  24.00977
    Y1       26.15438  -0.00114   0.00000  -0.00556  -0.00556  26.14882
    Z1       22.97075   0.00047   0.00000   0.00395   0.00395  22.97470
    X2       22.39231  -0.00231   0.00000  -0.00558  -0.00558  22.38673
    Y2       29.55721   0.00189   0.00000   0.00199   0.00199  29.55920
    Z2       28.14199   0.00022   0.00000   0.00298   0.00298  28.14497
    X3       28.21304  -0.00091   0.00000  -0.00866  -0.00866  28.20439
    Y3       31.59244   0.00100   0.00000   0.00421   0.00421  31.59665
    Z3       25.75470  -0.00053   0.00000  -0.00715  -0.00715  25.74755
    X4       21.97789   0.00133   0.00000   0.03795   0.03795  22.01584
    Y4       23.03028  -0.00068   0.00000  -0.01980  -0.01980  23.01048
    Z4       28.96837  -0.00184   0.00000  -0.02841  -0.02841  28.93995
    X5       28.50916  -0.00232   0.00000  -0.05172  -0.05172  28.45744
    Y5       20.69061   0.00297   0.00000   0.05069   0.05069  20.74131
    Z5       25.26450   0.00070   0.00000   0.02192   0.02192  25.28642
    X6       31.35093  -0.00191   0.00000  -0.02448  -0.02448  31.32645
    Y6       26.50360  -0.00174   0.00000  -0.02132  -0.02132  26.48227
    Z6       23.52010   0.00077   0.00000   0.01469   0.01469  23.53479
    X7       27.36248   0.00379   0.00000   0.02580   0.02580  27.38828
    Y7       26.26039  -0.00229   0.00000  -0.01021  -0.01021  26.25018
    Z7       29.16849   0.00020   0.00000  -0.00797  -0.00797  29.16052
         Item               Value     Threshold  Converged?
 Maximum Force            0.003791     0.000450     NO 
 RMS     Force            0.001761     0.000300     NO 
 Maximum Displacement     0.051725     0.001800     NO 
 RMS     Displacement     0.023315     0.001200     NO 
 Predicted change in Energy=-3.599103D-04
 GradGradGradGradGradGradGradGradGradGradGradGradGradGradGradGradGradGrad

 Leave Link  103 at Thu Dec  7 11:10:40 2023, MaxMem=  1879048192 cpu:               0.2 elap:               0.0
 (Enter /home/sekinelabo/g16/l9999.exe)
 1\1\GINC-SEKINELABO-XA7R-R37\Force\UB3LYP\6-311+G(d)\Na7(2)\SEKINELABO
 \07-Dec-2023\0\\#P B3LYP/6-311+g(d) force\\DPGEN\\0,2\Na,12.6913,13.84
 03,12.1556\Na,11.8495,15.641,14.8921\Na,14.9297,16.718,13.6288\Na,11.6
 302,12.1871,15.3294\Na,15.0864,10.949,13.3694\Na,16.5902,14.0251,12.44
 63\Na,14.4796,13.8964,15.4353\\Version=ES64L-G16RevB.01\State=2-A\HF=-
 1136.1384182\S2=0.759156\S2-1=0.\S2A=0.750055\RMSD=7.973e-09\RMSF=1.76
 1e-03\Dipole=-0.0695113,-0.1029299,-0.0211448\Quadrupole=1.7567929,3.0
 733009,-4.8300938,0.5236707,-5.0725997,-0.3398467\PG=C01 [X(Na7)]\\@


 THEORY:  SUPPOSITION WHICH HAS SCIENTIFIC BASIS,
          BUT NOT EXPERIMENTALLY PROVEN.
 FACT:    A THEORY WHICH HAS BEEN PROVEN BY ENOUGH 
          MONEY TO PAY FOR THE EXPERIMENTS.

                          --  THE WIZARD OF ID
 Job cpu time:       0 days  0 hours  3 minutes 51.9 seconds.
 Elapsed time:       0 days  0 hours  0 minutes 19.6 seconds.
 File lengths (MBytes):  RWF=     32 Int=      0 D2E=      0 Chk=      4 Scr=      1
 Normal termination of Gaussian 16 at Thu Dec  7 11:10:40 2023.
