 Set GAUSS_MDEF to "14GB".
 Entering Gaussian System, Link 0=g16
 Initial command:
 /home/sekinelabo/g16/l1.exe "/home/sekinelabo/g16temp/Gau-18626.inp" -scrdir="/home/sekinelabo/g16temp/"
 Entering Link 1 = /home/sekinelabo/g16/l1.exe PID=     18628.
  
 Copyright (c) 1988-2017, Gaussian, Inc.  All Rights Reserved.
  
 This is part of the Gaussian(R) 16 program.  It is based on
 the Gaussian(R) 09 system (copyright 2009, Gaussian, Inc.),
 the Gaussian(R) 03 system (copyright 2003, Gaussian, Inc.),
 the Gaussian(R) 98 system (copyright 1998, Gaussian, Inc.),
 the Gaussian(R) 94 system (copyright 1995, Gaussian, Inc.),
 the Gaussian 92(TM) system (copyright 1992, Gaussian, Inc.),
 the Gaussian 90(TM) system (copyright 1990, Gaussian, Inc.),
 the Gaussian 88(TM) system (copyright 1988, Gaussian, Inc.),
 the Gaussian 86(TM) system (copyright 1986, Carnegie Mellon
 University), and the Gaussian 82(TM) system (copyright 1983,
 Carnegie Mellon University). Gaussian is a federally registered
 trademark of Gaussian, Inc.
  
 This software contains proprietary and confidential information,
 including trade secrets, belonging to Gaussian, Inc.
  
 This software is provided under written license and may be
 used, copied, transmitted, or stored only in accord with that
 written license.
  
 The following legend is applicable only to US Government
 contracts under FAR:
  
                    RESTRICTED RIGHTS LEGEND
  
 Use, reproduction and disclosure by the US Government is
 subject to restrictions as set forth in subparagraphs (a)
 and (c) of the Commercial Computer Software - Restricted
 Rights clause in FAR 52.227-19.
  
 Gaussian, Inc.
 340 Quinnipiac St., Bldg. 40, Wallingford CT 06492
  
  
 ---------------------------------------------------------------
 Warning -- This program may not be used in any manner that
 competes with the business of Gaussian, Inc. or will provide
 assistance to any competitor of Gaussian, Inc.  The licensee
 of this program is prohibited from giving any competitor of
 Gaussian, Inc. access to this program.  By using this program,
 the user acknowledges that Gaussian, Inc. is engaged in the
 business of creating and licensing software in the field of
 computational chemistry and represents and warrants to the
 licensee that it is not a competitor of Gaussian, Inc. and that
 it will not use this program in any manner prohibited above.
 ---------------------------------------------------------------
  

 Cite this work as:
 Gaussian 16, Revision B.01,
 M. J. Frisch, G. W. Trucks, H. B. Schlegel, G. E. Scuseria, 
 M. A. Robb, J. R. Cheeseman, G. Scalmani, V. Barone, 
 G. A. Petersson, H. Nakatsuji, X. Li, M. Caricato, A. V. Marenich, 
 J. Bloino, B. G. Janesko, R. Gomperts, B. Mennucci, H. P. Hratchian, 
 J. V. Ortiz, A. F. Izmaylov, J. L. Sonnenberg, D. Williams-Young, 
 F. Ding, F. Lipparini, F. Egidi, J. Goings, B. Peng, A. Petrone, 
 T. Henderson, D. Ranasinghe, V. G. Zakrzewski, J. Gao, N. Rega, 
 G. Zheng, W. Liang, M. Hada, M. Ehara, K. Toyota, R. Fukuda, 
 J. Hasegawa, M. Ishida, T. Nakajima, Y. Honda, O. Kitao, H. Nakai, 
 T. Vreven, K. Throssell, J. A. Montgomery, Jr., J. E. Peralta, 
 F. Ogliaro, M. J. Bearpark, J. J. Heyd, E. N. Brothers, K. N. Kudin, 
 V. N. Staroverov, T. A. Keith, R. Kobayashi, J. Normand, 
 K. Raghavachari, A. P. Rendell, J. C. Burant, S. S. Iyengar, 
 J. Tomasi, M. Cossi, J. M. Millam, M. Klene, C. Adamo, R. Cammi, 
 J. W. Ochterski, R. L. Martin, K. Morokuma, O. Farkas, 
 J. B. Foresman, and D. J. Fox, Gaussian, Inc., Wallingford CT, 2016.
 
 ******************************************
 Gaussian 16:  ES64L-G16RevB.01 20-Dec-2017
                28-Nov-2023 
 ******************************************
 %nproc=15
 Will use up to   15 processors via shared memory.
 -------------------------
 #P B3LYP/6-311+g(d) force
 -------------------------
 1/10=7,30=1,38=1/1,3;
 2/12=2,17=6,18=5,40=1/2;
 3/5=4,6=6,7=11,11=2,25=1,30=1,71=1,74=-5/1,2,3;
 4//1;
 5/5=2,38=5/2;
 6/7=2,8=2,9=2,10=2,28=1/1;
 7/29=1/1,2,3,16;
 1/10=7,30=1/3;
 99//99;
 Leave Link    1 at Tue Nov 28 19:06:30 2023, MaxMem=           0 cpu:               0.3 elap:               0.0
 (Enter /home/sekinelabo/g16/l101.exe)
 -----
 DPGEN
 -----
 Symbolic Z-matrix:
 Charge =  0 Multiplicity = 2
 Na                    13.5051   16.4583   13.7197 
 Na                    12.881    15.3622   17.2784 
 Na                    14.9282   13.1565   18.5571 
 Na                    15.2996   17.679    11.292 
 Na                    17.3029   10.7024   17.1037 
 Na                    15.9455   15.9524   16.0482 
 Na                    17.5632   18.1147   13.4264 
 
 ITRead=  0  0  0  0  0  0  0
 MicOpt= -1 -1 -1 -1 -1 -1 -1
 NAtoms=      7 NQM=        7 NQMF=       0 NMMI=      0 NMMIF=      0
                NMic=       0 NMicF=      0.
                    Isotopes and Nuclear Properties:
 (Nuclear quadrupole moments (NQMom) in fm**2, nuclear magnetic moments (NMagM)
  in nuclear magnetons)

  Atom         1           2           3           4           5           6           7
 IAtWgt=          23          23          23          23          23          23          23
 AtmWgt=  22.9897697  22.9897697  22.9897697  22.9897697  22.9897697  22.9897697  22.9897697
 NucSpn=           3           3           3           3           3           3           3
 AtZEff=  -0.0000000  -0.0000000  -0.0000000  -0.0000000  -0.0000000  -0.0000000  -0.0000000
 NQMom=   10.4000000  10.4000000  10.4000000  10.4000000  10.4000000  10.4000000  10.4000000
 NMagM=    2.2175200   2.2175200   2.2175200   2.2175200   2.2175200   2.2175200   2.2175200
 AtZNuc=  11.0000000  11.0000000  11.0000000  11.0000000  11.0000000  11.0000000  11.0000000
 Leave Link  101 at Tue Nov 28 19:06:30 2023, MaxMem=  1879048192 cpu:               2.3 elap:               0.2
 (Enter /home/sekinelabo/g16/l103.exe)

 GradGradGradGradGradGradGradGradGradGradGradGradGradGradGradGradGradGrad
 Berny optimization.
 Initialization pass.
 Trust Radius=3.00D-01 FncErr=1.00D-07 GrdErr=1.00D-07 EigMax=2.50D+02 EigMin=1.00D-04
 Number of steps in this run=      2 maximum allowed number of steps=      2.
 GradGradGradGradGradGradGradGradGradGradGradGradGradGradGradGradGradGrad

 Leave Link  103 at Tue Nov 28 19:06:30 2023, MaxMem=  1879048192 cpu:               0.2 elap:               0.0
 (Enter /home/sekinelabo/g16/l202.exe)
                          Input orientation:                          
 ---------------------------------------------------------------------
 Center     Atomic      Atomic             Coordinates (Angstroms)
 Number     Number       Type             X           Y           Z
 ---------------------------------------------------------------------
      1         11           0       13.505100   16.458300   13.719700
      2         11           0       12.881000   15.362200   17.278400
      3         11           0       14.928200   13.156500   18.557100
      4         11           0       15.299600   17.679000   11.292000
      5         11           0       17.302900   10.702400   17.103700
      6         11           0       15.945500   15.952400   16.048200
      7         11           0       17.563200   18.114700   13.426400
 ---------------------------------------------------------------------
                    Distance matrix (angstroms):
                    1          2          3          4          5
     1  Na   0.000000
     2  Na   3.775617   0.000000
     3  Na   6.027233   3.269742   0.000000
     4  Na   3.256388   6.859604   8.565782   0.000000
     5  Na   7.681479   6.426310   3.711358   9.298495   0.000000
     6  Na   3.410777   3.354533   3.891855   5.100958   5.524411
     7  Na   4.392933   6.658615   7.605988   3.141557   8.278435
                    6          7
     6  Na   0.000000
     7  Na   3.763819   0.000000
 Stoichiometry    Na7(2)
 Framework group  C1[X(Na7)]
 Deg. of freedom    15
 Full point group                 C1      NOp   1
 Largest Abelian subgroup         C1      NOp   1
 Largest concise Abelian subgroup C1      NOp   1
                         Standard orientation:                         
 ---------------------------------------------------------------------
 Center     Atomic      Atomic             Coordinates (Angstroms)
 Number     Number       Type             X           Y           Z
 ---------------------------------------------------------------------
      1         11           0        1.948614    1.520873   -1.078509
      2         11           0       -1.327244    2.824045    0.272707
      3         11           0       -3.810971    0.709833    0.501659
      4         11           0        4.509073   -0.490038   -1.144488
      5         11           0       -4.553857   -2.568498   -1.071505
      6         11           0       -0.066839   -0.175993    1.087593
      7         11           0        3.301224   -1.820222    1.432544
 ---------------------------------------------------------------------
 Rotational constants (GHZ):           0.7807527           0.2774332           0.2363035
 Leave Link  202 at Tue Nov 28 19:06:30 2023, MaxMem=  1879048192 cpu:               0.0 elap:               0.0
 (Enter /home/sekinelabo/g16/l301.exe)
 Standard basis: 6-311+G(d) (5D, 7F)
 Ernie: Thresh=  0.10000D-02 Tol=  0.10000D-05 Strict=F.
 There are   217 symmetry adapted cartesian basis functions of A   symmetry.
 There are   210 symmetry adapted basis functions of A   symmetry.
   210 basis functions,   350 primitive gaussians,   217 cartesian basis functions
    39 alpha electrons       38 beta electrons
       nuclear repulsion energy       282.2709970246 Hartrees.
 IExCor=  402 DFT=T Ex+Corr=B3LYP ExCW=0 ScaHFX=  0.200000
 ScaDFX=  0.800000  0.720000  1.000000  0.810000 ScalE2=  1.000000  1.000000
 IRadAn=      5 IRanWt=     -1 IRanGd=            0 ICorTp=0 IEmpDi=  4
 NAtoms=    7 NActive=    7 NUniq=    7 SFac= 1.00D+00 NAtFMM=   60 NAOKFM=F Big=F
 Integral buffers will be    131072 words long.
 Raffenetti 2 integral format.
 Two-electron integral symmetry is turned on.
 Leave Link  301 at Tue Nov 28 19:06:30 2023, MaxMem=  1879048192 cpu:               0.5 elap:               0.0
 (Enter /home/sekinelabo/g16/l302.exe)
 NPDir=0 NMtPBC=     1 NCelOv=     1 NCel=       1 NClECP=     1 NCelD=      1
         NCelK=      1 NCelE2=     1 NClLst=     1 CellRange=     0.0.
 One-electron integrals computed using PRISM.
 One-electron integral symmetry used in STVInt
 NBasis=   210 RedAO= T EigKep=  4.89D-06  NBF=   210
 NBsUse=   210 1.00D-06 EigRej= -1.00D+00 NBFU=   210
 Precomputing XC quadrature grid using
 IXCGrd= 4 IRadAn=           5 IRanWt=          -1 IRanGd=           0 AccXCQ= 0.00D+00.
 Generated NRdTot=       0 NPtTot=           0 NUsed=           0 NTot=          32
 NSgBfM=   208   208   208   208   208 MxSgAt=     7 MxSgA2=     7.
 Leave Link  302 at Tue Nov 28 19:06:31 2023, MaxMem=  1879048192 cpu:               1.9 elap:               0.1
 (Enter /home/sekinelabo/g16/l303.exe)
 DipDrv:  MaxL=1.
 Leave Link  303 at Tue Nov 28 19:06:31 2023, MaxMem=  1879048192 cpu:               0.5 elap:               0.0
 (Enter /home/sekinelabo/g16/l401.exe)
 ExpMin= 7.60D-03 ExpMax= 3.62D+04 ExpMxC= 1.21D+03 IAcc=3 IRadAn=         5 AccDes= 0.00D+00
 Harris functional with IExCor=  402 and IRadAn=       5 diagonalized for initial guess.
 HarFok:  IExCor=  402 AccDes= 0.00D+00 IRadAn=         5 IDoV= 1 UseB2=F ITyADJ=14
 ICtDFT=  3500011 ScaDFX=  1.000000  1.000000  1.000000  1.000000
 FoFCou: FMM=F IPFlag=           0 FMFlag=      100000 FMFlg1=           0
         NFxFlg=           0 DoJE=T BraDBF=F KetDBF=T FulRan=T
         wScrn=  0.000000 ICntrl=       500 IOpCl=  0 I1Cent=   200000004 NGrid=           0
         NMat0=    1 NMatS0=      1 NMatT0=    0 NMatD0=    1 NMtDS0=    0 NMtDT0=    0
 Petite list used in FoFCou.
 Harris En= -1135.88008101916    
 JPrj=0 DoOrth=F DoCkMO=F.
 Initial guess <Sx>= 0.0000 <Sy>= 0.0000 <Sz>= 0.5000 <S**2>= 0.7500 S= 0.5000
 Leave Link  401 at Tue Nov 28 19:06:31 2023, MaxMem=  1879048192 cpu:               4.1 elap:               0.3
 (Enter /home/sekinelabo/g16/l502.exe)
 Keep R1 and R2 ints in memory in canonical form, NReq=506573293.
 FoFCou: FMM=F IPFlag=           0 FMFlag=           0 FMFlg1=           0
         NFxFlg=           0 DoJE=F BraDBF=F KetDBF=F FulRan=T
         wScrn=  0.000000 ICntrl=       600 IOpCl=  0 I1Cent=           0 NGrid=           0
         NMat0=    1 NMatS0=  22155 NMatT0=    0 NMatD0=    1 NMtDS0=    0 NMtDT0=    0
 Symmetry not used in FoFCou.
 Two-electron integral symmetry not used.
 UHF open shell SCF:
 Using DIIS extrapolation, IDIIS=  1040.
 NGot=  1879048192 LenX=  1388082607 LenY=  1388035077
 Requested convergence on RMS density matrix=1.00D-08 within 128 cycles.
 Requested convergence on MAX density matrix=1.00D-06.
 Requested convergence on             energy=1.00D-06.
 No special actions if energy rises.

 Cycle   1  Pass 1  IDiag  1:
 E= -1136.08614659620    
 DIIS: error= 1.04D-02 at cycle   1 NSaved=   1.
 NSaved= 1 IEnMin= 1 EnMin= -1136.08614659620     IErMin= 1 ErrMin= 1.04D-02
 ErrMax= 1.04D-02  0.00D+00 EMaxC= 1.00D-01 BMatC= 1.83D-01 BMatP= 1.83D-01
 IDIUse=3 WtCom= 8.96D-01 WtEn= 1.04D-01
 Coeff-Com:  0.100D+01
 Coeff-En:   0.100D+01
 Coeff:      0.100D+01
 Gap=     0.031 Goal=   None    Shift=    0.000
 Gap=     0.038 Goal=   None    Shift=    0.000
 GapD=    0.031 DampG=0.250 DampE=0.500 DampFc=0.2500 IDamp=-1.
 Damping current iteration by 2.50D-01
 RMSDP=8.88D-03 MaxDP=4.66D-01              OVMax= 1.39D-01

 Cycle   2  Pass 1  IDiag  1:
 E= -1136.09437270601     Delta-E=       -0.008226109811 Rises=F Damp=T
 DIIS: error= 7.31D-03 at cycle   2 NSaved=   2.
 NSaved= 2 IEnMin= 2 EnMin= -1136.09437270601     IErMin= 2 ErrMin= 7.31D-03
 ErrMax= 7.31D-03  0.00D+00 EMaxC= 1.00D-01 BMatC= 7.09D-02 BMatP= 1.83D-01
 IDIUse=3 WtCom= 9.27D-01 WtEn= 7.31D-02
 Coeff-Com: -0.130D+01 0.230D+01
 Coeff-En:   0.000D+00 0.100D+01
 Coeff:     -0.120D+01 0.220D+01
 Gap=     0.033 Goal=   None    Shift=    0.000
 Gap=     0.036 Goal=   None    Shift=    0.000
 RMSDP=4.25D-03 MaxDP=2.39D-01 DE=-8.23D-03 OVMax= 1.29D-01

 Cycle   3  Pass 1  IDiag  1:
 E= -1136.10977084016     Delta-E=       -0.015398134148 Rises=F Damp=F
 DIIS: error= 1.65D-03 at cycle   3 NSaved=   3.
 NSaved= 3 IEnMin= 3 EnMin= -1136.10977084016     IErMin= 3 ErrMin= 1.65D-03
 ErrMax= 1.65D-03  0.00D+00 EMaxC= 1.00D-01 BMatC= 1.34D-03 BMatP= 7.09D-02
 IDIUse=3 WtCom= 9.83D-01 WtEn= 1.65D-02
 Coeff-Com: -0.118D+00 0.206D+00 0.912D+00
 Coeff-En:   0.000D+00 0.000D+00 0.100D+01
 Coeff:     -0.116D+00 0.202D+00 0.914D+00
 Gap=     0.036 Goal=   None    Shift=    0.000
 Gap=     0.044 Goal=   None    Shift=    0.000
 RMSDP=3.05D-03 MaxDP=1.94D-01 DE=-1.54D-02 OVMax= 1.63D-01

 Cycle   4  Pass 1  IDiag  1:
 E= -1136.10648133637     Delta-E=        0.003289503789 Rises=F Damp=F
 DIIS: error= 2.58D-03 at cycle   4 NSaved=   4.
 NSaved= 4 IEnMin= 3 EnMin= -1136.10977084016     IErMin= 3 ErrMin= 1.65D-03
 ErrMax= 2.58D-03  0.00D+00 EMaxC= 1.00D-01 BMatC= 3.56D-03 BMatP= 1.34D-03
 IDIUse=3 WtCom= 1.64D-01 WtEn= 8.36D-01
 Coeff-Com: -0.222D-02 0.364D-02 0.622D+00 0.377D+00
 Coeff-En:   0.000D+00 0.000D+00 0.689D+00 0.311D+00
 Coeff:     -0.365D-03 0.598D-03 0.678D+00 0.322D+00
 Gap=     0.034 Goal=   None    Shift=    0.000
 Gap=     0.038 Goal=   None    Shift=    0.000
 RMSDP=1.46D-03 MaxDP=9.16D-02 DE= 3.29D-03 OVMax= 9.73D-02

 Cycle   5  Pass 1  IDiag  1:
 E= -1136.11160738197     Delta-E=       -0.005126045599 Rises=F Damp=F
 DIIS: error= 4.66D-04 at cycle   5 NSaved=   5.
 NSaved= 5 IEnMin= 5 EnMin= -1136.11160738197     IErMin= 5 ErrMin= 4.66D-04
 ErrMax= 4.66D-04  0.00D+00 EMaxC= 1.00D-01 BMatC= 1.11D-04 BMatP= 1.34D-03
 IDIUse=3 WtCom= 9.95D-01 WtEn= 4.66D-03
 Coeff-Com:  0.256D-02-0.459D-02 0.271D+00 0.591D-01 0.672D+00
 Coeff-En:   0.000D+00 0.000D+00 0.000D+00 0.000D+00 0.100D+01
 Coeff:      0.254D-02-0.457D-02 0.270D+00 0.588D-01 0.673D+00
 Gap=     0.034 Goal=   None    Shift=    0.000
 Gap=     0.038 Goal=   None    Shift=    0.000
 RMSDP=5.16D-04 MaxDP=4.01D-02 DE=-5.13D-03 OVMax= 1.16D-02

 Cycle   6  Pass 1  IDiag  1:
 E= -1136.11174502552     Delta-E=       -0.000137643555 Rises=F Damp=F
 DIIS: error= 1.23D-04 at cycle   6 NSaved=   6.
 NSaved= 6 IEnMin= 6 EnMin= -1136.11174502552     IErMin= 6 ErrMin= 1.23D-04
 ErrMax= 1.23D-04  0.00D+00 EMaxC= 1.00D-01 BMatC= 7.85D-06 BMatP= 1.11D-04
 IDIUse=3 WtCom= 9.99D-01 WtEn= 1.23D-03
 Coeff-Com: -0.837D-04-0.548D-03-0.361D-01-0.720D-01 0.276D+00 0.833D+00
 Coeff-En:   0.000D+00 0.000D+00 0.000D+00 0.000D+00 0.000D+00 0.100D+01
 Coeff:     -0.836D-04-0.548D-03-0.360D-01-0.719D-01 0.276D+00 0.833D+00
 Gap=     0.034 Goal=   None    Shift=    0.000
 Gap=     0.038 Goal=   None    Shift=    0.000
 RMSDP=1.64D-04 MaxDP=7.15D-03 DE=-1.38D-04 OVMax= 9.31D-03

 Cycle   7  Pass 1  IDiag  1:
 E= -1136.11176935392     Delta-E=       -0.000024328402 Rises=F Damp=F
 DIIS: error= 9.59D-05 at cycle   7 NSaved=   7.
 NSaved= 7 IEnMin= 7 EnMin= -1136.11176935392     IErMin= 7 ErrMin= 9.59D-05
 ErrMax= 9.59D-05  0.00D+00 EMaxC= 1.00D-01 BMatC= 1.63D-06 BMatP= 7.85D-06
 IDIUse=1 WtCom= 1.00D+00 WtEn= 0.00D+00
 Coeff-Com: -0.352D-03 0.399D-03-0.569D-01-0.304D-01-0.262D-01 0.254D+00
 Coeff-Com:  0.860D+00
 Coeff:     -0.352D-03 0.399D-03-0.569D-01-0.304D-01-0.262D-01 0.254D+00
 Coeff:      0.860D+00
 Gap=     0.034 Goal=   None    Shift=    0.000
 Gap=     0.038 Goal=   None    Shift=    0.000
 RMSDP=1.29D-04 MaxDP=9.68D-03 DE=-2.43D-05 OVMax= 9.43D-03

 Cycle   8  Pass 1  IDiag  1:
 E= -1136.11178078463     Delta-E=       -0.000011430709 Rises=F Damp=F
 DIIS: error= 7.31D-05 at cycle   8 NSaved=   8.
 NSaved= 8 IEnMin= 8 EnMin= -1136.11178078463     IErMin= 8 ErrMin= 7.31D-05
 ErrMax= 7.31D-05  0.00D+00 EMaxC= 1.00D-01 BMatC= 1.07D-06 BMatP= 1.63D-06
 IDIUse=1 WtCom= 1.00D+00 WtEn= 0.00D+00
 Coeff-Com:  0.191D-03-0.148D-03-0.306D-01-0.277D-02-0.841D-01-0.381D-01
 Coeff-Com:  0.484D+00 0.671D+00
 Coeff:      0.191D-03-0.148D-03-0.306D-01-0.277D-02-0.841D-01-0.381D-01
 Coeff:      0.484D+00 0.671D+00
 Gap=     0.034 Goal=   None    Shift=    0.000
 Gap=     0.038 Goal=   None    Shift=    0.000
 RMSDP=9.80D-05 MaxDP=5.08D-03 DE=-1.14D-05 OVMax= 6.38D-03

 Cycle   9  Pass 1  IDiag  1:
 E= -1136.11178880289     Delta-E=       -0.000008018261 Rises=F Damp=F
 DIIS: error= 6.04D-05 at cycle   9 NSaved=   9.
 NSaved= 9 IEnMin= 9 EnMin= -1136.11178880289     IErMin= 9 ErrMin= 6.04D-05
 ErrMax= 6.04D-05  0.00D+00 EMaxC= 1.00D-01 BMatC= 5.86D-07 BMatP= 1.07D-06
 IDIUse=1 WtCom= 1.00D+00 WtEn= 0.00D+00
 Coeff-Com:  0.591D-03-0.712D-03 0.302D-02 0.106D-01-0.394D-01-0.116D+00
 Coeff-Com: -0.120D+00 0.367D+00 0.895D+00
 Coeff:      0.591D-03-0.712D-03 0.302D-02 0.106D-01-0.394D-01-0.116D+00
 Coeff:     -0.120D+00 0.367D+00 0.895D+00
 Gap=     0.034 Goal=   None    Shift=    0.000
 Gap=     0.038 Goal=   None    Shift=    0.000
 RMSDP=1.08D-04 MaxDP=6.45D-03 DE=-8.02D-06 OVMax= 8.18D-03

 Cycle  10  Pass 1  IDiag  1:
 E= -1136.11179782844     Delta-E=       -0.000009025546 Rises=F Damp=F
 DIIS: error= 4.29D-05 at cycle  10 NSaved=  10.
 NSaved=10 IEnMin=10 EnMin= -1136.11179782844     IErMin=10 ErrMin= 4.29D-05
 ErrMax= 4.29D-05  0.00D+00 EMaxC= 1.00D-01 BMatC= 3.89D-07 BMatP= 5.86D-07
 IDIUse=1 WtCom= 1.00D+00 WtEn= 0.00D+00
 Coeff-Com: -0.230D-03 0.287D-03 0.727D-02-0.107D-03 0.298D-01 0.336D-01
 Coeff-Com: -0.214D+00-0.269D+00 0.415D-01 0.137D+01
 Coeff:     -0.230D-03 0.287D-03 0.727D-02-0.107D-03 0.298D-01 0.336D-01
 Coeff:     -0.214D+00-0.269D+00 0.415D-01 0.137D+01
 Gap=     0.035 Goal=   None    Shift=    0.000
 Gap=     0.038 Goal=   None    Shift=    0.000
 RMSDP=1.30D-04 MaxDP=7.39D-03 DE=-9.03D-06 OVMax= 1.08D-02

 Cycle  11  Pass 1  IDiag  1:
 E= -1136.11180895027     Delta-E=       -0.000011121827 Rises=F Damp=F
 DIIS: error= 4.08D-05 at cycle  11 NSaved=  11.
 NSaved=11 IEnMin=11 EnMin= -1136.11180895027     IErMin=11 ErrMin= 4.08D-05
 ErrMax= 4.08D-05  0.00D+00 EMaxC= 1.00D-01 BMatC= 3.36D-07 BMatP= 3.89D-07
 IDIUse=1 WtCom= 1.00D+00 WtEn= 0.00D+00
 Coeff-Com: -0.410D-03 0.500D-03 0.792D-03-0.449D-02 0.318D-01 0.685D-01
 Coeff-Com: -0.804D-01-0.234D+00-0.371D+00 0.452D+00 0.114D+01
 Coeff:     -0.410D-03 0.500D-03 0.792D-03-0.449D-02 0.318D-01 0.685D-01
 Coeff:     -0.804D-01-0.234D+00-0.371D+00 0.452D+00 0.114D+01
 Gap=     0.035 Goal=   None    Shift=    0.000
 Gap=     0.038 Goal=   None    Shift=    0.000
 RMSDP=1.21D-04 MaxDP=5.85D-03 DE=-1.11D-05 OVMax= 1.13D-02

 Cycle  12  Pass 1  IDiag  1:
 E= -1136.11181989494     Delta-E=       -0.000010944670 Rises=F Damp=F
 DIIS: error= 3.61D-05 at cycle  12 NSaved=  12.
 NSaved=12 IEnMin=12 EnMin= -1136.11181989494     IErMin=12 ErrMin= 3.61D-05
 ErrMax= 3.61D-05  0.00D+00 EMaxC= 1.00D-01 BMatC= 2.96D-07 BMatP= 3.36D-07
 IDIUse=1 WtCom= 1.00D+00 WtEn= 0.00D+00
 Coeff-Com:  0.603D-04-0.916D-04-0.793D-02-0.197D-02-0.104D-01 0.187D-01
 Coeff-Com:  0.817D-01 0.154D+00-0.136D+00-0.904D+00 0.283D+00 0.152D+01
 Coeff:      0.603D-04-0.916D-04-0.793D-02-0.197D-02-0.104D-01 0.187D-01
 Coeff:      0.817D-01 0.154D+00-0.136D+00-0.904D+00 0.283D+00 0.152D+01
 Gap=     0.035 Goal=   None    Shift=    0.000
 Gap=     0.038 Goal=   None    Shift=    0.000
 RMSDP=1.62D-04 MaxDP=7.68D-03 DE=-1.09D-05 OVMax= 1.67D-02

 Cycle  13  Pass 1  IDiag  1:
 E= -1136.11183461449     Delta-E=       -0.000014719552 Rises=F Damp=F
 DIIS: error= 3.42D-05 at cycle  13 NSaved=  13.
 NSaved=13 IEnMin=13 EnMin= -1136.11183461449     IErMin=13 ErrMin= 3.42D-05
 ErrMax= 3.42D-05  0.00D+00 EMaxC= 1.00D-01 BMatC= 2.39D-07 BMatP= 2.96D-07
 IDIUse=1 WtCom= 1.00D+00 WtEn= 0.00D+00
 Coeff-Com:  0.133D-02-0.169D-02 0.185D-02 0.113D-01-0.525D-01-0.966D-01
 Coeff-Com: -0.105D+00 0.387D+00 0.106D+01-0.293D+00-0.286D+01-0.637D+00
 Coeff-Com:  0.358D+01
 Coeff:      0.133D-02-0.169D-02 0.185D-02 0.113D-01-0.525D-01-0.966D-01
 Coeff:     -0.105D+00 0.387D+00 0.106D+01-0.293D+00-0.286D+01-0.637D+00
 Coeff:      0.358D+01
 Gap=     0.035 Goal=   None    Shift=    0.000
 Gap=     0.038 Goal=   None    Shift=    0.000
 RMSDP=4.57D-04 MaxDP=2.35D-02 DE=-1.47D-05 OVMax= 4.97D-02

 Cycle  14  Pass 1  IDiag  1:
 E= -1136.11186438634     Delta-E=       -0.000029771850 Rises=F Damp=F
 DIIS: error= 1.66D-05 at cycle  14 NSaved=  14.
 NSaved=14 IEnMin=14 EnMin= -1136.11186438634     IErMin=14 ErrMin= 1.66D-05
 ErrMax= 1.66D-05  0.00D+00 EMaxC= 1.00D-01 BMatC= 1.48D-07 BMatP= 2.39D-07
 IDIUse=1 WtCom= 1.00D+00 WtEn= 0.00D+00
 Coeff-Com: -0.182D-03 0.236D-03 0.132D-01 0.838D-04 0.556D-01 0.111D+00
 Coeff-Com: -0.444D+00-0.413D+00 0.277D+00 0.177D+01-0.697D+00-0.168D+01
 Coeff-Com:  0.740D+00 0.126D+01
 Coeff:     -0.182D-03 0.236D-03 0.132D-01 0.838D-04 0.556D-01 0.111D+00
 Coeff:     -0.444D+00-0.413D+00 0.277D+00 0.177D+01-0.697D+00-0.168D+01
 Coeff:      0.740D+00 0.126D+01
 Gap=     0.035 Goal=   None    Shift=    0.000
 Gap=     0.038 Goal=   None    Shift=    0.000
 RMSDP=1.21D-04 MaxDP=8.03D-03 DE=-2.98D-05 OVMax= 1.43D-02

 Cycle  15  Pass 1  IDiag  1:
 E= -1136.11186762287     Delta-E=       -0.000003236535 Rises=F Damp=F
 DIIS: error= 4.78D-06 at cycle  15 NSaved=  15.
 NSaved=15 IEnMin=15 EnMin= -1136.11186762287     IErMin=15 ErrMin= 4.78D-06
 ErrMax= 4.78D-06  0.00D+00 EMaxC= 1.00D-01 BMatC= 1.41D-08 BMatP= 1.48D-07
 IDIUse=1 WtCom= 1.00D+00 WtEn= 0.00D+00
 Coeff-Com: -0.386D-03 0.501D-03 0.327D-02-0.192D-02 0.272D-01 0.442D-01
 Coeff-Com: -0.135D+00-0.152D+00-0.397D-01 0.535D+00 0.985D-01-0.348D+00
 Coeff-Com: -0.228D+00 0.231D+00 0.965D+00
 Coeff:     -0.386D-03 0.501D-03 0.327D-02-0.192D-02 0.272D-01 0.442D-01
 Coeff:     -0.135D+00-0.152D+00-0.397D-01 0.535D+00 0.985D-01-0.348D+00
 Coeff:     -0.228D+00 0.231D+00 0.965D+00
 Gap=     0.035 Goal=   None    Shift=    0.000
 Gap=     0.038 Goal=   None    Shift=    0.000
 RMSDP=3.61D-05 MaxDP=2.26D-03 DE=-3.24D-06 OVMax= 4.35D-03

 Cycle  16  Pass 1  IDiag  1:
 E= -1136.11186786043     Delta-E=       -0.000000237562 Rises=F Damp=F
 DIIS: error= 2.09D-06 at cycle  16 NSaved=  16.
 NSaved=16 IEnMin=16 EnMin= -1136.11186786043     IErMin=16 ErrMin= 2.09D-06
 ErrMax= 2.09D-06  0.00D+00 EMaxC= 1.00D-01 BMatC= 2.49D-09 BMatP= 1.41D-08
 IDIUse=1 WtCom= 1.00D+00 WtEn= 0.00D+00
 Coeff-Com: -0.978D-04 0.122D-03-0.590D-03-0.435D-03 0.977D-03 0.451D-02
 Coeff-Com:  0.188D-01-0.558D-02-0.817D-01-0.596D-01 0.153D+00 0.245D+00
 Coeff-Com: -0.295D+00-0.838D-01 0.115D+00 0.989D+00
 Coeff:     -0.978D-04 0.122D-03-0.590D-03-0.435D-03 0.977D-03 0.451D-02
 Coeff:      0.188D-01-0.558D-02-0.817D-01-0.596D-01 0.153D+00 0.245D+00
 Coeff:     -0.295D+00-0.838D-01 0.115D+00 0.989D+00
 Gap=     0.035 Goal=   None    Shift=    0.000
 Gap=     0.038 Goal=   None    Shift=    0.000
 RMSDP=9.25D-06 MaxDP=3.89D-04 DE=-2.38D-07 OVMax= 9.33D-04

 Cycle  17  Pass 1  IDiag  1:
 E= -1136.11186785472     Delta-E=        0.000000005717 Rises=F Damp=F
 DIIS: error= 2.46D-06 at cycle  17 NSaved=  17.
 NSaved=17 IEnMin=16 EnMin= -1136.11186786043     IErMin=16 ErrMin= 2.09D-06
 ErrMax= 2.46D-06  0.00D+00 EMaxC= 1.00D-01 BMatC= 2.04D-09 BMatP= 2.49D-09
 IDIUse=1 WtCom= 1.00D+00 WtEn= 0.00D+00
 Coeff-Com:  0.101D-03-0.129D-03-0.505D-03 0.529D-03-0.649D-02-0.147D-01
 Coeff-Com:  0.309D-01 0.344D-01 0.230D-01-0.921D-01-0.401D-01-0.227D-01
 Coeff-Com:  0.880D-01 0.148D-01-0.206D+00 0.215D+00 0.976D+00
 Coeff:      0.101D-03-0.129D-03-0.505D-03 0.529D-03-0.649D-02-0.147D-01
 Coeff:      0.309D-01 0.344D-01 0.230D-01-0.921D-01-0.401D-01-0.227D-01
 Coeff:      0.880D-01 0.148D-01-0.206D+00 0.215D+00 0.976D+00
 Gap=     0.036 Goal=   None    Shift=    0.000
 Gap=     0.038 Goal=   None    Shift=    0.000
 RMSDP=2.31D-05 MaxDP=1.19D-03 DE= 5.72D-09 OVMax= 2.47D-03

 Cycle  18  Pass 1  IDiag  1:
 E= -1136.11186786676     Delta-E=       -0.000000012041 Rises=F Damp=F
 DIIS: error= 1.74D-06 at cycle  18 NSaved=  18.
 NSaved=18 IEnMin=18 EnMin= -1136.11186786676     IErMin=18 ErrMin= 1.74D-06
 ErrMax= 1.74D-06  0.00D+00 EMaxC= 1.00D-01 BMatC= 8.71D-10 BMatP= 2.04D-09
 IDIUse=1 WtCom= 1.00D+00 WtEn= 0.00D+00
 Coeff-Com:  0.418D-04-0.534D-04-0.208D-03 0.466D-04-0.179D-02-0.431D-02
 Coeff-Com:  0.115D-01 0.107D-01 0.303D-02-0.375D-01 0.802D-02-0.135D-01
 Coeff-Com:  0.432D-01-0.125D-01-0.938D-01-0.145D+00 0.529D+00 0.703D+00
 Coeff:      0.418D-04-0.534D-04-0.208D-03 0.466D-04-0.179D-02-0.431D-02
 Coeff:      0.115D-01 0.107D-01 0.303D-02-0.375D-01 0.802D-02-0.135D-01
 Coeff:      0.432D-01-0.125D-01-0.938D-01-0.145D+00 0.529D+00 0.703D+00
 Gap=     0.035 Goal=   None    Shift=    0.000
 Gap=     0.038 Goal=   None    Shift=    0.000
 RMSDP=9.78D-06 MaxDP=4.56D-04 DE=-1.20D-08 OVMax= 1.08D-03

 Cycle  19  Pass 1  IDiag  1:
 E= -1136.11186787664     Delta-E=       -0.000000009877 Rises=F Damp=F
 DIIS: error= 2.01D-07 at cycle  19 NSaved=  19.
 NSaved=19 IEnMin=19 EnMin= -1136.11186787664     IErMin=19 ErrMin= 2.01D-07
 ErrMax= 2.01D-07  0.00D+00 EMaxC= 1.00D-01 BMatC= 2.09D-11 BMatP= 8.71D-10
 IDIUse=1 WtCom= 1.00D+00 WtEn= 0.00D+00
 Coeff-Com: -0.605D-06 0.111D-05 0.405D-04-0.394D-04 0.443D-03 0.987D-03
 Coeff-Com: -0.358D-02-0.782D-03 0.459D-02 0.472D-02-0.827D-02-0.221D-02
 Coeff-Com:  0.727D-02 0.201D-03 0.162D-01-0.857D-01-0.795D-01 0.125D+00
 Coeff-Com:  0.102D+01
 Coeff:     -0.605D-06 0.111D-05 0.405D-04-0.394D-04 0.443D-03 0.987D-03
 Coeff:     -0.358D-02-0.782D-03 0.459D-02 0.472D-02-0.827D-02-0.221D-02
 Coeff:      0.727D-02 0.201D-03 0.162D-01-0.857D-01-0.795D-01 0.125D+00
 Coeff:      0.102D+01
 Gap=     0.035 Goal=   None    Shift=    0.000
 Gap=     0.038 Goal=   None    Shift=    0.000
 RMSDP=6.96D-07 MaxDP=3.34D-05 DE=-9.88D-09 OVMax= 2.33D-05

 Cycle  20  Pass 1  IDiag  1:
 E= -1136.11186787672     Delta-E=       -0.000000000085 Rises=F Damp=F
 DIIS: error= 9.58D-08 at cycle  20 NSaved=  20.
 NSaved=20 IEnMin=20 EnMin= -1136.11186787672     IErMin=20 ErrMin= 9.58D-08
 ErrMax= 9.58D-08  0.00D+00 EMaxC= 1.00D-01 BMatC= 5.42D-12 BMatP= 2.09D-11
 IDIUse=1 WtCom= 1.00D+00 WtEn= 0.00D+00
 Coeff-Com: -0.435D-05 0.572D-05 0.334D-04-0.287D-05 0.162D-03 0.562D-03
 Coeff-Com: -0.158D-02-0.135D-02 0.103D-02 0.530D-02-0.331D-02-0.225D-02
 Coeff-Com: -0.586D-03 0.272D-02 0.937D-02 0.464D-02-0.796D-01-0.383D-01
 Coeff-Com:  0.224D+00 0.879D+00
 Coeff:     -0.435D-05 0.572D-05 0.334D-04-0.287D-05 0.162D-03 0.562D-03
 Coeff:     -0.158D-02-0.135D-02 0.103D-02 0.530D-02-0.331D-02-0.225D-02
 Coeff:     -0.586D-03 0.272D-02 0.937D-02 0.464D-02-0.796D-01-0.383D-01
 Coeff:      0.224D+00 0.879D+00
 Gap=     0.035 Goal=   None    Shift=    0.000
 Gap=     0.038 Goal=   None    Shift=    0.000
 RMSDP=9.09D-07 MaxDP=5.32D-05 DE=-8.50D-11 OVMax= 8.99D-05

 Cycle  21  Pass 1  IDiag  1:
 E= -1136.11186787677     Delta-E=       -0.000000000046 Rises=F Damp=F
 DIIS: error= 2.52D-08 at cycle  21 NSaved=  20.
 NSaved=20 IEnMin=20 EnMin= -1136.11186787677     IErMin=20 ErrMin= 2.52D-08
 ErrMax= 2.52D-08  0.00D+00 EMaxC= 1.00D-01 BMatC= 5.66D-13 BMatP= 5.42D-12
 IDIUse=1 WtCom= 1.00D+00 WtEn= 0.00D+00
 Coeff-Com: -0.617D-07-0.106D-05 0.826D-05-0.635D-04-0.123D-03 0.249D-03
 Coeff-Com:  0.160D-03-0.154D-05-0.101D-02 0.646D-03 0.104D-02-0.113D-02
 Coeff-Com: -0.439D-03-0.409D-03 0.161D-01-0.397D-02-0.344D-01-0.109D+00
 Coeff-Com:  0.181D+00 0.951D+00
 Coeff:     -0.617D-07-0.106D-05 0.826D-05-0.635D-04-0.123D-03 0.249D-03
 Coeff:      0.160D-03-0.154D-05-0.101D-02 0.646D-03 0.104D-02-0.113D-02
 Coeff:     -0.439D-03-0.409D-03 0.161D-01-0.397D-02-0.344D-01-0.109D+00
 Coeff:      0.181D+00 0.951D+00
 Gap=     0.035 Goal=   None    Shift=    0.000
 Gap=     0.038 Goal=   None    Shift=    0.000
 RMSDP=2.06D-07 MaxDP=1.18D-05 DE=-4.59D-11 OVMax= 2.37D-05

 Cycle  22  Pass 1  IDiag  1:
 E= -1136.11186787677     Delta-E=       -0.000000000007 Rises=F Damp=F
 DIIS: error= 1.41D-08 at cycle  22 NSaved=  20.
 NSaved=20 IEnMin=20 EnMin= -1136.11186787677     IErMin=20 ErrMin= 1.41D-08
 ErrMax= 1.41D-08  0.00D+00 EMaxC= 1.00D-01 BMatC= 8.47D-14 BMatP= 5.66D-13
 IDIUse=1 WtCom= 1.00D+00 WtEn= 0.00D+00
 Coeff-Com: -0.286D-05-0.330D-05 0.575D-05-0.284D-04 0.207D-03 0.442D-04
 Coeff-Com: -0.388D-03-0.290D-03 0.869D-03-0.431D-03 0.420D-03-0.557D-03
 Coeff-Com: -0.822D-03-0.360D-02 0.143D-01 0.121D-01-0.309D-01-0.176D+00
 Coeff-Com: -0.189D+00 0.137D+01
 Coeff:     -0.286D-05-0.330D-05 0.575D-05-0.284D-04 0.207D-03 0.442D-04
 Coeff:     -0.388D-03-0.290D-03 0.869D-03-0.431D-03 0.420D-03-0.557D-03
 Coeff:     -0.822D-03-0.360D-02 0.143D-01 0.121D-01-0.309D-01-0.176D+00
 Coeff:     -0.189D+00 0.137D+01
 Gap=     0.035 Goal=   None    Shift=    0.000
 Gap=     0.038 Goal=   None    Shift=    0.000
 RMSDP=8.64D-08 MaxDP=4.65D-06 DE=-7.28D-12 OVMax= 1.04D-05

 Cycle  23  Pass 1  IDiag  1:
 E= -1136.11186787676     Delta-E=        0.000000000010 Rises=F Damp=F
 DIIS: error= 1.04D-08 at cycle  23 NSaved=  20.
 NSaved=20 IEnMin=19 EnMin= -1136.11186787677     IErMin=20 ErrMin= 1.04D-08
 ErrMax= 1.04D-08  0.00D+00 EMaxC= 1.00D-01 BMatC= 4.84D-14 BMatP= 8.47D-14
 IDIUse=1 WtCom= 1.00D+00 WtEn= 0.00D+00
 Coeff-Com: -0.994D-06-0.598D-05 0.120D-05 0.111D-04 0.265D-04-0.291D-05
 Coeff-Com:  0.648D-04-0.645D-04-0.265D-03 0.171D-03 0.293D-03-0.443D-03
 Coeff-Com: -0.260D-02 0.224D-03 0.101D-01 0.144D-01-0.232D-01-0.192D+00
 Coeff-Com: -0.579D-01 0.125D+01
 Coeff:     -0.994D-06-0.598D-05 0.120D-05 0.111D-04 0.265D-04-0.291D-05
 Coeff:      0.648D-04-0.645D-04-0.265D-03 0.171D-03 0.293D-03-0.443D-03
 Coeff:     -0.260D-02 0.224D-03 0.101D-01 0.144D-01-0.232D-01-0.192D+00
 Coeff:     -0.579D-01 0.125D+01
 Gap=     0.035 Goal=   None    Shift=    0.000
 Gap=     0.038 Goal=   None    Shift=    0.000
 RMSDP=7.70D-08 MaxDP=3.94D-06 DE= 1.00D-11 OVMax= 7.80D-06

 Cycle  24  Pass 1  IDiag  1:
 E= -1136.11186787676     Delta-E=        0.000000000005 Rises=F Damp=F
 DIIS: error= 2.59D-09 at cycle  24 NSaved=  20.
 NSaved=20 IEnMin=18 EnMin= -1136.11186787677     IErMin=20 ErrMin= 2.59D-09
 ErrMax= 2.59D-09  0.00D+00 EMaxC= 1.00D-01 BMatC= 5.80D-15 BMatP= 4.84D-14
 IDIUse=1 WtCom= 1.00D+00 WtEn= 0.00D+00
 Large coefficients: NSaved= 20 BigCof=    0.00 CofMax=   10.00 Det=-7.97D-15
 Inversion failed.  Reducing to 19 matrices.
 Large coefficients: NSaved= 19 BigCof=    0.00 CofMax=   10.00 Det=-8.09D-15
 Inversion failed.  Reducing to 18 matrices.
 Large coefficients: NSaved= 18 BigCof=    0.00 CofMax=   10.00 Det=-8.47D-15
 Inversion failed.  Reducing to 17 matrices.
 Large coefficients: NSaved= 17 BigCof=    0.00 CofMax=   10.00 Det=-8.55D-15
 Inversion failed.  Reducing to 16 matrices.
 Large coefficients: NSaved= 16 BigCof=    0.00 CofMax=   10.00 Det=-8.59D-15
 Inversion failed.  Reducing to 15 matrices.
 Coeff-Com: -0.555D-05-0.188D-04 0.123D-03-0.127D-03 0.388D-04 0.200D-04
 Coeff-Com: -0.244D-03-0.791D-03 0.948D-03 0.503D-02 0.879D-02-0.192D-01
 Coeff-Com: -0.213D+00 0.306D+00 0.913D+00
 Coeff:     -0.555D-05-0.188D-04 0.123D-03-0.127D-03 0.388D-04 0.200D-04
 Coeff:     -0.244D-03-0.791D-03 0.948D-03 0.503D-02 0.879D-02-0.192D-01
 Coeff:     -0.213D+00 0.306D+00 0.913D+00
 Gap=     0.035 Goal=   None    Shift=    0.000
 Gap=     0.038 Goal=   None    Shift=    0.000
 RMSDP=2.17D-08 MaxDP=1.06D-06 DE= 5.00D-12 OVMax= 2.26D-06

 Cycle  25  Pass 1  IDiag  1:
 E= -1136.11186787677     Delta-E=       -0.000000000009 Rises=F Damp=F
 DIIS: error= 1.24D-09 at cycle  25 NSaved=  16.
 NSaved=16 IEnMin=13 EnMin= -1136.11186787677     IErMin=16 ErrMin= 1.24D-09
 ErrMax= 1.24D-09  0.00D+00 EMaxC= 1.00D-01 BMatC= 9.90D-16 BMatP= 5.80D-15
 IDIUse=1 WtCom= 1.00D+00 WtEn= 0.00D+00
 Large coefficients: NSaved= 16 BigCof=    0.00 CofMax=   10.00 Det=-3.21D-15
 Inversion failed.  Reducing to 15 matrices.
 Coeff-Com: -0.828D-05 0.407D-04-0.442D-04-0.179D-06 0.714D-04 0.269D-03
 Coeff-Com: -0.590D-03-0.122D-02 0.508D-03 0.124D-01 0.276D-01-0.779D-01
 Coeff-Com: -0.117D+00 0.228D+00 0.928D+00
 Coeff:     -0.828D-05 0.407D-04-0.442D-04-0.179D-06 0.714D-04 0.269D-03
 Coeff:     -0.590D-03-0.122D-02 0.508D-03 0.124D-01 0.276D-01-0.779D-01
 Coeff:     -0.117D+00 0.228D+00 0.928D+00
 Gap=     0.035 Goal=   None    Shift=    0.000
 Gap=     0.038 Goal=   None    Shift=    0.000
 RMSDP=4.87D-09 MaxDP=2.30D-07 DE=-9.09D-12 OVMax= 3.76D-07

 SCF Done:  E(UB3LYP) =  -1136.11186788     A.U. after   25 cycles
            NFock= 25  Conv=0.49D-08     -V/T= 2.0029
 <Sx>= 0.0000 <Sy>= 0.0000 <Sz>= 0.5000 <S**2>= 0.8614 S= 0.5543
 <L.S>= 0.000000000000E+00
 KE= 1.132860817869D+03 PE=-3.293483357816D+03 EE= 7.422396750461D+02
 Annihilation of the first spin contaminant:
 S**2 before annihilation     0.8614,   after     0.7550
 Leave Link  502 at Tue Nov 28 19:06:50 2023, MaxMem=  1879048192 cpu:             210.5 elap:              19.4
 (Enter /home/sekinelabo/g16/l601.exe)
 Copying SCF densities to generalized density rwf, IOpCl= 1 IROHF=0.

 **********************************************************************

            Population analysis using the SCF Density.

 **********************************************************************

 Orbital symmetries:
 Alpha Orbitals:
       Occupied  (A) (A) (A) (A) (A) (A) (A) (A) (A) (A) (A) (A)
                 (A) (A) (A) (A) (A) (A) (A) (A) (A) (A) (A) (A)
                 (A) (A) (A) (A) (A) (A) (A) (A) (A) (A) (A) (A)
                 (A) (A) (A)
       Virtual   (A) (A) (A) (A) (A) (A) (A) (A) (A) (A) (A) (A)
                 (A) (A) (A) (A) (A) (A) (A) (A) (A) (A) (A) (A)
                 (A) (A) (A) (A) (A) (A) (A) (A) (A) (A) (A) (A)
                 (A) (A) (A) (A) (A) (A) (A) (A) (A) (A) (A) (A)
                 (A) (A) (A) (A) (A) (A) (A) (A) (A) (A) (A) (A)
                 (A) (A) (A) (A) (A) (A) (A) (A) (A) (A) (A) (A)
                 (A) (A) (A) (A) (A) (A) (A) (A) (A) (A) (A) (A)
                 (A) (A) (A) (A) (A) (A) (A) (A) (A) (A) (A) (A)
                 (A) (A) (A) (A) (A) (A) (A) (A) (A) (A) (A) (A)
                 (A) (A) (A) (A) (A) (A) (A) (A) (A) (A) (A) (A)
                 (A) (A) (A) (A) (A) (A) (A) (A) (A) (A) (A) (A)
                 (A) (A) (A) (A) (A) (A) (A) (A) (A) (A) (A) (A)
                 (A) (A) (A) (A) (A) (A) (A) (A) (A) (A) (A) (A)
                 (A) (A) (A) (A) (A) (A) (A) (A) (A) (A) (A) (A)
                 (A) (A) (A)
 Beta  Orbitals:
       Occupied  (A) (A) (A) (A) (A) (A) (A) (A) (A) (A) (A) (A)
                 (A) (A) (A) (A) (A) (A) (A) (A) (A) (A) (A) (A)
                 (A) (A) (A) (A) (A) (A) (A) (A) (A) (A) (A) (A)
                 (A) (A)
       Virtual   (A) (A) (A) (A) (A) (A) (A) (A) (A) (A) (A) (A)
                 (A) (A) (A) (A) (A) (A) (A) (A) (A) (A) (A) (A)
                 (A) (A) (A) (A) (A) (A) (A) (A) (A) (A) (A) (A)
                 (A) (A) (A) (A) (A) (A) (A) (A) (A) (A) (A) (A)
                 (A) (A) (A) (A) (A) (A) (A) (A) (A) (A) (A) (A)
                 (A) (A) (A) (A) (A) (A) (A) (A) (A) (A) (A) (A)
                 (A) (A) (A) (A) (A) (A) (A) (A) (A) (A) (A) (A)
                 (A) (A) (A) (A) (A) (A) (A) (A) (A) (A) (A) (A)
                 (A) (A) (A) (A) (A) (A) (A) (A) (A) (A) (A) (A)
                 (A) (A) (A) (A) (A) (A) (A) (A) (A) (A) (A) (A)
                 (A) (A) (A) (A) (A) (A) (A) (A) (A) (A) (A) (A)
                 (A) (A) (A) (A) (A) (A) (A) (A) (A) (A) (A) (A)
                 (A) (A) (A) (A) (A) (A) (A) (A) (A) (A) (A) (A)
                 (A) (A) (A) (A) (A) (A) (A) (A) (A) (A) (A) (A)
                 (A) (A) (A) (A)
 The electronic state is 2-A.
 Alpha  occ. eigenvalues --  -38.44971 -38.44423 -38.44385 -38.44368 -38.44296
 Alpha  occ. eigenvalues --  -38.44202 -38.44118  -2.20810  -2.20263  -2.20236
 Alpha  occ. eigenvalues --   -2.20213  -2.20122  -2.19989  -2.19869  -1.14510
 Alpha  occ. eigenvalues --   -1.14471  -1.14414  -1.13962  -1.13951  -1.13939
 Alpha  occ. eigenvalues --   -1.13925  -1.13894  -1.13888  -1.13877  -1.13843
 Alpha  occ. eigenvalues --   -1.13816  -1.13781  -1.13757  -1.13731  -1.13683
 Alpha  occ. eigenvalues --   -1.13660  -1.13618  -1.13529  -1.13528  -1.13479
 Alpha  occ. eigenvalues --   -0.17112  -0.14495  -0.11603  -0.11003
 Alpha virt. eigenvalues --   -0.07453  -0.05613  -0.04140  -0.03953  -0.03001
 Alpha virt. eigenvalues --   -0.02833  -0.02006  -0.01459  -0.01306  -0.00726
 Alpha virt. eigenvalues --   -0.00212  -0.00131   0.00094   0.00316   0.00452
 Alpha virt. eigenvalues --    0.00703   0.00882   0.00971   0.01118   0.01209
 Alpha virt. eigenvalues --    0.01306   0.01488   0.01597   0.01653   0.01816
 Alpha virt. eigenvalues --    0.01915   0.02156   0.02261   0.02324   0.02390
 Alpha virt. eigenvalues --    0.02446   0.02572   0.02650   0.02750   0.02956
 Alpha virt. eigenvalues --    0.03059   0.03176   0.03240   0.03350   0.03550
 Alpha virt. eigenvalues --    0.03659   0.03728   0.03870   0.03922   0.04137
 Alpha virt. eigenvalues --    0.04397   0.04544   0.05019   0.05352   0.05619
 Alpha virt. eigenvalues --    0.06090   0.06322   0.06457   0.06948   0.07318
 Alpha virt. eigenvalues --    0.07528   0.07898   0.08107   0.08227   0.08403
 Alpha virt. eigenvalues --    0.08671   0.08760   0.08952   0.09498   0.09839
 Alpha virt. eigenvalues --    0.10256   0.10657   0.11086   0.11677   0.11910
 Alpha virt. eigenvalues --    0.12384   0.12406   0.13206   0.13515   0.13879
 Alpha virt. eigenvalues --    0.14227   0.14439   0.15247   0.16131   0.17352
 Alpha virt. eigenvalues --    0.25308   0.26734   0.28765   0.29060   0.29113
 Alpha virt. eigenvalues --    0.29719   0.31218   0.31313   0.31687   0.32507
 Alpha virt. eigenvalues --    0.32576   0.33077   0.33763   0.35848   0.36194
 Alpha virt. eigenvalues --    0.36756   0.36917   0.37824   0.38599   0.40664
 Alpha virt. eigenvalues --    0.41164   0.42698   0.43108   0.43268   0.43526
 Alpha virt. eigenvalues --    0.43584   0.43863   0.44081   0.44159   0.44553
 Alpha virt. eigenvalues --    0.44754   0.45007   0.45368   0.45550   0.45923
 Alpha virt. eigenvalues --    0.46087   0.46573   0.47128   0.47839   0.48051
 Alpha virt. eigenvalues --    0.48420   0.49190   0.49251   0.50189   0.50495
 Alpha virt. eigenvalues --    0.51316   0.52439   0.53458   0.54290   0.55768
 Alpha virt. eigenvalues --    0.56987   0.59575   0.61487   0.63260   0.64674
 Alpha virt. eigenvalues --    0.69601   2.02119   2.07141   2.09727   2.12669
 Alpha virt. eigenvalues --    2.15186   2.17772   2.20920   4.41656   4.42669
 Alpha virt. eigenvalues --    4.43443   4.44020   4.44336   4.44658   4.44956
 Alpha virt. eigenvalues --    4.45025   4.45265   4.45597   4.46045   4.46261
 Alpha virt. eigenvalues --    4.46831   4.47404   4.47899   4.49715   4.51909
 Alpha virt. eigenvalues --    4.53933   4.57399   4.58258   4.60780  96.21307
 Alpha virt. eigenvalues --   96.27456  96.30674  96.34048  96.37077  96.40425
 Alpha virt. eigenvalues --   96.44626
  Beta  occ. eigenvalues --  -38.44925 -38.44387 -38.44361 -38.44359 -38.44256
  Beta  occ. eigenvalues --  -38.44220 -38.44069  -2.20726  -2.20200  -2.20195
  Beta  occ. eigenvalues --   -2.20193  -2.20048  -2.20025  -2.19777  -1.14456
  Beta  occ. eigenvalues --   -1.14427  -1.14331  -1.13923  -1.13911  -1.13896
  Beta  occ. eigenvalues --   -1.13888  -1.13875  -1.13861  -1.13858  -1.13837
  Beta  occ. eigenvalues --   -1.13772  -1.13732  -1.13708  -1.13698  -1.13686
  Beta  occ. eigenvalues --   -1.13684  -1.13625  -1.13466  -1.13465  -1.13420
  Beta  occ. eigenvalues --   -0.16705  -0.14262  -0.11266
  Beta virt. eigenvalues --   -0.07435  -0.07075  -0.05140  -0.03910  -0.03773
  Beta virt. eigenvalues --   -0.02716  -0.02416  -0.01729  -0.01221  -0.00950
  Beta virt. eigenvalues --   -0.00521  -0.00029   0.00053   0.00167   0.00516
  Beta virt. eigenvalues --    0.00558   0.00761   0.00953   0.01036   0.01201
  Beta virt. eigenvalues --    0.01319   0.01322   0.01533   0.01665   0.01745
  Beta virt. eigenvalues --    0.01866   0.02054   0.02192   0.02335   0.02414
  Beta virt. eigenvalues --    0.02439   0.02563   0.02663   0.02690   0.02808
  Beta virt. eigenvalues --    0.03005   0.03115   0.03283   0.03367   0.03422
  Beta virt. eigenvalues --    0.03587   0.03742   0.03827   0.03967   0.03993
  Beta virt. eigenvalues --    0.04229   0.04500   0.04642   0.05086   0.05435
  Beta virt. eigenvalues --    0.05661   0.06149   0.06416   0.06583   0.06979
  Beta virt. eigenvalues --    0.07324   0.07591   0.07955   0.08128   0.08299
  Beta virt. eigenvalues --    0.08537   0.08873   0.09113   0.09355   0.09571
  Beta virt. eigenvalues --    0.10012   0.10400   0.10874   0.11299   0.11780
  Beta virt. eigenvalues --    0.12241   0.12495   0.12552   0.13472   0.13656
  Beta virt. eigenvalues --    0.14076   0.14287   0.14595   0.15437   0.16216
  Beta virt. eigenvalues --    0.17594   0.25565   0.27126   0.28973   0.29220
  Beta virt. eigenvalues --    0.29445   0.29887   0.31341   0.31454   0.31843
  Beta virt. eigenvalues --    0.32637   0.32922   0.33237   0.33889   0.36322
  Beta virt. eigenvalues --    0.36614   0.37078   0.37312   0.38166   0.38881
  Beta virt. eigenvalues --    0.40842   0.41236   0.42959   0.43307   0.43427
  Beta virt. eigenvalues --    0.43674   0.43742   0.44001   0.44242   0.44268
  Beta virt. eigenvalues --    0.44669   0.44865   0.45149   0.45540   0.45661
  Beta virt. eigenvalues --    0.46103   0.46227   0.46647   0.47236   0.48008
  Beta virt. eigenvalues --    0.48225   0.48565   0.49291   0.49384   0.50322
  Beta virt. eigenvalues --    0.50628   0.51414   0.52604   0.53528   0.54504
  Beta virt. eigenvalues --    0.55968   0.57129   0.59768   0.61778   0.63262
  Beta virt. eigenvalues --    0.64802   0.69801   2.02209   2.07319   2.09819
  Beta virt. eigenvalues --    2.12805   2.15277   2.17818   2.21064   4.41683
  Beta virt. eigenvalues --    4.42682   4.43493   4.44062   4.44371   4.44721
  Beta virt. eigenvalues --    4.45023   4.45074   4.45296   4.45612   4.46085
  Beta virt. eigenvalues --    4.46312   4.46866   4.47477   4.47888   4.49760
  Beta virt. eigenvalues --    4.51981   4.53957   4.57468   4.58288   4.60796
  Beta virt. eigenvalues --   96.21340  96.27518  96.30706  96.34090  96.37109
  Beta virt. eigenvalues --   96.40436  96.44673
          Condensed to atoms (all electrons):
               1          2          3          4          5          6
     1  Na  11.025786  -0.005369  -0.128430  -0.065428  -0.062528  -0.048636
     2  Na  -0.005369  10.693594  -0.005294  -0.037544   0.045432  -0.294824
     3  Na  -0.128430  -0.005294  10.803839   0.142942   0.101092   0.033048
     4  Na  -0.065428  -0.037544   0.142942  10.890461  -0.053134   0.334378
     5  Na  -0.062528   0.045432   0.101092  -0.053134  10.893974  -0.135369
     6  Na  -0.048636  -0.294824   0.033048   0.334378  -0.135369  12.541092
     7  Na   0.216493  -0.135586  -0.300398  -0.271929   0.090789   0.028102
               7
     1  Na   0.216493
     2  Na  -0.135586
     3  Na  -0.300398
     4  Na  -0.271929
     5  Na   0.090789
     6  Na   0.028102
     7  Na  11.255635
          Atomic-Atomic Spin Densities.
               1          2          3          4          5          6
     1  Na   0.356890   0.013551   0.062821   0.058774  -0.001431  -0.247957
     2  Na   0.013551   0.020376  -0.038074   0.026352  -0.033547   0.073542
     3  Na   0.062821  -0.038074   0.065922   0.012209   0.000836  -0.052578
     4  Na   0.058774   0.026352   0.012209  -0.020649   0.009029   0.015435
     5  Na  -0.001431  -0.033547   0.000836   0.009029   0.274625  -0.033297
     6  Na  -0.247957   0.073542  -0.052578   0.015435  -0.033297   0.720893
     7  Na  -0.004417   0.021371  -0.101881  -0.063576   0.026331  -0.020248
               7
     1  Na  -0.004417
     2  Na   0.021371
     3  Na  -0.101881
     4  Na  -0.063576
     5  Na   0.026331
     6  Na  -0.020248
     7  Na   0.135456
 Mulliken charges and spin densities:
               1          2
     1  Na   0.068111   0.238230
     2  Na   0.739589   0.083571
     3  Na   0.353200  -0.050744
     4  Na   0.060252   0.037573
     5  Na   0.119745   0.242545
     6  Na  -1.457791   0.455789
     7  Na   0.116894  -0.006964
 Sum of Mulliken charges =  -0.00000   1.00000
 Mulliken charges and spin densities with hydrogens summed into heavy atoms:
               1          2
     1  Na   0.068111   0.238230
     2  Na   0.739589   0.083571
     3  Na   0.353200  -0.050744
     4  Na   0.060252   0.037573
     5  Na   0.119745   0.242545
     6  Na  -1.457791   0.455789
     7  Na   0.116894  -0.006964
 Electronic spatial extent (au):  <R**2>=           4087.1079
 Charge=             -0.0000 electrons
 Dipole moment (field-independent basis, Debye):
    X=              1.0199    Y=              0.6868    Z=              0.0774  Tot=              1.2320
 Quadrupole moment (field-independent basis, Debye-Ang):
   XX=            -68.6315   YY=            -62.7418   ZZ=            -71.3092
   XY=             -7.9607   XZ=             -0.7762   YZ=              2.7698
 Traceless Quadrupole moment (field-independent basis, Debye-Ang):
   XX=             -1.0707   YY=              4.8190   ZZ=             -3.7484
   XY=             -7.9607   XZ=             -0.7762   YZ=              2.7698
 Octapole moment (field-independent basis, Debye-Ang**2):
  XXX=             88.0298  YYY=             19.6962  ZZZ=              3.6347  XYY=            -26.9316
  XXY=             -6.2461  XXZ=             -3.5086  XZZ=              7.2536  YZZ=             -2.7676
  YYZ=             -3.6751  XYZ=            -14.8829
 Hexadecapole moment (field-independent basis, Debye-Ang**3):
 XXXX=          -4730.0476 YYYY=          -1421.8622 ZZZZ=           -749.8142 XXXY=           -175.2293
 XXXZ=            -51.8440 YYYX=            -50.5340 YYYZ=             42.1354 ZZZX=              1.8930
 ZZZY=             22.7410 XXYY=           -926.1681 XXZZ=           -881.4275 YYZZ=           -373.2372
 XXYZ=             73.4151 YYXZ=             45.1728 ZZXY=            -33.0995
 N-N= 2.822709970246D+02 E-N=-3.293483357615D+03  KE= 1.132860817869D+03
                          Isotropic Fermi Contact Couplings
        Atom                 a.u.       MegaHertz       Gauss      10(-4) cm-1
     1  Na(23)             0.12739     150.70909      53.77675      50.27114
     2  Na(23)             0.05543      65.57411      23.39847      21.87317
     3  Na(23)            -0.10681    -126.35533     -45.08672     -42.14760
     4  Na(23)             0.07786      92.11423      32.86865      30.72600
     5  Na(23)             0.21490     254.23279      90.71658      84.80293
     6  Na(23)             0.17256     204.14841      72.84523      68.09658
     7  Na(23)             0.15963     188.85129      67.38684      62.99401
 --------------------------------------------------------
       Center         ----  Spin Dipole Couplings  ----
                      3XX-RR        3YY-RR        3ZZ-RR
 --------------------------------------------------------
     1   Atom        0.006260     -0.008666      0.002406
     2   Atom       -0.018183      0.007572      0.010611
     3   Atom       -0.000018      0.006909     -0.006891
     4   Atom       -0.005206      0.012218     -0.007012
     5   Atom        0.002028     -0.002275      0.000247
     6   Atom       -0.000265      0.001749     -0.001485
     7   Atom        0.013549     -0.005349     -0.008200
 --------------------------------------------------------
                        XY            XZ            YZ
 --------------------------------------------------------
     1   Atom        0.001876     -0.014168     -0.002832
     2   Atom        0.001482      0.002916     -0.004747
     3   Atom        0.010454      0.005984      0.006304
     4   Atom       -0.010617      0.006731     -0.011585
     5   Atom       -0.001208     -0.000353     -0.002369
     6   Atom       -0.025191      0.014825     -0.005684
     7   Atom       -0.001278     -0.003789      0.001280
 --------------------------------------------------------


 ---------------------------------------------------------------------------------
              Anisotropic Spin Dipole Couplings in Principal Axis System
 ---------------------------------------------------------------------------------

       Atom             a.u.   MegaHertz   Gauss  10(-4) cm-1        Axes

              Baa    -0.0105    -1.485    -0.530    -0.495  0.5169  0.5190  0.6807
     1 Na(23) Bbb    -0.0085    -1.201    -0.429    -0.401 -0.4205  0.8466 -0.3262
              Bcc     0.0190     2.686     0.958     0.896  0.7456  0.1176 -0.6559
 
              Baa    -0.0186    -2.630    -0.938    -0.877  0.9909 -0.0762 -0.1112
     2 Na(23) Bbb     0.0045     0.632     0.226     0.211  0.1264  0.8126  0.5689
              Bcc     0.0141     1.998     0.713     0.666  0.0470 -0.5778  0.8148
 
              Baa    -0.0104    -1.463    -0.522    -0.488 -0.4748 -0.0336  0.8795
     3 Na(23) Bbb    -0.0071    -1.009    -0.360    -0.337  0.6753 -0.6547  0.3395
              Bcc     0.0175     2.472     0.882     0.825  0.5644  0.7551  0.3335
 
              Baa    -0.0133    -1.874    -0.669    -0.625 -0.4534  0.2054  0.8673
     4 Na(23) Bbb    -0.0099    -1.396    -0.498    -0.466  0.7949  0.5334  0.2892
              Bcc     0.0232     3.270     1.167     1.091 -0.4033  0.8205 -0.4051
 
              Baa    -0.0039    -0.557    -0.199    -0.186  0.2002  0.8457  0.4947
     5 Na(23) Bbb     0.0015     0.217     0.078     0.072 -0.3800 -0.3984  0.8348
              Bcc     0.0024     0.340     0.121     0.113  0.9031 -0.3551  0.2416
 
              Baa    -0.0266    -3.759    -1.341    -1.254  0.7420  0.5983 -0.3023
     6 Na(23) Bbb    -0.0056    -0.792    -0.283    -0.264 -0.0496  0.4987  0.8653
              Bcc     0.0322     4.551     1.624     1.518  0.6686 -0.6271  0.3997
 
              Baa    -0.0091    -1.290    -0.460    -0.430  0.1435 -0.2730  0.9513
     7 Na(23) Bbb    -0.0052    -0.729    -0.260    -0.243  0.1177  0.9591  0.2575
              Bcc     0.0143     2.019     0.721     0.674  0.9826 -0.0750 -0.1698
 

 ---------------------------------------------------------------------------------

 No NMR shielding tensors so no spin-rotation constants.
 Leave Link  601 at Tue Nov 28 19:06:51 2023, MaxMem=  1879048192 cpu:               2.0 elap:               0.1
 (Enter /home/sekinelabo/g16/l701.exe)
 ... and contract with generalized density number  0.
 Compute integral first derivatives.
 Leave Link  701 at Tue Nov 28 19:06:51 2023, MaxMem=  1879048192 cpu:               1.5 elap:               0.1
 (Enter /home/sekinelabo/g16/l702.exe)
 L702 exits ... SP integral derivatives will be done elsewhere.
 Leave Link  702 at Tue Nov 28 19:06:51 2023, MaxMem=  1879048192 cpu:               0.4 elap:               0.0
 (Enter /home/sekinelabo/g16/l703.exe)
 Integral derivatives from FoFJK, PRISM(SPDF).
 Compute integral first derivatives, UseDBF=F ICtDFT=           0.
 Calling FoFJK, ICntrl=      2127 FMM=F ISym2X=0 I1Cent= 0 IOpClX= 1 NMat=1 NMatS=1 NMatT=0.
 FoFJK:  IHMeth= 1 ICntrl=    2127 DoSepK=F KAlg= 0 I1Cent=           0 FoldK=F
 IRaf=         0 NMat=       1 IRICut=       1 DoRegI=T DoRafI=F ISym2E= 0 IDoP0=0 IntGTp=1.
 FoFCou: FMM=F IPFlag=           0 FMFlag=      100000 FMFlg1=         800
         NFxFlg=           0 DoJE=F BraDBF=F KetDBF=F FulRan=T
         wScrn=  0.000000 ICntrl=      2127 IOpCl=  1 I1Cent=           0 NGrid=           0
         NMat0=    1 NMatS0=      1 NMatT0=    0 NMatD0=    1 NMtDS0=    0 NMtDT0=    0
 Symmetry not used in FoFCou.
 Leave Link  703 at Tue Nov 28 19:06:53 2023, MaxMem=  1879048192 cpu:              28.6 elap:               1.9
 (Enter /home/sekinelabo/g16/l716.exe)
 Dipole        = 4.01273946D-01 2.70203446D-01 3.04563338D-02
 ***** Axes restored to original set *****
 -------------------------------------------------------------------
 Center     Atomic                   Forces (Hartrees/Bohr)
 Number     Number              X              Y              Z
 -------------------------------------------------------------------
      1       11          -0.001800883    0.000182898    0.001574522
      2       11          -0.001769634    0.003020750   -0.003768420
      3       11           0.006126753   -0.005075613   -0.001998248
      4       11          -0.002095899   -0.000445213   -0.002689020
      5       11          -0.003181736    0.003458522    0.002452166
      6       11           0.001772984    0.000282054    0.000283194
      7       11           0.000948415   -0.001423397    0.004145806
 -------------------------------------------------------------------
 Cartesian Forces:  Max     0.006126753 RMS     0.002784664
 Z-matrix is all fixed cartesians, so copy forces.
 Force constants in Cartesian coordinates: 
                1             2             3             4             5 
      1  0.689811D-01
      2  0.116288D-01  0.270919D-01
      3  0.365271D-02 -0.115696D-01  0.545990D-01
      4 -0.162227D-01  0.368814D-02 -0.864050D-02  0.640756D-01
      5 -0.201508D-02 -0.810863D-02  0.150554D-02 -0.135597D-01  0.308324D-01
      6  0.119426D-01  0.136542D-03 -0.175830D-01 -0.990598D-02 -0.121178D-01
      7  0.505573D-02  0.175484D-02 -0.216948D-02 -0.213526D-01  0.179787D-01
      8  0.499607D-04  0.171480D-02  0.230185D-03  0.488601D-02 -0.143017D-01
      9 -0.269629D-02  0.599670D-02 -0.426017D-03  0.103640D-01  0.554293D-04
     10 -0.246532D-01 -0.758463D-02  0.611252D-02  0.416170D-02  0.757342D-03
     11 -0.361244D-02 -0.814224D-02  0.595684D-02  0.406355D-03  0.201035D-02
     12 -0.814419D-02  0.159517D-02 -0.237644D-01  0.327666D-02  0.154950D-02
     13 -0.470787D-04 -0.119573D-04  0.568839D-05 -0.261958D-03  0.685983D-03
     14 -0.362733D-04 -0.248482D-04 -0.628917D-05  0.620988D-03 -0.297161D-03
     15 -0.156733D-04  0.224197D-04  0.199136D-04 -0.147657D-02  0.162259D-02
     16 -0.272954D-01 -0.564427D-02  0.139028D-02 -0.324044D-01 -0.495896D-03
     17 -0.360192D-02 -0.134491D-01  0.489472D-02  0.465226D-02 -0.127104D-01
     18 -0.635610D-02  0.399814D-02 -0.178323D-01  0.573179D-02  0.728949D-02
     19 -0.581856D-02 -0.383092D-02 -0.351214D-03  0.200424D-02 -0.335141D-02
     20 -0.241305D-02  0.918056D-03 -0.101137D-02 -0.694103D-03  0.257516D-02
     21  0.161696D-02 -0.179350D-03  0.498688D-02  0.650631D-03  0.952278D-04
                6             7             8             9            10 
      6  0.467473D-01
      7 -0.561183D-02  0.387051D-01
      8  0.929760D-02 -0.136524D-01  0.319780D-01
      9 -0.218326D-01 -0.739899D-02 -0.845272D-02  0.511099D-01
     10  0.982672D-03 -0.326719D-04 -0.164593D-04 -0.683699D-04  0.337002D-01
     11  0.658578D-03  0.000000D+00  0.575622D-05  0.112800D-03  0.958523D-02
     12  0.103766D-02  0.183263D-04  0.218018D-04  0.580615D-04  0.929480D-02
     13  0.160269D-02 -0.770413D-02  0.544836D-02  0.207473D-02  0.000000D+00
     14 -0.150679D-02  0.249628D-02 -0.679274D-02  0.289692D-02  0.000000D+00
     15  0.516287D-02  0.662093D-02 -0.383514D-02 -0.158378D-01  0.000000D+00
     16 -0.242114D-02 -0.183203D-01  0.446589D-02 -0.243808D-02  0.589354D-02
     17  0.409217D-02 -0.647753D-02 -0.156148D-01 -0.311283D-02  0.233408D-02
     18 -0.151845D-01  0.802137D-02  0.984166D-03 -0.152370D-01 -0.141785D-02
     19  0.341103D-02  0.364890D-02 -0.118137D-02  0.163031D-03 -0.190696D-01
     20 -0.560316D-03 -0.209976D-02  0.301069D-02  0.250369D-02 -0.507557D-02
     21  0.165227D-02  0.519682D-03  0.175411D-02  0.216548D-02 -0.149038D-01
               11            12            13            14            15 
     11  0.950912D-02
     12 -0.814731D-02  0.482787D-01
     13  0.000000D+00  0.000000D+00  0.690873D-02
     14  0.000000D+00  0.000000D+00 -0.528998D-02  0.919463D-02
     15  0.000000D+00  0.000000D+00 -0.320330D-02  0.382673D-04  0.903765D-02
     16  0.196476D-02 -0.591693D-03  0.118774D-02  0.224549D-02 -0.185092D-02
     17  0.130860D-02  0.928329D-03 -0.771564D-03 -0.205321D-02  0.220625D-02
     18  0.263237D-02 -0.458701D-02 -0.378223D-03 -0.137759D-02  0.170812D-02
     19 -0.834377D-02 -0.385391D-02 -0.833063D-04 -0.365101D-04 -0.744654D-04
     20 -0.469158D-02  0.405250D-02 -0.608409D-04 -0.266644D-04 -0.543841D-04
     21 -0.121328D-02 -0.210231D-01 -0.101579D-03 -0.445186D-04 -0.907993D-04
               16            17            18            19            20 
     16  0.923903D-01
     17 -0.292262D-02  0.596157D-01
     18  0.406611D-02 -0.118429D-01  0.667085D-01
     19 -0.214515D-01  0.678730D-02 -0.966710D-02  0.407698D-01
     20  0.386655D-03 -0.170967D-01 -0.168363D-02  0.995668D-02  0.153111D-01
     21  0.184545D-02  0.283431D-02 -0.155758D-01  0.103726D-01 -0.324650D-02
               21 
     21  0.278851D-01
 Leave Link  716 at Tue Nov 28 19:06:53 2023, MaxMem=  1879048192 cpu:               0.4 elap:               0.0
 (Enter /home/sekinelabo/g16/l103.exe)

 GradGradGradGradGradGradGradGradGradGradGradGradGradGradGradGradGradGrad
 Berny optimization.
 Search for a local minimum.
 Step number   1 out of a maximum of    2
 All quantities printed in internal units (Hartrees-Bohrs-Radians)
 Second derivative matrix not updated -- first step.
 ITU=  0
     Eigenvalues ---    0.00262   0.00549   0.01295   0.02026   0.02489
     Eigenvalues ---    0.02637   0.03685   0.05661   0.06175   0.07040
     Eigenvalues ---    0.07897   0.09033   0.10394   0.10892   0.13067
 Quadratic step=3.577D-01 exceeds max=3.000D-01 adjusted using Lamda=-2.841D-03.
 Angle between NR and scaled steps=   9.23 degrees.
 Angle between quadratic step and forces=  36.11 degrees.
 Linear search not attempted -- first point.
 B after Tr=    -0.000000    0.000000    0.000000
         Rot=    1.000000    0.000000   -0.000000    0.000000 Ang=   0.00 deg.
 Variable       Old X    -DE/DX   Delta X   Delta X   Delta X     New X
                                 (Linear)    (Quad)   (Total)
    X1       25.52094  -0.00180   0.00000  -0.03135  -0.03135  25.48959
    Y1       31.10168   0.00018   0.00000   0.02339   0.02339  31.12506
    Z1       25.92648   0.00157   0.00000   0.01256   0.01256  25.93903
    X2       24.34156  -0.00177   0.00000   0.02831   0.02831  24.36988
    Y2       29.03035   0.00302   0.00000   0.00277   0.00277  29.03312
    Z2       32.65144  -0.00377   0.00000  -0.06754  -0.06754  32.58390
    X3       28.21021   0.00613   0.00000   0.09465   0.09465  28.30486
    Y3       24.86218  -0.00508   0.00000  -0.07490  -0.07490  24.78728
    Z3       35.06784  -0.00200   0.00000  -0.07075  -0.07075  34.99709
    X4       28.91205  -0.00210   0.00000  -0.05150  -0.05150  28.86056
    Y4       33.40847  -0.00045   0.00000  -0.00317  -0.00317  33.40529
    Z4       21.33879  -0.00269   0.00000   0.00287   0.00287  21.34165
    X5       32.69774  -0.00318   0.00000  -0.08950  -0.08950  32.60824
    Y5       20.22460   0.00346   0.00000   0.17163   0.17163  20.39624
    Z5       32.32131   0.00245   0.00000   0.05132   0.05132  32.37263
    X6       30.13263   0.00177   0.00000   0.04085   0.04085  30.17348
    Y6       30.14567   0.00028   0.00000  -0.03106  -0.03106  30.11461
    Z6       30.32670   0.00028   0.00000  -0.02566  -0.02566  30.30105
    X7       33.18964   0.00095   0.00000   0.00854   0.00854  33.19817
    Y7       34.23182  -0.00142   0.00000  -0.08866  -0.08866  34.14316
    Z7       25.37222   0.00415   0.00000   0.09721   0.09721  25.46943
         Item               Value     Threshold  Converged?
 Maximum Force            0.006127     0.000450     NO 
 RMS     Force            0.002785     0.000300     NO 
 Maximum Displacement     0.171632     0.001800     NO 
 RMS     Displacement     0.065494     0.001200     NO 
 Predicted change in Energy=-1.675096D-03
 GradGradGradGradGradGradGradGradGradGradGradGradGradGradGradGradGradGrad

 Leave Link  103 at Tue Nov 28 19:06:53 2023, MaxMem=  1879048192 cpu:               0.2 elap:               0.0
 (Enter /home/sekinelabo/g16/l9999.exe)
 1\1\GINC-SEKINELABO-XA7R-R37\Force\UB3LYP\6-311+G(d)\Na7(2)\SEKINELABO
 \28-Nov-2023\0\\#P B3LYP/6-311+g(d) force\\DPGEN\\0,2\Na,13.5051,16.45
 83,13.7197\Na,12.881,15.3622,17.2784\Na,14.9282,13.1565,18.5571\Na,15.
 2996,17.679,11.292\Na,17.3029,10.7024,17.1037\Na,15.9455,15.9524,16.04
 82\Na,17.5632,18.1147,13.4264\\Version=ES64L-G16RevB.01\State=2-A\HF=-
 1136.1118679\S2=0.861446\S2-1=0.\S2A=0.755027\RMSD=4.865e-09\RMSF=2.78
 5e-03\Dipole=-0.2382825,0.3801001,-0.1835855\Quadrupole=0.9549916,-3.4
 177587,2.4627672,1.0881767,-6.2982271,0.2015614\PG=C01 [X(Na7)]\\@


 MICRO CREDO - NEVER TRUST A COMPUTER BIGGER
               BIGGER THAN YOU CAN LIFT.
 Job cpu time:       0 days  0 hours  4 minutes 14.2 seconds.
 Elapsed time:       0 days  0 hours  0 minutes 22.3 seconds.
 File lengths (MBytes):  RWF=     32 Int=      0 D2E=      0 Chk=      4 Scr=      1
 Normal termination of Gaussian 16 at Tue Nov 28 19:06:53 2023.
