 Set GAUSS_MDEF to "14GB".
 Entering Gaussian System, Link 0=g16
 Initial command:
 /home/sekinelabo/g16/l1.exe "/home/sekinelabo/g16temp/Gau-200493.inp" -scrdir="/home/sekinelabo/g16temp/"
 Entering Link 1 = /home/sekinelabo/g16/l1.exe PID=    200495.
  
 Copyright (c) 1988-2017, Gaussian, Inc.  All Rights Reserved.
  
 This is part of the Gaussian(R) 16 program.  It is based on
 the Gaussian(R) 09 system (copyright 2009, Gaussian, Inc.),
 the Gaussian(R) 03 system (copyright 2003, Gaussian, Inc.),
 the Gaussian(R) 98 system (copyright 1998, Gaussian, Inc.),
 the Gaussian(R) 94 system (copyright 1995, Gaussian, Inc.),
 the Gaussian 92(TM) system (copyright 1992, Gaussian, Inc.),
 the Gaussian 90(TM) system (copyright 1990, Gaussian, Inc.),
 the Gaussian 88(TM) system (copyright 1988, Gaussian, Inc.),
 the Gaussian 86(TM) system (copyright 1986, Carnegie Mellon
 University), and the Gaussian 82(TM) system (copyright 1983,
 Carnegie Mellon University). Gaussian is a federally registered
 trademark of Gaussian, Inc.
  
 This software contains proprietary and confidential information,
 including trade secrets, belonging to Gaussian, Inc.
  
 This software is provided under written license and may be
 used, copied, transmitted, or stored only in accord with that
 written license.
  
 The following legend is applicable only to US Government
 contracts under FAR:
  
                    RESTRICTED RIGHTS LEGEND
  
 Use, reproduction and disclosure by the US Government is
 subject to restrictions as set forth in subparagraphs (a)
 and (c) of the Commercial Computer Software - Restricted
 Rights clause in FAR 52.227-19.
  
 Gaussian, Inc.
 340 Quinnipiac St., Bldg. 40, Wallingford CT 06492
  
  
 ---------------------------------------------------------------
 Warning -- This program may not be used in any manner that
 competes with the business of Gaussian, Inc. or will provide
 assistance to any competitor of Gaussian, Inc.  The licensee
 of this program is prohibited from giving any competitor of
 Gaussian, Inc. access to this program.  By using this program,
 the user acknowledges that Gaussian, Inc. is engaged in the
 business of creating and licensing software in the field of
 computational chemistry and represents and warrants to the
 licensee that it is not a competitor of Gaussian, Inc. and that
 it will not use this program in any manner prohibited above.
 ---------------------------------------------------------------
  

 Cite this work as:
 Gaussian 16, Revision B.01,
 M. J. Frisch, G. W. Trucks, H. B. Schlegel, G. E. Scuseria, 
 M. A. Robb, J. R. Cheeseman, G. Scalmani, V. Barone, 
 G. A. Petersson, H. Nakatsuji, X. Li, M. Caricato, A. V. Marenich, 
 J. Bloino, B. G. Janesko, R. Gomperts, B. Mennucci, H. P. Hratchian, 
 J. V. Ortiz, A. F. Izmaylov, J. L. Sonnenberg, D. Williams-Young, 
 F. Ding, F. Lipparini, F. Egidi, J. Goings, B. Peng, A. Petrone, 
 T. Henderson, D. Ranasinghe, V. G. Zakrzewski, J. Gao, N. Rega, 
 G. Zheng, W. Liang, M. Hada, M. Ehara, K. Toyota, R. Fukuda, 
 J. Hasegawa, M. Ishida, T. Nakajima, Y. Honda, O. Kitao, H. Nakai, 
 T. Vreven, K. Throssell, J. A. Montgomery, Jr., J. E. Peralta, 
 F. Ogliaro, M. J. Bearpark, J. J. Heyd, E. N. Brothers, K. N. Kudin, 
 V. N. Staroverov, T. A. Keith, R. Kobayashi, J. Normand, 
 K. Raghavachari, A. P. Rendell, J. C. Burant, S. S. Iyengar, 
 J. Tomasi, M. Cossi, J. M. Millam, M. Klene, C. Adamo, R. Cammi, 
 J. W. Ochterski, R. L. Martin, K. Morokuma, O. Farkas, 
 J. B. Foresman, and D. J. Fox, Gaussian, Inc., Wallingford CT, 2016.
 
 ******************************************
 Gaussian 16:  ES64L-G16RevB.01 20-Dec-2017
                28-Nov-2023 
 ******************************************
 %nproc=15
 Will use up to   15 processors via shared memory.
 -------------------------
 #P B3LYP/6-311+g(d) force
 -------------------------
 1/10=7,30=1,38=1/1,3;
 2/12=2,17=6,18=5,40=1/2;
 3/5=4,6=6,7=11,11=2,25=1,30=1,71=1,74=-5/1,2,3;
 4//1;
 5/5=2,38=5/2;
 6/7=2,8=2,9=2,10=2,28=1/1;
 7/29=1/1,2,3,16;
 1/10=7,30=1/3;
 99//99;
 Leave Link    1 at Tue Nov 28 23:35:56 2023, MaxMem=           0 cpu:               0.3 elap:               0.0
 (Enter /home/sekinelabo/g16/l101.exe)
 -----
 DPGEN
 -----
 Symbolic Z-matrix:
 Charge =  0 Multiplicity = 2
 Na                    14.6675   15.9934   17.2998 
 Na                    17.4729   17.257    15.0409 
 Na                    15.8323   13.7385   14.547 
 Na                    13.3318   12.6457   16.7223 
 Na                    12.5528   13.8621   13.6845 
 Na                    18.4716   14.8708   13.4936 
 Na                    15.0967   19.0579   16.6374 
 
 ITRead=  0  0  0  0  0  0  0
 MicOpt= -1 -1 -1 -1 -1 -1 -1
 NAtoms=      7 NQM=        7 NQMF=       0 NMMI=      0 NMMIF=      0
                NMic=       0 NMicF=      0.
                    Isotopes and Nuclear Properties:
 (Nuclear quadrupole moments (NQMom) in fm**2, nuclear magnetic moments (NMagM)
  in nuclear magnetons)

  Atom         1           2           3           4           5           6           7
 IAtWgt=          23          23          23          23          23          23          23
 AtmWgt=  22.9897697  22.9897697  22.9897697  22.9897697  22.9897697  22.9897697  22.9897697
 NucSpn=           3           3           3           3           3           3           3
 AtZEff=  -0.0000000  -0.0000000  -0.0000000  -0.0000000  -0.0000000  -0.0000000  -0.0000000
 NQMom=   10.4000000  10.4000000  10.4000000  10.4000000  10.4000000  10.4000000  10.4000000
 NMagM=    2.2175200   2.2175200   2.2175200   2.2175200   2.2175200   2.2175200   2.2175200
 AtZNuc=  11.0000000  11.0000000  11.0000000  11.0000000  11.0000000  11.0000000  11.0000000
 Leave Link  101 at Tue Nov 28 23:35:56 2023, MaxMem=  1879048192 cpu:               2.4 elap:               0.2
 (Enter /home/sekinelabo/g16/l103.exe)

 GradGradGradGradGradGradGradGradGradGradGradGradGradGradGradGradGradGrad
 Berny optimization.
 Initialization pass.
 Trust Radius=3.00D-01 FncErr=1.00D-07 GrdErr=1.00D-07 EigMax=2.50D+02 EigMin=1.00D-04
 Number of steps in this run=      2 maximum allowed number of steps=      2.
 GradGradGradGradGradGradGradGradGradGradGradGradGradGradGradGradGradGrad

 Leave Link  103 at Tue Nov 28 23:35:56 2023, MaxMem=  1879048192 cpu:               0.2 elap:               0.0
 (Enter /home/sekinelabo/g16/l202.exe)
                          Input orientation:                          
 ---------------------------------------------------------------------
 Center     Atomic      Atomic             Coordinates (Angstroms)
 Number     Number       Type             X           Y           Z
 ---------------------------------------------------------------------
      1         11           0       14.667500   15.993400   17.299800
      2         11           0       17.472900   17.257000   15.040900
      3         11           0       15.832300   13.738500   14.547000
      4         11           0       13.331800   12.645700   16.722300
      5         11           0       12.552800   13.862100   13.684500
      6         11           0       18.471600   14.870800   13.493600
      7         11           0       15.096700   19.057900   16.637400
 ---------------------------------------------------------------------
                    Distance matrix (angstroms):
                    1          2          3          4          5
     1  Na   0.000000
     2  Na   3.817012   0.000000
     3  Na   3.744228   3.913483   0.000000
     4  Na   3.650301   6.421830   3.489791   0.000000
     5  Na   4.699446   6.129645   3.393273   3.363733   0.000000
     6  Na   5.497142   3.014215   3.059029   6.464760   6.007172
     7  Na   3.164514   3.382067   5.762542   6.651195   6.495182
                    6          7
     6  Na   0.000000
     7  Na   6.229385   0.000000
 Stoichiometry    Na7(2)
 Framework group  C1[X(Na7)]
 Deg. of freedom    15
 Full point group                 C1      NOp   1
 Largest Abelian subgroup         C1      NOp   1
 Largest concise Abelian subgroup C1      NOp   1
                         Standard orientation:                         
 ---------------------------------------------------------------------
 Center     Atomic      Atomic             Coordinates (Angstroms)
 Number     Number       Type             X           Y           Z
 ---------------------------------------------------------------------
      1         11           0        0.120878   -1.949612   -0.937732
      2         11           0        2.817948    0.567865    0.040894
      3         11           0       -0.950513    1.575809   -0.272321
      4         11           0       -3.324040   -0.785432   -1.256979
      5         11           0       -2.972395    0.046497    1.983228
      6         11           0        1.574258    3.301926   -0.211367
      7         11           0        2.733864   -2.757052    0.654277
 ---------------------------------------------------------------------
 Rotational constants (GHZ):           0.6728559           0.4816908           0.3412133
 Leave Link  202 at Tue Nov 28 23:35:56 2023, MaxMem=  1879048192 cpu:               0.0 elap:               0.0
 (Enter /home/sekinelabo/g16/l301.exe)
 Standard basis: 6-311+G(d) (5D, 7F)
 Ernie: Thresh=  0.10000D-02 Tol=  0.10000D-05 Strict=F.
 There are   217 symmetry adapted cartesian basis functions of A   symmetry.
 There are   210 symmetry adapted basis functions of A   symmetry.
   210 basis functions,   350 primitive gaussians,   217 cartesian basis functions
    39 alpha electrons       38 beta electrons
       nuclear repulsion energy       312.5014135302 Hartrees.
 IExCor=  402 DFT=T Ex+Corr=B3LYP ExCW=0 ScaHFX=  0.200000
 ScaDFX=  0.800000  0.720000  1.000000  0.810000 ScalE2=  1.000000  1.000000
 IRadAn=      5 IRanWt=     -1 IRanGd=            0 ICorTp=0 IEmpDi=  4
 NAtoms=    7 NActive=    7 NUniq=    7 SFac= 1.00D+00 NAtFMM=   60 NAOKFM=F Big=F
 Integral buffers will be    131072 words long.
 Raffenetti 2 integral format.
 Two-electron integral symmetry is turned on.
 Leave Link  301 at Tue Nov 28 23:35:56 2023, MaxMem=  1879048192 cpu:               0.5 elap:               0.0
 (Enter /home/sekinelabo/g16/l302.exe)
 NPDir=0 NMtPBC=     1 NCelOv=     1 NCel=       1 NClECP=     1 NCelD=      1
         NCelK=      1 NCelE2=     1 NClLst=     1 CellRange=     0.0.
 One-electron integrals computed using PRISM.
 One-electron integral symmetry used in STVInt
 NBasis=   210 RedAO= T EigKep=  5.69D-06  NBF=   210
 NBsUse=   210 1.00D-06 EigRej= -1.00D+00 NBFU=   210
 Precomputing XC quadrature grid using
 IXCGrd= 4 IRadAn=           5 IRanWt=          -1 IRanGd=           0 AccXCQ= 0.00D+00.
 Generated NRdTot=       0 NPtTot=           0 NUsed=           0 NTot=          32
 NSgBfM=   209   209   209   209   209 MxSgAt=     7 MxSgA2=     7.
 Leave Link  302 at Tue Nov 28 23:35:57 2023, MaxMem=  1879048192 cpu:               2.0 elap:               0.1
 (Enter /home/sekinelabo/g16/l303.exe)
 DipDrv:  MaxL=1.
 Leave Link  303 at Tue Nov 28 23:35:57 2023, MaxMem=  1879048192 cpu:               0.5 elap:               0.0
 (Enter /home/sekinelabo/g16/l401.exe)
 ExpMin= 7.60D-03 ExpMax= 3.62D+04 ExpMxC= 1.21D+03 IAcc=3 IRadAn=         5 AccDes= 0.00D+00
 Harris functional with IExCor=  402 and IRadAn=       5 diagonalized for initial guess.
 HarFok:  IExCor=  402 AccDes= 0.00D+00 IRadAn=         5 IDoV= 1 UseB2=F ITyADJ=14
 ICtDFT=  3500011 ScaDFX=  1.000000  1.000000  1.000000  1.000000
 FoFCou: FMM=F IPFlag=           0 FMFlag=      100000 FMFlg1=           0
         NFxFlg=           0 DoJE=T BraDBF=F KetDBF=T FulRan=T
         wScrn=  0.000000 ICntrl=       500 IOpCl=  0 I1Cent=   200000004 NGrid=           0
         NMat0=    1 NMatS0=      1 NMatT0=    0 NMatD0=    1 NMtDS0=    0 NMtDT0=    0
 Petite list used in FoFCou.
 Harris En= -1135.89301368705    
 JPrj=0 DoOrth=F DoCkMO=F.
 Initial guess <Sx>= 0.0000 <Sy>= 0.0000 <Sz>= 0.5000 <S**2>= 0.7500 S= 0.5000
 Leave Link  401 at Tue Nov 28 23:35:57 2023, MaxMem=  1879048192 cpu:               4.3 elap:               0.3
 (Enter /home/sekinelabo/g16/l502.exe)
 Keep R1 and R2 ints in memory in canonical form, NReq=506573307.
 FoFCou: FMM=F IPFlag=           0 FMFlag=           0 FMFlg1=           0
         NFxFlg=           0 DoJE=F BraDBF=F KetDBF=F FulRan=T
         wScrn=  0.000000 ICntrl=       600 IOpCl=  0 I1Cent=           0 NGrid=           0
         NMat0=    1 NMatS0=  22155 NMatT0=    0 NMatD0=    1 NMtDS0=    0 NMtDT0=    0
 Symmetry not used in FoFCou.
 Two-electron integral symmetry not used.
 UHF open shell SCF:
 Using DIIS extrapolation, IDIIS=  1040.
 NGot=  1879048192 LenX=  1388082593 LenY=  1388035063
 Requested convergence on RMS density matrix=1.00D-08 within 128 cycles.
 Requested convergence on MAX density matrix=1.00D-06.
 Requested convergence on             energy=1.00D-06.
 No special actions if energy rises.

 Cycle   1  Pass 1  IDiag  1:
 E= -1136.09619782755    
 DIIS: error= 9.91D-03 at cycle   1 NSaved=   1.
 NSaved= 1 IEnMin= 1 EnMin= -1136.09619782755     IErMin= 1 ErrMin= 9.91D-03
 ErrMax= 9.91D-03  0.00D+00 EMaxC= 1.00D-01 BMatC= 1.85D-01 BMatP= 1.85D-01
 IDIUse=3 WtCom= 9.01D-01 WtEn= 9.91D-02
 Coeff-Com:  0.100D+01
 Coeff-En:   0.100D+01
 Coeff:      0.100D+01
 Gap=     0.036 Goal=   None    Shift=    0.000
 Gap=     0.055 Goal=   None    Shift=    0.000
 GapD=    0.036 DampG=0.250 DampE=1.000 DampFc=0.2500 IDamp=-1.
 Damping current iteration by 2.50D-01
 RMSDP=1.04D-02 MaxDP=7.50D-01              OVMax= 2.04D-01

 Cycle   2  Pass 1  IDiag  1:
 E= -1136.10619635734     Delta-E=       -0.009998529784 Rises=F Damp=T
 DIIS: error= 7.16D-03 at cycle   2 NSaved=   2.
 NSaved= 2 IEnMin= 2 EnMin= -1136.10619635734     IErMin= 2 ErrMin= 7.16D-03
 ErrMax= 7.16D-03  0.00D+00 EMaxC= 1.00D-01 BMatC= 7.11D-02 BMatP= 1.85D-01
 IDIUse=3 WtCom= 9.28D-01 WtEn= 7.16D-02
 Coeff-Com: -0.129D+01 0.229D+01
 Coeff-En:   0.000D+00 0.100D+01
 Coeff:     -0.119D+01 0.219D+01
 Gap=     0.039 Goal=   None    Shift=    0.000
 Gap=     0.064 Goal=   None    Shift=    0.000
 RMSDP=5.47D-03 MaxDP=3.89D-01 DE=-1.00D-02 OVMax= 1.24D-01

 Cycle   3  Pass 1  IDiag  1:
 E= -1136.12471233691     Delta-E=       -0.018515979572 Rises=F Damp=F
 DIIS: error= 1.87D-03 at cycle   3 NSaved=   3.
 NSaved= 3 IEnMin= 3 EnMin= -1136.12471233691     IErMin= 3 ErrMin= 1.87D-03
 ErrMax= 1.87D-03  0.00D+00 EMaxC= 1.00D-01 BMatC= 1.34D-03 BMatP= 7.11D-02
 IDIUse=3 WtCom= 9.81D-01 WtEn= 1.87D-02
 Coeff-Com: -0.123D+00 0.215D+00 0.908D+00
 Coeff-En:   0.000D+00 0.000D+00 0.100D+01
 Coeff:     -0.121D+00 0.211D+00 0.910D+00
 Gap=     0.040 Goal=   None    Shift=    0.000
 Gap=     0.060 Goal=   None    Shift=    0.000
 RMSDP=2.12D-03 MaxDP=1.36D-01 DE=-1.85D-02 OVMax= 6.36D-02

 Cycle   4  Pass 1  IDiag  1:
 E= -1136.12457922804     Delta-E=        0.000133108872 Rises=F Damp=F
 DIIS: error= 1.92D-03 at cycle   4 NSaved=   4.
 NSaved= 4 IEnMin= 3 EnMin= -1136.12471233691     IErMin= 3 ErrMin= 1.87D-03
 ErrMax= 1.92D-03  0.00D+00 EMaxC= 1.00D-01 BMatC= 1.59D-03 BMatP= 1.34D-03
 IDIUse=3 WtCom= 1.86D-01 WtEn= 8.14D-01
 Coeff-Com: -0.357D-02 0.389D-02 0.522D+00 0.478D+00
 Coeff-En:   0.000D+00 0.000D+00 0.524D+00 0.476D+00
 Coeff:     -0.663D-03 0.722D-03 0.524D+00 0.476D+00
 Gap=     0.040 Goal=   None    Shift=    0.000
 Gap=     0.062 Goal=   None    Shift=    0.000
 RMSDP=1.17D-03 MaxDP=8.98D-02 DE= 1.33D-04 OVMax= 2.92D-02

 Cycle   5  Pass 1  IDiag  1:
 E= -1136.12593109748     Delta-E=       -0.001351869442 Rises=F Damp=F
 DIIS: error= 9.41D-05 at cycle   5 NSaved=   5.
 NSaved= 5 IEnMin= 5 EnMin= -1136.12593109748     IErMin= 5 ErrMin= 9.41D-05
 ErrMax= 9.41D-05  0.00D+00 EMaxC= 1.00D-01 BMatC= 4.91D-06 BMatP= 1.34D-03
 IDIUse=1 WtCom= 1.00D+00 WtEn= 0.00D+00
 Coeff-Com:  0.155D-02-0.280D-02 0.484D-01 0.458D-01 0.907D+00
 Coeff:      0.155D-02-0.280D-02 0.484D-01 0.458D-01 0.907D+00
 Gap=     0.040 Goal=   None    Shift=    0.000
 Gap=     0.062 Goal=   None    Shift=    0.000
 RMSDP=1.86D-04 MaxDP=7.63D-03 DE=-1.35D-03 OVMax= 7.81D-03

 Cycle   6  Pass 1  IDiag  1:
 E= -1136.12594334019     Delta-E=       -0.000012242713 Rises=F Damp=F
 DIIS: error= 9.71D-05 at cycle   6 NSaved=   6.
 NSaved= 6 IEnMin= 6 EnMin= -1136.12594334019     IErMin= 5 ErrMin= 9.41D-05
 ErrMax= 9.71D-05  0.00D+00 EMaxC= 1.00D-01 BMatC= 3.78D-06 BMatP= 4.91D-06
 IDIUse=1 WtCom= 1.00D+00 WtEn= 0.00D+00
 Coeff-Com:  0.158D-02-0.237D-02-0.934D-01-0.849D-01 0.512D+00 0.667D+00
 Coeff:      0.158D-02-0.237D-02-0.934D-01-0.849D-01 0.512D+00 0.667D+00
 Gap=     0.040 Goal=   None    Shift=    0.000
 Gap=     0.062 Goal=   None    Shift=    0.000
 RMSDP=9.89D-05 MaxDP=4.47D-03 DE=-1.22D-05 OVMax= 5.40D-03

 Cycle   7  Pass 1  IDiag  1:
 E= -1136.12595116774     Delta-E=       -0.000007827551 Rises=F Damp=F
 DIIS: error= 2.94D-05 at cycle   7 NSaved=   7.
 NSaved= 7 IEnMin= 7 EnMin= -1136.12595116774     IErMin= 7 ErrMin= 2.94D-05
 ErrMax= 2.94D-05  0.00D+00 EMaxC= 1.00D-01 BMatC= 4.30D-07 BMatP= 3.78D-06
 IDIUse=1 WtCom= 1.00D+00 WtEn= 0.00D+00
 Coeff-Com:  0.688D-03-0.866D-03-0.354D-01-0.318D-01-0.451D-01 0.173D+00
 Coeff-Com:  0.940D+00
 Coeff:      0.688D-03-0.866D-03-0.354D-01-0.318D-01-0.451D-01 0.173D+00
 Coeff:      0.940D+00
 Gap=     0.040 Goal=   None    Shift=    0.000
 Gap=     0.063 Goal=   None    Shift=    0.000
 RMSDP=6.29D-05 MaxDP=3.36D-03 DE=-7.83D-06 OVMax= 3.96D-03

 Cycle   8  Pass 1  IDiag  1:
 E= -1136.12595322519     Delta-E=       -0.000002057442 Rises=F Damp=F
 DIIS: error= 1.35D-05 at cycle   8 NSaved=   8.
 NSaved= 8 IEnMin= 8 EnMin= -1136.12595322519     IErMin= 8 ErrMin= 1.35D-05
 ErrMax= 1.35D-05  0.00D+00 EMaxC= 1.00D-01 BMatC= 1.37D-07 BMatP= 4.30D-07
 IDIUse=1 WtCom= 1.00D+00 WtEn= 0.00D+00
 Coeff-Com:  0.319D-03-0.337D-03 0.389D-02 0.304D-02-0.123D+00-0.690D-01
 Coeff-Com:  0.384D+00 0.801D+00
 Coeff:      0.319D-03-0.337D-03 0.389D-02 0.304D-02-0.123D+00-0.690D-01
 Coeff:      0.384D+00 0.801D+00
 Gap=     0.040 Goal=   None    Shift=    0.000
 Gap=     0.063 Goal=   None    Shift=    0.000
 RMSDP=3.78D-05 MaxDP=2.42D-03 DE=-2.06D-06 OVMax= 2.29D-03

 Cycle   9  Pass 1  IDiag  1:
 E= -1136.12595381645     Delta-E=       -0.000000591264 Rises=F Damp=F
 DIIS: error= 8.54D-06 at cycle   9 NSaved=   9.
 NSaved= 9 IEnMin= 9 EnMin= -1136.12595381645     IErMin= 9 ErrMin= 8.54D-06
 ErrMax= 8.54D-06  0.00D+00 EMaxC= 1.00D-01 BMatC= 2.98D-08 BMatP= 1.37D-07
 IDIUse=1 WtCom= 1.00D+00 WtEn= 0.00D+00
 Coeff-Com: -0.230D-04 0.411D-04 0.101D-01 0.802D-02-0.576D-02-0.525D-01
 Coeff-Com: -0.206D+00 0.139D+00 0.111D+01
 Coeff:     -0.230D-04 0.411D-04 0.101D-01 0.802D-02-0.576D-02-0.525D-01
 Coeff:     -0.206D+00 0.139D+00 0.111D+01
 Gap=     0.040 Goal=   None    Shift=    0.000
 Gap=     0.063 Goal=   None    Shift=    0.000
 RMSDP=2.65D-05 MaxDP=1.68D-03 DE=-5.91D-07 OVMax= 1.67D-03

 Cycle  10  Pass 1  IDiag  1:
 E= -1136.12595402731     Delta-E=       -0.000000210856 Rises=F Damp=F
 DIIS: error= 5.81D-06 at cycle  10 NSaved=  10.
 NSaved=10 IEnMin=10 EnMin= -1136.12595402731     IErMin=10 ErrMin= 5.81D-06
 ErrMax= 5.81D-06  0.00D+00 EMaxC= 1.00D-01 BMatC= 6.94D-09 BMatP= 2.98D-08
 IDIUse=1 WtCom= 1.00D+00 WtEn= 0.00D+00
 Coeff-Com: -0.197D-03 0.248D-03 0.293D-02 0.237D-02 0.240D-01-0.291D-02
 Coeff-Com: -0.155D+00-0.122D+00 0.351D+00 0.899D+00
 Coeff:     -0.197D-03 0.248D-03 0.293D-02 0.237D-02 0.240D-01-0.291D-02
 Coeff:     -0.155D+00-0.122D+00 0.351D+00 0.899D+00
 Gap=     0.040 Goal=   None    Shift=    0.000
 Gap=     0.063 Goal=   None    Shift=    0.000
 RMSDP=1.19D-05 MaxDP=7.71D-04 DE=-2.11D-07 OVMax= 7.37D-04

 Cycle  11  Pass 1  IDiag  1:
 E= -1136.12595406526     Delta-E=       -0.000000037954 Rises=F Damp=F
 DIIS: error= 4.20D-06 at cycle  11 NSaved=  11.
 NSaved=11 IEnMin=11 EnMin= -1136.12595406526     IErMin=11 ErrMin= 4.20D-06
 ErrMax= 4.20D-06  0.00D+00 EMaxC= 1.00D-01 BMatC= 2.96D-09 BMatP= 6.94D-09
 IDIUse=1 WtCom= 1.00D+00 WtEn= 0.00D+00
 Coeff-Com: -0.129D-03 0.160D-03-0.395D-03-0.145D-03 0.123D-01 0.789D-02
 Coeff-Com: -0.335D-01-0.874D-01-0.810D-01 0.495D+00 0.688D+00
 Coeff:     -0.129D-03 0.160D-03-0.395D-03-0.145D-03 0.123D-01 0.789D-02
 Coeff:     -0.335D-01-0.874D-01-0.810D-01 0.495D+00 0.688D+00
 Gap=     0.040 Goal=   None    Shift=    0.000
 Gap=     0.063 Goal=   None    Shift=    0.000
 RMSDP=5.05D-06 MaxDP=3.25D-04 DE=-3.80D-08 OVMax= 2.56D-04

 Cycle  12  Pass 1  IDiag  1:
 E= -1136.12595407381     Delta-E=       -0.000000008545 Rises=F Damp=F
 DIIS: error= 1.54D-06 at cycle  12 NSaved=  12.
 NSaved=12 IEnMin=12 EnMin= -1136.12595407381     IErMin=12 ErrMin= 1.54D-06
 ErrMax= 1.54D-06  0.00D+00 EMaxC= 1.00D-01 BMatC= 5.25D-10 BMatP= 2.96D-09
 IDIUse=1 WtCom= 1.00D+00 WtEn= 0.00D+00
 Coeff-Com: -0.353D-05 0.185D-05-0.848D-03-0.558D-03 0.475D-03 0.382D-02
 Coeff-Com:  0.195D-01-0.931D-02-0.119D+00 0.860D-02 0.321D+00 0.776D+00
 Coeff:     -0.353D-05 0.185D-05-0.848D-03-0.558D-03 0.475D-03 0.382D-02
 Coeff:      0.195D-01-0.931D-02-0.119D+00 0.860D-02 0.321D+00 0.776D+00
 Gap=     0.040 Goal=   None    Shift=    0.000
 Gap=     0.063 Goal=   None    Shift=    0.000
 RMSDP=2.11D-06 MaxDP=1.41D-04 DE=-8.55D-09 OVMax= 9.30D-05

 Cycle  13  Pass 1  IDiag  1:
 E= -1136.12595407561     Delta-E=       -0.000000001808 Rises=F Damp=F
 DIIS: error= 4.14D-07 at cycle  13 NSaved=  13.
 NSaved=13 IEnMin=13 EnMin= -1136.12595407561     IErMin=13 ErrMin= 4.14D-07
 ErrMax= 4.14D-07  0.00D+00 EMaxC= 1.00D-01 BMatC= 7.31D-11 BMatP= 5.25D-10
 IDIUse=1 WtCom= 1.00D+00 WtEn= 0.00D+00
 Coeff-Com:  0.395D-04-0.503D-04 0.569D-04 0.326D-04-0.327D-02-0.138D-02
 Coeff-Com:  0.107D-01 0.167D-01 0.939D-02-0.115D+00-0.122D+00 0.370D-01
 Coeff-Com:  0.117D+01
 Coeff:      0.395D-04-0.503D-04 0.569D-04 0.326D-04-0.327D-02-0.138D-02
 Coeff:      0.107D-01 0.167D-01 0.939D-02-0.115D+00-0.122D+00 0.370D-01
 Coeff:      0.117D+01
 Gap=     0.040 Goal=   None    Shift=    0.000
 Gap=     0.063 Goal=   None    Shift=    0.000
 RMSDP=1.56D-06 MaxDP=1.13D-04 DE=-1.81D-09 OVMax= 5.36D-05

 Cycle  14  Pass 1  IDiag  1:
 E= -1136.12595407621     Delta-E=       -0.000000000601 Rises=F Damp=F
 DIIS: error= 1.97D-07 at cycle  14 NSaved=  14.
 NSaved=14 IEnMin=14 EnMin= -1136.12595407621     IErMin=14 ErrMin= 1.97D-07
 ErrMax= 1.97D-07  0.00D+00 EMaxC= 1.00D-01 BMatC= 1.79D-11 BMatP= 7.31D-11
 IDIUse=1 WtCom= 1.00D+00 WtEn= 0.00D+00
 Coeff-Com: -0.653D-05 0.908D-05 0.109D-03 0.511D-04 0.623D-03-0.460D-03
 Coeff-Com: -0.622D-02-0.112D-02 0.272D-01 0.128D-01-0.599D-01-0.191D+00
 Coeff-Com: -0.129D+00 0.135D+01
 Coeff:     -0.653D-05 0.908D-05 0.109D-03 0.511D-04 0.623D-03-0.460D-03
 Coeff:     -0.622D-02-0.112D-02 0.272D-01 0.128D-01-0.599D-01-0.191D+00
 Coeff:     -0.129D+00 0.135D+01
 Gap=     0.040 Goal=   None    Shift=    0.000
 Gap=     0.063 Goal=   None    Shift=    0.000
 RMSDP=9.84D-07 MaxDP=6.28D-05 DE=-6.01D-10 OVMax= 3.49D-05

 Cycle  15  Pass 1  IDiag  1:
 E= -1136.12595407642     Delta-E=       -0.000000000204 Rises=F Damp=F
 DIIS: error= 1.02D-07 at cycle  15 NSaved=  15.
 NSaved=15 IEnMin=15 EnMin= -1136.12595407642     IErMin=15 ErrMin= 1.02D-07
 ErrMax= 1.02D-07  0.00D+00 EMaxC= 1.00D-01 BMatC= 5.49D-12 BMatP= 1.79D-11
 IDIUse=1 WtCom= 1.00D+00 WtEn= 0.00D+00
 Coeff-Com: -0.158D-04 0.205D-04 0.271D-04 0.131D-04 0.104D-02 0.208D-03
 Coeff-Com: -0.421D-02-0.477D-02 0.156D-02 0.384D-01 0.298D-01-0.397D-01
 Coeff-Com: -0.397D+00 0.311D+00 0.106D+01
 Coeff:     -0.158D-04 0.205D-04 0.271D-04 0.131D-04 0.104D-02 0.208D-03
 Coeff:     -0.421D-02-0.477D-02 0.156D-02 0.384D-01 0.298D-01-0.397D-01
 Coeff:     -0.397D+00 0.311D+00 0.106D+01
 Gap=     0.040 Goal=   None    Shift=    0.000
 Gap=     0.063 Goal=   None    Shift=    0.000
 RMSDP=4.61D-07 MaxDP=2.78D-05 DE=-2.04D-10 OVMax= 1.74D-05

 Cycle  16  Pass 1  IDiag  1:
 E= -1136.12595407646     Delta-E=       -0.000000000039 Rises=F Damp=F
 DIIS: error= 4.72D-08 at cycle  16 NSaved=  16.
 NSaved=16 IEnMin=16 EnMin= -1136.12595407646     IErMin=16 ErrMin= 4.72D-08
 ErrMax= 4.72D-08  0.00D+00 EMaxC= 1.00D-01 BMatC= 9.11D-13 BMatP= 5.49D-12
 IDIUse=1 WtCom= 1.00D+00 WtEn= 0.00D+00
 Coeff-Com:  0.829D-06-0.131D-05-0.206D-04-0.196D-05-0.577D-04 0.127D-03
 Coeff-Com:  0.110D-02-0.320D-03-0.616D-02 0.856D-03 0.158D-01 0.362D-01
 Coeff-Com:  0.138D-01-0.309D+00 0.334D-01 0.121D+01
 Coeff:      0.829D-06-0.131D-05-0.206D-04-0.196D-05-0.577D-04 0.127D-03
 Coeff:      0.110D-02-0.320D-03-0.616D-02 0.856D-03 0.158D-01 0.362D-01
 Coeff:      0.138D-01-0.309D+00 0.334D-01 0.121D+01
 Gap=     0.040 Goal=   None    Shift=    0.000
 Gap=     0.063 Goal=   None    Shift=    0.000
 RMSDP=2.34D-07 MaxDP=1.30D-05 DE=-3.91D-11 OVMax= 1.00D-05

 Cycle  17  Pass 1  IDiag  1:
 E= -1136.12595407647     Delta-E=       -0.000000000017 Rises=F Damp=F
 DIIS: error= 2.02D-08 at cycle  17 NSaved=  17.
 NSaved=17 IEnMin=17 EnMin= -1136.12595407647     IErMin=17 ErrMin= 2.02D-08
 ErrMax= 2.02D-08  0.00D+00 EMaxC= 1.00D-01 BMatC= 1.27D-13 BMatP= 9.11D-13
 IDIUse=1 WtCom= 1.00D+00 WtEn= 0.00D+00
 Coeff-Com:  0.279D-05-0.362D-05-0.537D-05-0.375D-05-0.190D-03-0.143D-04
 Coeff-Com:  0.698D-03 0.642D-03 0.282D-03-0.667D-02-0.552D-02 0.368D-02
 Coeff-Com:  0.618D-01-0.376D-01-0.146D+00-0.656D-01 0.119D+01
 Coeff:      0.279D-05-0.362D-05-0.537D-05-0.375D-05-0.190D-03-0.143D-04
 Coeff:      0.698D-03 0.642D-03 0.282D-03-0.667D-02-0.552D-02 0.368D-02
 Coeff:      0.618D-01-0.376D-01-0.146D+00-0.656D-01 0.119D+01
 Gap=     0.040 Goal=   None    Shift=    0.000
 Gap=     0.063 Goal=   None    Shift=    0.000
 RMSDP=8.47D-08 MaxDP=4.80D-06 DE=-1.68D-11 OVMax= 2.91D-06

 Cycle  18  Pass 1  IDiag  1:
 E= -1136.12595407646     Delta-E=        0.000000000013 Rises=F Damp=F
 DIIS: error= 7.93D-09 at cycle  18 NSaved=  18.
 NSaved=18 IEnMin=17 EnMin= -1136.12595407647     IErMin=18 ErrMin= 7.93D-09
 ErrMax= 7.93D-09  0.00D+00 EMaxC= 1.00D-01 BMatC= 2.28D-14 BMatP= 1.27D-13
 IDIUse=1 WtCom= 1.00D+00 WtEn= 0.00D+00
 Coeff-Com: -0.932D-07 0.157D-06 0.170D-05-0.652D-06 0.502D-05-0.361D-04
 Coeff-Com: -0.111D-03 0.141D-03 0.632D-03-0.378D-03-0.197D-02-0.487D-02
 Coeff-Com:  0.618D-03 0.453D-01-0.221D-01-0.173D+00 0.310D-01 0.112D+01
 Coeff:     -0.932D-07 0.157D-06 0.170D-05-0.652D-06 0.502D-05-0.361D-04
 Coeff:     -0.111D-03 0.141D-03 0.632D-03-0.378D-03-0.197D-02-0.487D-02
 Coeff:      0.618D-03 0.453D-01-0.221D-01-0.173D+00 0.310D-01 0.112D+01
 Gap=     0.040 Goal=   None    Shift=    0.000
 Gap=     0.063 Goal=   None    Shift=    0.000
 RMSDP=3.32D-08 MaxDP=1.86D-06 DE= 1.27D-11 OVMax= 1.03D-06

 Cycle  19  Pass 1  IDiag  1:
 E= -1136.12595407647     Delta-E=       -0.000000000007 Rises=F Damp=F
 DIIS: error= 3.46D-09 at cycle  19 NSaved=  19.
 NSaved=19 IEnMin=17 EnMin= -1136.12595407647     IErMin=19 ErrMin= 3.46D-09
 ErrMax= 3.46D-09  0.00D+00 EMaxC= 1.00D-01 BMatC= 4.13D-15 BMatP= 2.28D-14
 IDIUse=1 WtCom= 1.00D+00 WtEn= 0.00D+00
 Large coefficients: NSaved= 19 BigCof=    0.00 CofMax=   10.00 Det=-9.45D-15
 Inversion failed.  Reducing to 18 matrices.
 Large coefficients: NSaved= 18 BigCof=    0.00 CofMax=   10.00 Det=-9.49D-15
 Inversion failed.  Reducing to 17 matrices.
 Large coefficients: NSaved= 17 BigCof=    0.00 CofMax=   10.00 Det=-9.51D-15
 Inversion failed.  Reducing to 16 matrices.
 Large coefficients: NSaved= 16 BigCof=    0.00 CofMax=   10.00 Det=-9.53D-15
 Inversion failed.  Reducing to 15 matrices.
 Coeff-Com: -0.261D-06-0.328D-05 0.997D-06 0.209D-04 0.135D-04-0.269D-04
 Coeff-Com:  0.130D-04-0.446D-04-0.882D-03 0.308D-02 0.247D-02-0.148D-02
 Coeff-Com: -0.125D+00 0.145D+00 0.977D+00
 Coeff:     -0.261D-06-0.328D-05 0.997D-06 0.209D-04 0.135D-04-0.269D-04
 Coeff:      0.130D-04-0.446D-04-0.882D-03 0.308D-02 0.247D-02-0.148D-02
 Coeff:     -0.125D+00 0.145D+00 0.977D+00
 Gap=     0.040 Goal=   None    Shift=    0.000
 Gap=     0.063 Goal=   None    Shift=    0.000
 RMSDP=1.01D-08 MaxDP=5.53D-07 DE=-6.82D-12 OVMax= 4.06D-07

 Cycle  20  Pass 1  IDiag  1:
 E= -1136.12595407646     Delta-E=        0.000000000004 Rises=F Damp=F
 DIIS: error= 1.71D-09 at cycle  20 NSaved=  16.
 NSaved=16 IEnMin=13 EnMin= -1136.12595407647     IErMin=16 ErrMin= 1.71D-09
 ErrMax= 1.71D-09  0.00D+00 EMaxC= 1.00D-01 BMatC= 1.02D-15 BMatP= 4.13D-15
 IDIUse=1 WtCom= 1.00D+00 WtEn= 0.00D+00
 Large coefficients: NSaved= 16 BigCof=    0.00 CofMax=   10.00 Det=-3.17D-15
 Inversion failed.  Reducing to 15 matrices.
 Coeff-Com:  0.281D-05-0.441D-05-0.248D-04 0.352D-04 0.142D-03 0.920D-04
 Coeff-Com: -0.362D-04-0.162D-02-0.232D-02 0.735D-02 0.229D-01-0.529D-01
 Coeff-Com: -0.171D+00 0.232D+00 0.965D+00
 Coeff:      0.281D-05-0.441D-05-0.248D-04 0.352D-04 0.142D-03 0.920D-04
 Coeff:     -0.362D-04-0.162D-02-0.232D-02 0.735D-02 0.229D-01-0.529D-01
 Coeff:     -0.171D+00 0.232D+00 0.965D+00
 Gap=     0.040 Goal=   None    Shift=    0.000
 Gap=     0.063 Goal=   None    Shift=    0.000
 RMSDP=5.21D-09 MaxDP=2.77D-07 DE= 3.64D-12 OVMax= 1.93D-07

 SCF Done:  E(UB3LYP) =  -1136.12595408     A.U. after   20 cycles
            NFock= 20  Conv=0.52D-08     -V/T= 2.0028
 <Sx>= 0.0000 <Sy>= 0.0000 <Sz>= 0.5000 <S**2>= 0.7669 S= 0.5084
 <L.S>= 0.000000000000E+00
 KE= 1.132958881398D+03 PE=-3.354352183554D+03 EE= 7.727659345495D+02
 Annihilation of the first spin contaminant:
 S**2 before annihilation     0.7669,   after     0.7501
 Leave Link  502 at Tue Nov 28 23:36:13 2023, MaxMem=  1879048192 cpu:             182.2 elap:              16.5
 (Enter /home/sekinelabo/g16/l601.exe)
 Copying SCF densities to generalized density rwf, IOpCl= 1 IROHF=0.

 **********************************************************************

            Population analysis using the SCF Density.

 **********************************************************************

 Orbital symmetries:
 Alpha Orbitals:
       Occupied  (A) (A) (A) (A) (A) (A) (A) (A) (A) (A) (A) (A)
                 (A) (A) (A) (A) (A) (A) (A) (A) (A) (A) (A) (A)
                 (A) (A) (A) (A) (A) (A) (A) (A) (A) (A) (A) (A)
                 (A) (A) (A)
       Virtual   (A) (A) (A) (A) (A) (A) (A) (A) (A) (A) (A) (A)
                 (A) (A) (A) (A) (A) (A) (A) (A) (A) (A) (A) (A)
                 (A) (A) (A) (A) (A) (A) (A) (A) (A) (A) (A) (A)
                 (A) (A) (A) (A) (A) (A) (A) (A) (A) (A) (A) (A)
                 (A) (A) (A) (A) (A) (A) (A) (A) (A) (A) (A) (A)
                 (A) (A) (A) (A) (A) (A) (A) (A) (A) (A) (A) (A)
                 (A) (A) (A) (A) (A) (A) (A) (A) (A) (A) (A) (A)
                 (A) (A) (A) (A) (A) (A) (A) (A) (A) (A) (A) (A)
                 (A) (A) (A) (A) (A) (A) (A) (A) (A) (A) (A) (A)
                 (A) (A) (A) (A) (A) (A) (A) (A) (A) (A) (A) (A)
                 (A) (A) (A) (A) (A) (A) (A) (A) (A) (A) (A) (A)
                 (A) (A) (A) (A) (A) (A) (A) (A) (A) (A) (A) (A)
                 (A) (A) (A) (A) (A) (A) (A) (A) (A) (A) (A) (A)
                 (A) (A) (A) (A) (A) (A) (A) (A) (A) (A) (A) (A)
                 (A) (A) (A)
 Beta  Orbitals:
       Occupied  (A) (A) (A) (A) (A) (A) (A) (A) (A) (A) (A) (A)
                 (A) (A) (A) (A) (A) (A) (A) (A) (A) (A) (A) (A)
                 (A) (A) (A) (A) (A) (A) (A) (A) (A) (A) (A) (A)
                 (A) (A)
       Virtual   (A) (A) (A) (A) (A) (A) (A) (A) (A) (A) (A) (A)
                 (A) (A) (A) (A) (A) (A) (A) (A) (A) (A) (A) (A)
                 (A) (A) (A) (A) (A) (A) (A) (A) (A) (A) (A) (A)
                 (A) (A) (A) (A) (A) (A) (A) (A) (A) (A) (A) (A)
                 (A) (A) (A) (A) (A) (A) (A) (A) (A) (A) (A) (A)
                 (A) (A) (A) (A) (A) (A) (A) (A) (A) (A) (A) (A)
                 (A) (A) (A) (A) (A) (A) (A) (A) (A) (A) (A) (A)
                 (A) (A) (A) (A) (A) (A) (A) (A) (A) (A) (A) (A)
                 (A) (A) (A) (A) (A) (A) (A) (A) (A) (A) (A) (A)
                 (A) (A) (A) (A) (A) (A) (A) (A) (A) (A) (A) (A)
                 (A) (A) (A) (A) (A) (A) (A) (A) (A) (A) (A) (A)
                 (A) (A) (A) (A) (A) (A) (A) (A) (A) (A) (A) (A)
                 (A) (A) (A) (A) (A) (A) (A) (A) (A) (A) (A) (A)
                 (A) (A) (A) (A) (A) (A) (A) (A) (A) (A) (A) (A)
                 (A) (A) (A) (A)
 The electronic state is 2-A.
 Alpha  occ. eigenvalues --  -38.44399 -38.44365 -38.44024 -38.43792 -38.43708
 Alpha  occ. eigenvalues --  -38.43515 -38.43492  -2.20239  -2.20235  -2.19924
 Alpha  occ. eigenvalues --   -2.19645  -2.19563  -2.19404  -2.19337  -1.13921
 Alpha  occ. eigenvalues --   -1.13918  -1.13915  -1.13886  -1.13885  -1.13881
 Alpha  occ. eigenvalues --   -1.13629  -1.13611  -1.13572  -1.13339  -1.13329
 Alpha  occ. eigenvalues --   -1.13270  -1.13216  -1.13195  -1.13169  -1.13072
 Alpha  occ. eigenvalues --   -1.13047  -1.13026  -1.12994  -1.12982  -1.12964
 Alpha  occ. eigenvalues --   -0.17553  -0.14160  -0.12844  -0.10227
 Alpha virt. eigenvalues --   -0.06201  -0.05290  -0.05023  -0.03752  -0.02464
 Alpha virt. eigenvalues --   -0.02170  -0.01978  -0.01295  -0.01049  -0.00367
 Alpha virt. eigenvalues --   -0.00169   0.00197   0.00406   0.00550   0.00702
 Alpha virt. eigenvalues --    0.00789   0.00798   0.01058   0.01143   0.01232
 Alpha virt. eigenvalues --    0.01435   0.01528   0.01658   0.01868   0.01999
 Alpha virt. eigenvalues --    0.02153   0.02301   0.02442   0.02539   0.02565
 Alpha virt. eigenvalues --    0.02780   0.02872   0.02972   0.03012   0.03075
 Alpha virt. eigenvalues --    0.03182   0.03273   0.03308   0.03425   0.03525
 Alpha virt. eigenvalues --    0.03846   0.04115   0.04272   0.04308   0.04564
 Alpha virt. eigenvalues --    0.04726   0.05019   0.05091   0.05571   0.05819
 Alpha virt. eigenvalues --    0.06022   0.06429   0.06709   0.06949   0.07138
 Alpha virt. eigenvalues --    0.07703   0.07858   0.08021   0.08433   0.08587
 Alpha virt. eigenvalues --    0.09251   0.09806   0.10001   0.10454   0.10632
 Alpha virt. eigenvalues --    0.10951   0.11511   0.11715   0.11876   0.12769
 Alpha virt. eigenvalues --    0.12913   0.13517   0.13634   0.13931   0.14156
 Alpha virt. eigenvalues --    0.14769   0.15018   0.15796   0.17547   0.18213
 Alpha virt. eigenvalues --    0.25843   0.26752   0.28043   0.28868   0.29354
 Alpha virt. eigenvalues --    0.30211   0.30764   0.31145   0.32134   0.33235
 Alpha virt. eigenvalues --    0.33794   0.34992   0.36042   0.36182   0.37689
 Alpha virt. eigenvalues --    0.38046   0.39028   0.39752   0.39944   0.40923
 Alpha virt. eigenvalues --    0.41262   0.42020   0.42937   0.43607   0.44169
 Alpha virt. eigenvalues --    0.44395   0.44440   0.44632   0.45104   0.45445
 Alpha virt. eigenvalues --    0.45593   0.45742   0.46172   0.46317   0.47014
 Alpha virt. eigenvalues --    0.48281   0.48504   0.49157   0.49517   0.49726
 Alpha virt. eigenvalues --    0.50824   0.51321   0.51686   0.53028   0.53330
 Alpha virt. eigenvalues --    0.54330   0.55441   0.56389   0.57618   0.59228
 Alpha virt. eigenvalues --    0.61289   0.61385   0.63224   0.68523   0.72426
 Alpha virt. eigenvalues --    0.74708   2.04071   2.10273   2.13982   2.16160
 Alpha virt. eigenvalues --    2.19024   2.20047   2.22532   4.42077   4.43120
 Alpha virt. eigenvalues --    4.43511   4.43789   4.44077   4.44991   4.45739
 Alpha virt. eigenvalues --    4.46102   4.46413   4.46963   4.47477   4.48472
 Alpha virt. eigenvalues --    4.49074   4.49524   4.50673   4.52340   4.52512
 Alpha virt. eigenvalues --    4.55597   4.61328   4.64200   4.68176  96.23695
 Alpha virt. eigenvalues --   96.31325  96.35797  96.38545  96.41690  96.43546
 Alpha virt. eigenvalues --   96.46350
  Beta  occ. eigenvalues --  -38.44375 -38.44360 -38.44012 -38.43760 -38.43614
  Beta  occ. eigenvalues --  -38.43516 -38.43479  -2.20228  -2.20199  -2.19908
  Beta  occ. eigenvalues --   -2.19588  -2.19406  -2.19387  -2.19313  -1.13913
  Beta  occ. eigenvalues --   -1.13906  -1.13894  -1.13882  -1.13862  -1.13817
  Beta  occ. eigenvalues --   -1.13620  -1.13574  -1.13556  -1.13302  -1.13289
  Beta  occ. eigenvalues --   -1.13219  -1.13094  -1.13075  -1.13073  -1.13058
  Beta  occ. eigenvalues --   -1.13045  -1.13024  -1.12974  -1.12965  -1.12948
  Beta  occ. eigenvalues --   -0.17081  -0.13738  -0.12703
  Beta virt. eigenvalues --   -0.06450  -0.06044  -0.05082  -0.04801  -0.03330
  Beta virt. eigenvalues --   -0.02137  -0.01985  -0.01360  -0.01178  -0.00957
  Beta virt. eigenvalues --   -0.00071   0.00103   0.00320   0.00724   0.00762
  Beta virt. eigenvalues --    0.00800   0.00838   0.00904   0.01108   0.01262
  Beta virt. eigenvalues --    0.01311   0.01542   0.01610   0.01826   0.01904
  Beta virt. eigenvalues --    0.02045   0.02345   0.02403   0.02488   0.02568
  Beta virt. eigenvalues --    0.02796   0.02864   0.02964   0.03039   0.03090
  Beta virt. eigenvalues --    0.03135   0.03213   0.03312   0.03334   0.03479
  Beta virt. eigenvalues --    0.03587   0.04013   0.04220   0.04361   0.04402
  Beta virt. eigenvalues --    0.04679   0.04815   0.05076   0.05221   0.05741
  Beta virt. eigenvalues --    0.05963   0.06148   0.06481   0.06754   0.07043
  Beta virt. eigenvalues --    0.07245   0.07845   0.07866   0.08250   0.08572
  Beta virt. eigenvalues --    0.08832   0.09577   0.09840   0.10103   0.10485
  Beta virt. eigenvalues --    0.10786   0.11113   0.11588   0.11998   0.12138
  Beta virt. eigenvalues --    0.12961   0.13231   0.13595   0.13899   0.14157
  Beta virt. eigenvalues --    0.14316   0.14883   0.15257   0.16095   0.17710
  Beta virt. eigenvalues --    0.18266   0.26048   0.26961   0.28168   0.29189
  Beta virt. eigenvalues --    0.29683   0.30480   0.31020   0.31517   0.32442
  Beta virt. eigenvalues --    0.33342   0.33910   0.35199   0.36331   0.36478
  Beta virt. eigenvalues --    0.37767   0.38293   0.39142   0.40165   0.40271
  Beta virt. eigenvalues --    0.41137   0.41551   0.42243   0.43192   0.43759
  Beta virt. eigenvalues --    0.44351   0.44470   0.44602   0.44878   0.45289
  Beta virt. eigenvalues --    0.45585   0.45644   0.45855   0.46306   0.46504
  Beta virt. eigenvalues --    0.47128   0.48470   0.48695   0.49330   0.49616
  Beta virt. eigenvalues --    0.49861   0.50957   0.51399   0.51787   0.53117
  Beta virt. eigenvalues --    0.53500   0.54443   0.55566   0.56540   0.57711
  Beta virt. eigenvalues --    0.59242   0.61535   0.61613   0.63444   0.68691
  Beta virt. eigenvalues --    0.72419   0.74699   2.04168   2.10444   2.14014
  Beta virt. eigenvalues --    2.16398   2.19113   2.20105   2.22569   4.42090
  Beta virt. eigenvalues --    4.43144   4.43584   4.43852   4.44122   4.45030
  Beta virt. eigenvalues --    4.45762   4.46172   4.46461   4.46994   4.47502
  Beta virt. eigenvalues --    4.48498   4.49132   4.49578   4.50699   4.52373
  Beta virt. eigenvalues --    4.52577   4.55677   4.61365   4.64203   4.68180
  Beta virt. eigenvalues --   96.23729  96.31385  96.35811  96.38616  96.41720
  Beta virt. eigenvalues --   96.43564  96.46364
          Condensed to atoms (all electrons):
               1          2          3          4          5          6
     1  Na  11.436004   0.357838   0.082822  -0.126353  -0.020185   0.000218
     2  Na   0.357838  11.838044   0.747311   0.040861   0.084819  -0.883997
     3  Na   0.082822   0.747311  12.327377  -0.535192   0.070787  -0.471774
     4  Na  -0.126353   0.040861  -0.535192  10.972299  -0.022839  -0.108484
     5  Na  -0.020185   0.084819   0.070787  -0.022839  10.976998  -0.088112
     6  Na   0.000218  -0.883997  -0.471774  -0.108484  -0.088112  11.368521
     7  Na  -0.221427  -0.465581  -0.146711   0.040994  -0.062905   0.366984
               7
     1  Na  -0.221427
     2  Na  -0.465581
     3  Na  -0.146711
     4  Na   0.040994
     5  Na  -0.062905
     6  Na   0.366984
     7  Na  10.802610
          Atomic-Atomic Spin Densities.
               1          2          3          4          5          6
     1  Na   0.221148   0.012430   0.028153   0.052008  -0.171951  -0.024315
     2  Na   0.012430   0.036364   0.075835  -0.001598  -0.035194  -0.064220
     3  Na   0.028153   0.075835   0.456809  -0.184743   0.118488  -0.029875
     4  Na   0.052008  -0.001598  -0.184743   0.193524  -0.018977  -0.039626
     5  Na  -0.171951  -0.035194   0.118488  -0.018977   0.399859   0.023700
     6  Na  -0.024315  -0.064220  -0.029875  -0.039626   0.023700   0.082290
     7  Na   0.017502  -0.017116  -0.062262   0.016639   0.032763   0.052055
               7
     1  Na   0.017502
     2  Na  -0.017116
     3  Na  -0.062262
     4  Na   0.016639
     5  Na   0.032763
     6  Na   0.052055
     7  Na   0.050616
 Mulliken charges and spin densities:
               1          2
     1  Na  -0.508917   0.134974
     2  Na  -0.719295   0.006501
     3  Na  -1.074620   0.402405
     4  Na   0.738714   0.017227
     5  Na   0.061438   0.348687
     6  Na   0.816645   0.000010
     7  Na   0.686037   0.090197
 Sum of Mulliken charges =  -0.00000   1.00000
 Mulliken charges and spin densities with hydrogens summed into heavy atoms:
               1          2
     1  Na  -0.508917   0.134974
     2  Na  -0.719295   0.006501
     3  Na  -1.074620   0.402405
     4  Na   0.738714   0.017227
     5  Na   0.061438   0.348687
     6  Na   0.816645   0.000010
     7  Na   0.686037   0.090197
 Electronic spatial extent (au):  <R**2>=           2949.6381
 Charge=             -0.0000 electrons
 Dipole moment (field-independent basis, Debye):
    X=              0.1633    Y=             -0.1224    Z=             -0.2541  Tot=              0.3259
 Quadrupole moment (field-independent basis, Debye-Ang):
   XX=            -59.1935   YY=            -64.2817   ZZ=            -73.2250
   XY=              3.0219   XZ=              5.3266   YZ=             -2.7046
 Traceless Quadrupole moment (field-independent basis, Debye-Ang):
   XX=              6.3732   YY=              1.2851   ZZ=             -7.6583
   XY=              3.0219   XZ=              5.3266   YZ=             -2.7046
 Octapole moment (field-independent basis, Debye-Ang**2):
  XXX=             -4.0738  YYY=             12.4582  ZZZ=             -0.1593  XYY=             21.4148
  XXY=            -14.4037  XXZ=            -18.3715  XZZ=             -2.9258  YZZ=             -4.4654
  YYZ=              1.3601  XYZ=             -4.3873
 Hexadecapole moment (field-independent basis, Debye-Ang**3):
 XXXX=          -2366.0002 YYYY=          -1656.1245 ZZZZ=           -770.9719 XXXY=             74.8453
 XXXZ=            142.1412 YYYX=              8.0569 YYYZ=            -44.4679 ZZZX=             22.7365
 ZZZY=            -20.6769 XXYY=           -678.4596 XXZZ=           -528.9921 YYZZ=           -435.9929
 XXYZ=            -21.7396 YYXZ=             35.5264 ZZXY=              4.6591
 N-N= 3.125014135302D+02 E-N=-3.354352183535D+03  KE= 1.132958881398D+03
                          Isotropic Fermi Contact Couplings
        Atom                 a.u.       MegaHertz       Gauss      10(-4) cm-1
     1  Na(23)             0.10166     120.26659      42.91411      40.11662
     2  Na(23)             0.00725       8.57415       3.05947       2.86003
     3  Na(23)            -0.00670      -7.93146      -2.83014      -2.64565
     4  Na(23)             0.04762      56.33526      20.10182      18.79142
     5  Na(23)             0.41095     486.17120     173.47797     162.16926
     6  Na(23)            -0.00550      -6.50332      -2.32055      -2.16928
     7  Na(23)             0.05372      63.55770      22.67897      21.20057
 --------------------------------------------------------
       Center         ----  Spin Dipole Couplings  ----
                      3XX-RR        3YY-RR        3ZZ-RR
 --------------------------------------------------------
     1   Atom        0.006836     -0.010407      0.003571
     2   Atom        0.000578     -0.002822      0.002244
     3   Atom       -0.017452     -0.017131      0.034582
     4   Atom        0.005606     -0.018184      0.012578
     5   Atom        0.001513      0.005990     -0.007503
     6   Atom       -0.000891     -0.000965      0.001856
     7   Atom       -0.001883      0.002794     -0.000911
 --------------------------------------------------------
                        XY            XZ            YZ
 --------------------------------------------------------
     1   Atom       -0.007443      0.021097     -0.007931
     2   Atom       -0.007001      0.005858     -0.008155
     3   Atom       -0.006580     -0.022625      0.013089
     4   Atom       -0.012874     -0.030555      0.011426
     5   Atom       -0.000285      0.000354      0.002358
     6   Atom        0.002658      0.001201      0.001651
     7   Atom        0.003142     -0.000707      0.002886
 --------------------------------------------------------


 ---------------------------------------------------------------------------------
              Anisotropic Spin Dipole Couplings in Principal Axis System
 ---------------------------------------------------------------------------------

       Atom             a.u.   MegaHertz   Gauss  10(-4) cm-1        Axes

              Baa    -0.0162    -2.281    -0.814    -0.761 -0.6101  0.2482  0.7524
     1 Na(23) Bbb    -0.0132    -1.860    -0.664    -0.621  0.3617  0.9322 -0.0142
              Bcc     0.0293     4.141     1.478     1.381  0.7049 -0.2635  0.6585
 
              Baa    -0.0096    -1.360    -0.485    -0.454  0.3437  0.8447  0.4104
     2 Na(23) Bbb    -0.0045    -0.636    -0.227    -0.212  0.7594  0.0071 -0.6505
              Bcc     0.0141     1.997     0.712     0.666  0.5524 -0.5352  0.6390
 
              Baa    -0.0263    -3.717    -1.326    -1.240  0.9241  0.2490  0.2898
     3 Na(23) Bbb    -0.0201    -2.834    -1.011    -0.945 -0.1620  0.9423 -0.2928
              Bcc     0.0464     6.550     2.337     2.185 -0.3460  0.2236  0.9112
 
              Baa    -0.0243    -3.427    -1.223    -1.143  0.5815  0.7769  0.2413
     4 Na(23) Bbb    -0.0202    -2.858    -1.020    -0.953  0.4916 -0.5719  0.6568
              Bcc     0.0445     6.286     2.243     2.097 -0.6482  0.2633  0.7145
 
              Baa    -0.0079    -1.118    -0.399    -0.373 -0.0420 -0.1678  0.9849
     5 Na(23) Bbb     0.0015     0.215     0.077     0.072  0.9981  0.0378  0.0491
              Bcc     0.0064     0.904     0.323     0.302 -0.0455  0.9851  0.1659
 
              Baa    -0.0036    -0.510    -0.182    -0.170 -0.6813  0.7286 -0.0704
     6 Na(23) Bbb    -0.0002    -0.029    -0.010    -0.010 -0.5598 -0.4567  0.6915
              Bcc     0.0038     0.539     0.192     0.180  0.4717  0.5105  0.7190
 
              Baa    -0.0046    -0.655    -0.234    -0.218  0.6982 -0.4958  0.5165
     7 Na(23) Bbb    -0.0006    -0.088    -0.031    -0.029 -0.6277 -0.0769  0.7746
              Bcc     0.0053     0.743     0.265     0.248  0.3443  0.8650  0.3649
 

 ---------------------------------------------------------------------------------

 No NMR shielding tensors so no spin-rotation constants.
 Leave Link  601 at Tue Nov 28 23:36:14 2023, MaxMem=  1879048192 cpu:               2.3 elap:               0.2
 (Enter /home/sekinelabo/g16/l701.exe)
 ... and contract with generalized density number  0.
 Compute integral first derivatives.
 Leave Link  701 at Tue Nov 28 23:36:14 2023, MaxMem=  1879048192 cpu:               1.5 elap:               0.1
 (Enter /home/sekinelabo/g16/l702.exe)
 L702 exits ... SP integral derivatives will be done elsewhere.
 Leave Link  702 at Tue Nov 28 23:36:14 2023, MaxMem=  1879048192 cpu:               0.4 elap:               0.0
 (Enter /home/sekinelabo/g16/l703.exe)
 Integral derivatives from FoFJK, PRISM(SPDF).
 Compute integral first derivatives, UseDBF=F ICtDFT=           0.
 Calling FoFJK, ICntrl=      2127 FMM=F ISym2X=0 I1Cent= 0 IOpClX= 1 NMat=1 NMatS=1 NMatT=0.
 FoFJK:  IHMeth= 1 ICntrl=    2127 DoSepK=F KAlg= 0 I1Cent=           0 FoldK=F
 IRaf=         0 NMat=       1 IRICut=       1 DoRegI=T DoRafI=F ISym2E= 0 IDoP0=0 IntGTp=1.
 FoFCou: FMM=F IPFlag=           0 FMFlag=      100000 FMFlg1=         800
         NFxFlg=           0 DoJE=F BraDBF=F KetDBF=F FulRan=T
         wScrn=  0.000000 ICntrl=      2127 IOpCl=  1 I1Cent=           0 NGrid=           0
         NMat0=    1 NMatS0=      1 NMatT0=    0 NMatD0=    1 NMtDS0=    0 NMtDT0=    0
 Symmetry not used in FoFCou.
 Leave Link  703 at Tue Nov 28 23:36:16 2023, MaxMem=  1879048192 cpu:              31.3 elap:               2.1
 (Enter /home/sekinelabo/g16/l716.exe)
 Dipole        = 6.42514771D-02-4.81503402D-02-9.99586109D-02
 ***** Axes restored to original set *****
 -------------------------------------------------------------------
 Center     Atomic                   Forces (Hartrees/Bohr)
 Number     Number              X              Y              Z
 -------------------------------------------------------------------
      1       11          -0.000108196   -0.003725595    0.000031142
      2       11          -0.003916666    0.002099175    0.003280840
      3       11          -0.002895613   -0.000454314    0.002224746
      4       11           0.001702839    0.001909946    0.001198866
      5       11          -0.001192339    0.000415418   -0.001811227
      6       11           0.006392618   -0.003119130   -0.004773070
      7       11           0.000017358    0.002874499   -0.000151298
 -------------------------------------------------------------------
 Cartesian Forces:  Max     0.006392618 RMS     0.002694494
 Z-matrix is all fixed cartesians, so copy forces.
 Force constants in Cartesian coordinates: 
                1             2             3             4             5 
      1  0.604330D-01
      2  0.611270D-02  0.802078D-01
      3 -0.597751D-02 -0.145389D-02  0.857535D-01
      4 -0.148640D-01 -0.431993D-02 -0.896791D-03  0.886292D-01
      5 -0.212444D-02 -0.183288D-01 -0.408968D-02  0.107234D-01  0.915549D-01
      6  0.908163D-02  0.251775D-02 -0.165103D-01 -0.147317D-01  0.134639D-01
      7 -0.203209D-01  0.698047D-04  0.184505D-02 -0.185477D-01 -0.197754D-02
      8 -0.174704D-02 -0.186618D-01  0.322191D-02  0.418856D-02 -0.205249D-01
      9  0.281456D-02 -0.483616D-02 -0.208340D-01  0.327583D-03  0.164493D-02
     10 -0.123935D-01  0.227845D-02  0.281883D-02  0.127037D-02 -0.361195D-02
     11 -0.488444D-02 -0.196253D-01  0.116320D-01 -0.332344D-02  0.163860D-02
     12 -0.688744D-02 -0.890748D-02 -0.215508D-01  0.137844D-03  0.291265D-02
     13  0.599225D-03  0.561613D-03 -0.176455D-02 -0.190209D-03  0.110152D-03
     14 -0.464690D-02  0.140134D-02 -0.601124D-02 -0.479550D-02  0.244086D-02
     15 -0.464115D-02  0.257555D-03 -0.293532D-02 -0.839774D-04 -0.193781D-05
     16  0.674964D-03  0.289572D-02  0.296577D-02 -0.292313D-01 -0.117525D-01
     17  0.252841D-02  0.640771D-02  0.877655D-05  0.885598D-02 -0.357760D-01
     18  0.577038D-02 -0.143287D-02  0.418128D-03  0.117553D-01 -0.425574D-02
     19 -0.141288D-01 -0.759836D-02  0.100920D-02 -0.270663D-01  0.863289D-02
     20  0.476171D-02 -0.314009D-01 -0.330783D-02 -0.113290D-01 -0.210046D-01
     21 -0.160456D-03  0.138551D-01 -0.243412D-01  0.349174D-02 -0.967415D-02
                6             7             8             9            10 
      6  0.556982D-01
      7 -0.291363D-02  0.117420D+00
      8 -0.277275D-02  0.611037D-03  0.108231D+00
      9 -0.150363D-01 -0.837380D-03  0.147222D-02  0.113792D+00
     10  0.177395D-03 -0.225150D-01 -0.112012D-01  0.458080D-02  0.354080D-01
     11  0.322833D-02  0.530404D-02 -0.187765D-01 -0.903475D-02  0.948498D-02
     12  0.574821D-02 -0.138077D-03  0.434965D-02 -0.292929D-01 -0.238161D-02
     13 -0.162139D-03 -0.247282D-01  0.264653D-02 -0.958816D-02 -0.683848D-02
     14 -0.145609D-02  0.777938D-02 -0.191965D-01  0.592645D-02  0.378587D-02
     15  0.296355D-03  0.543788D-02  0.352247D-02 -0.170268D-01 -0.122829D-01
     16  0.340845D-02 -0.357758D-01  0.528020D-02  0.436895D-02  0.223550D-02
     17 -0.163315D-01 -0.149799D-01 -0.284923D-01  0.599057D-02 -0.876266D-03
     18 -0.187838D-01 -0.352232D-02 -0.465323D-02 -0.360627D-01  0.469427D-02
     19  0.513996D-02  0.446713D-02  0.221963D-03 -0.166635D-02  0.283308D-02
     20  0.135034D-02  0.319319D-02 -0.257846D-02 -0.116326D-02  0.140162D-03
     21 -0.114124D-01  0.128472D-03 -0.514028D-02  0.446087D-02  0.239327D-02
               11            12            13            14            15 
     11  0.430497D-01
     12 -0.122626D-01  0.546006D-01
     13 -0.424596D-02  0.387451D-02  0.320564D-01
     14 -0.894716D-02  0.128208D-01  0.256623D-03  0.211810D-01
     15  0.689506D-02 -0.206594D-01  0.884981D-02 -0.866998D-02  0.358630D-01
     16 -0.660558D-03  0.223596D-02 -0.790990D-03 -0.236646D-02  0.266847D-02
     17  0.283278D-02  0.416370D-03  0.646123D-03  0.312850D-02 -0.200844D-02
     18  0.137029D-02  0.608237D-02 -0.128731D-02 -0.256637D-02  0.452700D-02
     19 -0.167463D-02  0.315882D-02 -0.107815D-03 -0.130177D-04  0.519135D-04
     20 -0.172152D-03  0.670681D-03  0.249179D-04 -0.805310D-05  0.527454D-05
     21 -0.182824D-02  0.507188D-02  0.778370D-04 -0.435475D-04 -0.649120D-04
               16            17            18            19            20 
     16  0.578493D-01
     17  0.226279D-02  0.497227D-01
     18 -0.182871D-01  0.120943D-01  0.418371D-01
     19  0.503826D-02  0.156287D-02  0.876836D-03  0.289645D-01
     20  0.434079D-02  0.217658D-02 -0.556355D-03 -0.113172D-02  0.529877D-01
     21  0.263953D-02 -0.170020D-03  0.198192D-02 -0.857038D-02  0.300114D-02
               21 
     21  0.243038D-01
 Leave Link  716 at Tue Nov 28 23:36:16 2023, MaxMem=  1879048192 cpu:               0.4 elap:               0.0
 (Enter /home/sekinelabo/g16/l103.exe)

 GradGradGradGradGradGradGradGradGradGradGradGradGradGradGradGradGradGrad
 Berny optimization.
 Search for a local minimum.
 Step number   1 out of a maximum of    2
 All quantities printed in internal units (Hartrees-Bohrs-Radians)
 Second derivative matrix not updated -- first step.
 ITU=  0
     Eigenvalues ---    0.01523   0.02813   0.03729   0.04127   0.04699
     Eigenvalues ---    0.05371   0.06259   0.07736   0.10167   0.11316
     Eigenvalues ---    0.12704   0.13015   0.13639   0.14551   0.15415
 Angle between quadratic step and forces=  27.91 degrees.
 Linear search not attempted -- first point.
 B after Tr=     0.000000    0.000000   -0.000000
         Rot=    1.000000   -0.000000    0.000000   -0.000000 Ang=   0.00 deg.
 Variable       Old X    -DE/DX   Delta X   Delta X   Delta X     New X
                                 (Linear)    (Quad)   (Total)
    X1       27.71756  -0.00011   0.00000  -0.00492  -0.00492  27.71264
    Y1       30.22315  -0.00373   0.00000  -0.03149  -0.03149  30.19166
    Z1       32.69188   0.00003   0.00000   0.01015   0.01015  32.70203
    X2       33.01900  -0.00392   0.00000  -0.01412  -0.01412  33.00487
    Y2       32.61100   0.00210   0.00000   0.01485   0.01485  32.62585
    Z2       28.42318   0.00328   0.00000   0.02268   0.02268  28.44586
    X3       29.91871  -0.00290   0.00000  -0.01291  -0.01291  29.90580
    Y3       25.96200  -0.00045   0.00000  -0.01254  -0.01254  25.94947
    Z3       27.48985   0.00222   0.00000   0.00513   0.00513  27.49498
    X4       25.19345   0.00170   0.00000   0.01825   0.01825  25.21170
    Y4       23.89691   0.00191   0.00000   0.03018   0.03018  23.92709
    Z4       31.60057   0.00120   0.00000   0.02327   0.02327  31.62384
    X5       23.72135  -0.00119   0.00000  -0.03300  -0.03300  23.68835
    Y5       26.19557   0.00042   0.00000   0.01018   0.01018  26.20575
    Z5       25.85996  -0.00181   0.00000  -0.02136  -0.02136  25.83859
    X6       34.90627   0.00639   0.00000   0.08286   0.08286  34.98912
    Y6       28.10174  -0.00312   0.00000  -0.04259  -0.04259  28.05914
    Z6       25.49921  -0.00477   0.00000  -0.05387  -0.05387  25.44534
    X7       28.52863   0.00002   0.00000  -0.03616  -0.03616  28.49247
    Y7       36.01421   0.00287   0.00000   0.03142   0.03142  36.04563
    Z7       31.44013  -0.00015   0.00000   0.01399   0.01399  31.45412
         Item               Value     Threshold  Converged?
 Maximum Force            0.006393     0.000450     NO 
 RMS     Force            0.002694     0.000300     NO 
 Maximum Displacement     0.082855     0.001800     NO 
 RMS     Displacement     0.030791     0.001200     NO 
 Predicted change in Energy=-7.698295D-04
 GradGradGradGradGradGradGradGradGradGradGradGradGradGradGradGradGradGrad

 Leave Link  103 at Tue Nov 28 23:36:16 2023, MaxMem=  1879048192 cpu:               0.2 elap:               0.0
 (Enter /home/sekinelabo/g16/l9999.exe)
 1\1\GINC-SEKINELABO-XA7R-R37\Force\UB3LYP\6-311+G(d)\Na7(2)\SEKINELABO
 \28-Nov-2023\0\\#P B3LYP/6-311+g(d) force\\DPGEN\\0,2\Na,14.6675,15.99
 34,17.2998\Na,17.4729,17.257,15.0409\Na,15.8323,13.7385,14.547\Na,13.3
 318,12.6457,16.7223\Na,12.5528,13.8621,13.6845\Na,18.4716,14.8708,13.4
 936\Na,15.0967,19.0579,16.6374\\Version=ES64L-G16RevB.01\State=2-A\HF=
 -1136.1259541\S2=0.766857\S2-1=0.\S2A=0.750134\RMSD=5.207e-09\RMSF=2.6
 94e-03\Dipole=0.0581714,0.0311567,0.1099262\Quadrupole=1.5918892,3.716
 6011,-5.3084903,2.1754696,-4.858853,-1.4355693\PG=C01 [X(Na7)]\\@


 SILVERMAN'S PARADOX - IF MURPHY'S LAW CAN GO WRONG, IT WILL.
 Job cpu time:       0 days  0 hours  3 minutes 49.2 seconds.
 Elapsed time:       0 days  0 hours  0 minutes 19.7 seconds.
 File lengths (MBytes):  RWF=     32 Int=      0 D2E=      0 Chk=      4 Scr=      1
 Normal termination of Gaussian 16 at Tue Nov 28 23:36:16 2023.
