
7 atoms
1 atom types
   0.0000000000   24.3172617728 xlo xhi
   0.0000000000   24.3172617728 ylo yhi
   0.0000000000   24.3172617728 zlo zhi
   0.0000000000    0.0000000000    0.0000000000 xy xz yz

Atoms # atomic

     1      1   12.4173003150   11.5481616007   13.4692791721
     2      1   12.7205613150   11.6683456007   10.4811011721
     3      1   15.0334723150   10.8505936007   12.1943281721
     4      1   14.0851193150   13.6894446007   12.2175971721
     5      1   11.2533103150   14.2803026007   13.0104061721
     6      1    9.9044343150   12.6534506007   10.8687711721
     7      1    9.6962183150   10.4201176007   12.8689331721
