
7 atoms
1 atom types
   0.0000000000   25.5625540691 xlo xhi
   0.0000000000   25.5625540691 ylo yhi
   0.0000000000   25.5625540691 zlo zhi
   0.0000000000    0.0000000000    0.0000000000 xy xz yz

Atoms # atomic

     1      1   11.4314141774   13.2968213203   14.4001861774
     2      1   11.5450111774   14.6340453203   11.7245511774
     3      1    9.4677951774   12.5395593203   12.2652971774
     4      1   11.6539101774   10.6418003203   13.0425031774
     5      1   15.8914761774   10.6701053203   12.3718001774
     6      1   13.7386211774   12.7544573203   12.5638691774
     7      1   15.7407111774   14.9321503203   13.1007321774
