
7 atoms
1 atom types
   0.0000000000   23.4792659210 xlo xhi
   0.0000000000   23.4792659210 ylo yhi
   0.0000000000   23.4792659210 zlo zhi
   0.0000000000    0.0000000000    0.0000000000 xy xz yz

Atoms # atomic

     1      1    9.2353253891   10.9176029605   11.4251351034
     2      1   11.6315613891   11.6186899605   13.4115591034
     3      1   11.7649883891    9.2189039605   11.8060751034
     4      1   14.3341043891   10.8667669605   11.6282251034
     5      1   13.3451133891   13.7640519605   11.6669861034
     6      1   11.5856563891   12.0308279605   10.1980331034
     7      1   10.2806813891   13.7605869605   12.0414171034
