
7 atoms
1 atom types
   0.0000000000   25.4611768849 xlo xhi
   0.0000000000   25.4611768849 ylo yhi
   0.0000000000   25.4611768849 zlo zhi
   0.0000000000    0.0000000000    0.0000000000 xy xz yz

Atoms # atomic

     1      1   12.3792987282   13.0589751567   12.0766790139
     2      1   10.8928617282   14.8750311567   13.9493560139
     3      1    9.3974737282   12.8849191567   12.2847230139
     4      1   11.0696247282   10.4346901567   12.7121560139
     5      1   14.0422927282   10.7146091567   12.9566050139
     6      1   16.4035077282   12.5256461567   13.3510340139
     7      1   14.9290597282   14.6202481567   11.7835660139
