
7 atoms
1 atom types
   0.0000000000   31.1896273607 xlo xhi
   0.0000000000   31.1896273607 ylo yhi
   0.0000000000   31.1896273607 zlo zhi
   0.0000000000    0.0000000000    0.0000000000 xy xz yz

Atoms # atomic

     1      1   11.0668309660   15.4997728232   15.8879541089
     2      1   12.6051109660   12.9538478232   15.4805311089
     3      1   12.4005179660   18.0619618232   15.0768941089
     4      1   14.0404339660   15.5887578232   15.5228531089
     5      1   17.0127309660   15.7727478232   15.8790621089
     6      1   19.9151209660   16.2017688232   16.5057621089
     7      1   22.1229499660   15.0848388232   14.8106391089
