
7 atoms
1 atom types
   0.0000000000   25.5820243166 xlo xhi
   0.0000000000   25.5820243166 ylo yhi
   0.0000000000   25.5820243166 zlo zhi
   0.0000000000    0.0000000000    0.0000000000 xy xz yz

Atoms # atomic

     1      1   14.4996855869   14.4215115869   11.9671733012
     2      1   11.9914545869   11.2023445869   15.0099633012
     3      1   16.4169165869   12.7053305869   13.4952043012
     4      1   14.5444005869   11.4733415869   11.5058693012
     5      1    9.3845445869   11.6812685869   11.5515683012
     6      1   12.0215645869   12.7947795869   12.4620243012
     7      1   10.6785185869   15.2585085869   13.5452823012
