
7 atoms
1 atom types
   0.0000000000   24.6433502206 xlo xhi
   0.0000000000   24.6433502206 ylo yhi
   0.0000000000   24.6433502206 zlo zhi
   0.0000000000    0.0000000000    0.0000000000 xy xz yz

Atoms # atomic

     1      1   12.8138805389   11.1985022532   11.4532109674
     2      1   11.6057195389   13.5953242532   10.6265589674
     3      1   10.0157775389   11.1117192532   11.6515989674
     4      1   11.9289275389   11.1882512532   14.1210389674
     5      1   10.7445375389   13.5959552532   13.2994369674
     6      1   13.5419315389   13.6685192532   13.0888479674
     7      1   15.6009515389   11.8934542532   12.0110329674
