1.082479999999999976e+01 1.218120000000000047e+01 1.381160000000000032e+01 1.280170000000000030e+01 1.533600000000000030e+01 1.159810000000000052e+01 1.344589999999999996e+01 1.113679999999999914e+01 1.103659999999999997e+01 1.545199999999999996e+01 1.352870000000000061e+01 1.200270000000000081e+01 1.382789999999999964e+01 1.074900000000000055e+01 1.420860000000000056e+01 1.037720000000000020e+01 9.978400000000000603e+00 1.238269999999999982e+01 9.458610000000000184e+00 1.327810000000000024e+01 1.114770000000000039e+01
1.163669999999999938e+01 1.360640000000000072e+01 1.177650000000000041e+01 1.213749999999999929e+01 1.348840000000000039e+01 1.532029999999999959e+01 1.474119999999999919e+01 1.483089999999999975e+01 1.283709999999999951e+01 1.429049999999999976e+01 1.325339999999999918e+01 9.842079999999999274e+00 1.372749999999999915e+01 1.131959999999999944e+01 1.276079999999999970e+01 9.899440000000000239e+00 1.135590000000000011e+01 1.389179999999999993e+01 1.152040000000000042e+01 1.009869999999999912e+01 1.152480000000000082e+01
1.199590000000000067e+01 1.182970000000000077e+01 1.266019999999999968e+01 8.532299999999999329e+00 1.326110000000000078e+01 1.284370000000000012e+01 1.095359999999999978e+01 1.540029999999999966e+01 1.099779999999999980e+01 1.460019999999999918e+01 1.471369999999999933e+01 1.239739999999999931e+01 1.575539999999999985e+01 1.118979999999999997e+01 1.247180000000000000e+01 1.308140000000000036e+01 8.448190000000000310e+00 1.132399999999999984e+01 9.288679999999999382e+00 9.364819999999999922e+00 1.151260000000000083e+01
1.396209999999999951e+01 1.398189999999999955e+01 1.139179999999999993e+01 1.456010000000000026e+01 1.424959999999999916e+01 1.434800000000000075e+01 1.144699999999999918e+01 9.895070000000000476e+00 1.297560000000000002e+01 1.364939999999999998e+01 1.159900000000000020e+01 1.322049999999999947e+01 1.592149999999999999e+01 1.278240000000000087e+01 1.265530000000000044e+01 1.196080000000000076e+01 1.385219999999999985e+01 1.336200000000000010e+01 9.276960000000000761e+00 1.441769999999999996e+01 1.282460000000000022e+01
1.169829999999999970e+01 1.320309999999999917e+01 1.398509999999999920e+01 1.494699999999999918e+01 1.131450000000000067e+01 1.388219999999999921e+01 1.194780000000000086e+01 1.428090000000000082e+01 1.052159999999999940e+01 1.463010000000000055e+01 1.457510000000000083e+01 1.257390000000000008e+01 1.291740000000000066e+01 1.149959999999999916e+01 1.108680000000000021e+01 1.165399999999999991e+01 9.787599999999999412e+00 1.349169999999999980e+01 9.118579999999999686e+00 1.225220000000000020e+01 1.137180000000000035e+01
1.383140000000000036e+01 1.448279999999999923e+01 1.170480000000000054e+01 1.149050000000000082e+01 1.540959999999999930e+01 1.254550000000000054e+01 1.651940000000000097e+01 1.130519999999999925e+01 1.281569999999999965e+01 1.473300000000000054e+01 1.326149999999999984e+01 1.388339999999999996e+01 1.238369999999999926e+01 1.417709999999999937e+01 1.472339999999999982e+01 1.204039999999999999e+01 1.228999999999999915e+01 1.250040000000000084e+01 1.014179999999999993e+01 1.021400000000000041e+01 1.296710000000000029e+01
1.392159999999999975e+01 1.449430000000000085e+01 1.162689999999999912e+01 1.131680000000000064e+01 1.549269999999999925e+01 1.249520000000000053e+01 1.656149999999999878e+01 1.127459999999999951e+01 1.275639999999999930e+01 1.482770000000000010e+01 1.317559999999999931e+01 1.401520000000000010e+01 1.240620000000000012e+01 1.415820000000000078e+01 1.486100000000000065e+01 1.211449999999999960e+01 1.231639999999999979e+01 1.237589999999999968e+01 9.992129999999999512e+00 1.022850000000000037e+01 1.300970000000000049e+01
1.146739999999999959e+01 1.388809999999999967e+01 1.253700000000000081e+01 1.453550000000000075e+01 1.385089999999999932e+01 1.219020000000000081e+01 1.278989999999999938e+01 1.228030000000000044e+01 1.040339999999999954e+01 1.320209999999999972e+01 1.254369999999999941e+01 1.413579999999999970e+01 1.436059999999999981e+01 1.077810000000000024e+01 1.243159999999999954e+01 1.131489999999999974e+01 1.084849999999999959e+01 1.261340000000000039e+01 9.001569999999999183e+00 1.248249999999999993e+01 1.236059999999999981e+01
1.307029999999999959e+01 1.694999999999999929e+01 1.346720000000000006e+01 1.023220000000000063e+01 1.471180000000000021e+01 1.334619999999999962e+01 1.027710000000000079e+01 1.112819999999999965e+01 1.267340000000000089e+01 1.315509999999999913e+01 1.329519999999999946e+01 1.353200000000000003e+01 1.329989999999999917e+01 9.451259999999999550e+00 1.271560000000000024e+01 1.619059999999999988e+01 1.096529999999999916e+01 1.374970000000000070e+01 1.598409999999999975e+01 1.570739999999999981e+01 1.272509999999999941e+01
1.334200000000000053e+01 1.040760000000000041e+01 1.033660000000000068e+01 1.229410000000000025e+01 1.128739999999999988e+01 1.380659999999999954e+01 9.963609999999999189e+00 1.093989999999999974e+01 1.218750000000000000e+01 9.688990000000000435e+00 1.432770000000000010e+01 1.321359999999999957e+01 1.228389999999999915e+01 1.333019999999999960e+01 1.074789999999999957e+01 1.346030000000000015e+01 1.413410000000000011e+01 1.402100000000000080e+01 1.566329999999999956e+01 1.226929999999999943e+01 1.238289999999999935e+01
1.198479999999999990e+01 1.442530000000000001e+01 1.583479999999999954e+01 1.231809999999999938e+01 1.212079999999999913e+01 1.343490000000000073e+01 9.409179999999999211e+00 1.288540000000000063e+01 1.457910000000000039e+01 1.266600000000000037e+01 1.558619999999999983e+01 1.265639999999999965e+01 1.522979999999999912e+01 1.415049999999999919e+01 1.384680000000000000e+01 1.851350000000000051e+01 1.652479999999999905e+01 1.506300000000000061e+01 1.904500000000000171e+01 1.347339999999999982e+01 1.375150000000000006e+01
1.199019999999999975e+01 1.450060000000000038e+01 1.579470000000000063e+01 1.228940000000000055e+01 1.209810000000000052e+01 1.335999999999999943e+01 9.444240000000000634e+00 1.286420000000000030e+01 1.458380000000000010e+01 1.270659999999999989e+01 1.548119999999999941e+01 1.269689999999999941e+01 1.524810000000000088e+01 1.422719999999999985e+01 1.394919999999999938e+01 1.848649999999999949e+01 1.644170000000000087e+01 1.502200000000000024e+01 1.900150000000000006e+01 1.355339999999999989e+01 1.375990000000000002e+01
1.462030000000000030e+01 1.479369999999999941e+01 1.207719999999999949e+01 1.434830000000000005e+01 1.203020000000000067e+01 1.532830000000000048e+01 1.275060000000000038e+01 1.198460000000000036e+01 1.110030000000000072e+01 1.682389999999999830e+01 1.430649999999999977e+01 1.491070000000000029e+01 1.319609999999999950e+01 1.462850000000000072e+01 1.474329999999999963e+01 1.059130000000000038e+01 1.430659999999999954e+01 1.157249999999999979e+01 1.142169999999999952e+01 1.170219999999999949e+01 1.401980000000000004e+01
1.023520000000000074e+01 9.837899999999999423e+00 1.193650000000000055e+01 1.179110000000000014e+01 1.178810000000000002e+01 1.333460000000000001e+01 1.178999999999999915e+01 1.141150000000000020e+01 1.011769999999999925e+01 1.334430000000000049e+01 9.834289999999999310e+00 1.193609999999999971e+01 1.443040000000000056e+01 1.270270000000000010e+01 1.169120000000000026e+01 1.179739999999999966e+01 1.426140000000000008e+01 1.183970000000000056e+01 9.158599999999999852e+00 1.271110000000000007e+01 1.169130000000000003e+01
1.626470000000000127e+01 1.186829999999999963e+01 1.573780000000000001e+01 1.733129999999999882e+01 1.358699999999999974e+01 1.296460000000000079e+01 1.726920000000000144e+01 1.472770000000000046e+01 1.554979999999999940e+01 1.584699999999999953e+01 1.690429999999999922e+01 1.292960000000000065e+01 1.394969999999999999e+01 1.434779999999999944e+01 1.410820000000000007e+01 1.017939999999999934e+01 1.296679999999999922e+01 1.365390000000000015e+01 9.026260000000000616e+00 1.546560000000000024e+01 1.492370000000000019e+01
1.147180000000000000e+01 1.172039999999999971e+01 1.000050000000000061e+01 1.012870000000000026e+01 1.319950000000000045e+01 1.162059999999999960e+01 9.098150000000000404e+00 1.085459999999999958e+01 1.161190000000000033e+01 1.150980000000000025e+01 1.159989999999999988e+01 1.311739999999999995e+01 1.386979999999999968e+01 1.060389999999999944e+01 1.168490000000000073e+01 1.154279999999999973e+01 9.678309999999999746e+00 1.135859999999999914e+01 1.325189999999999912e+01 1.321649999999999991e+01 1.147920000000000051e+01
1.152350000000000030e+01 1.170550000000000068e+01 9.762040000000000717e+00 9.997130000000000294e+00 1.341960000000000086e+01 1.167360000000000042e+01 9.006719999999999615e+00 1.082169999999999987e+01 1.160459999999999958e+01 1.156049999999999933e+01 1.165460000000000029e+01 1.332559999999999967e+01 1.398060000000000080e+01 1.047230000000000061e+01 1.162519999999999953e+01 1.154889999999999972e+01 9.560710000000000264e+00 1.130710000000000015e+01 1.325559999999999938e+01 1.323850000000000016e+01 1.157489999999999952e+01
1.499109999999999943e+01 1.059420000000000073e+01 1.146799999999999997e+01 1.309670000000000023e+01 1.059520000000000017e+01 1.431380000000000052e+01 1.056189999999999962e+01 1.260710000000000086e+01 1.451590000000000025e+01 9.556739999999999569e+00 1.415729999999999933e+01 1.169079999999999941e+01 1.362850000000000072e+01 1.418779999999999930e+01 1.304180000000000028e+01 1.313579999999999970e+01 1.279460000000000086e+01 9.739269999999999428e+00 1.145069999999999943e+01 1.148520000000000074e+01 1.165179999999999971e+01
1.495030000000000037e+01 1.069510000000000005e+01 1.149859999999999971e+01 1.322690000000000055e+01 1.053350000000000009e+01 1.436289999999999978e+01 1.048479999999999990e+01 1.260009999999999941e+01 1.447869999999999990e+01 9.643700000000000827e+00 1.423440000000000083e+01 1.170219999999999949e+01 1.365840000000000032e+01 1.413049999999999962e+01 1.293340000000000067e+01 1.302699999999999925e+01 1.282890000000000086e+01 9.711990000000000123e+00 1.143019999999999925e+01 1.139889999999999937e+01 1.173359999999999914e+01
1.295309999999999917e+01 1.030620000000000047e+01 1.405180000000000007e+01 1.039969999999999928e+01 1.233120000000000083e+01 1.199510000000000076e+01 1.148520000000000074e+01 1.278819999999999979e+01 9.004099999999999326e+00 7.815479999999999983e+00 1.000089999999999968e+01 1.270229999999999926e+01 1.146509999999999962e+01 9.931549999999999656e+00 1.106390000000000029e+01 1.421610000000000085e+01 1.170040000000000013e+01 1.055710000000000015e+01 1.311270000000000024e+01 1.438879999999999981e+01 1.207300000000000040e+01
1.200440000000000040e+01 1.135839999999999961e+01 1.355269999999999975e+01 1.299910000000000032e+01 1.012839999999999918e+01 1.145429999999999993e+01 1.015900000000000070e+01 1.019200000000000017e+01 1.173359999999999914e+01 9.178589999999999804e+00 1.287420000000000009e+01 1.172770000000000046e+01 1.183029999999999937e+01 1.371299999999999919e+01 1.238560000000000016e+01 1.435340000000000060e+01 1.244490000000000052e+01 1.233699999999999974e+01 1.268640000000000079e+01 1.250029999999999930e+01 1.002020000000000088e+01
1.168929999999999936e+01 1.206160000000000032e+01 1.295539999999999914e+01 1.159389999999999965e+01 9.543029999999999902e+00 1.251360000000000028e+01 1.412129999999999974e+01 1.161720000000000041e+01 1.214109999999999978e+01 1.189020000000000010e+01 1.382349999999999923e+01 1.102660000000000018e+01 9.275019999999999598e+00 1.246400000000000041e+01 1.215949999999999953e+01 1.001880000000000059e+01 1.050869999999999926e+01 1.053410000000000046e+01 1.254390000000000072e+01 1.111430000000000007e+01 9.801920000000000854e+00
1.270040000000000013e+01 1.202059999999999995e+01 1.066939999999999955e+01 1.222330000000000005e+01 1.320470000000000077e+01 1.401440000000000019e+01 1.133699999999999974e+01 9.809590000000000032e+00 1.339059999999999917e+01 9.256460000000000576e+00 1.225709999999999944e+01 1.241539999999999999e+01 1.146579999999999977e+01 1.486890000000000001e+01 1.168919999999999959e+01 1.529119999999999990e+01 1.418099999999999916e+01 1.207399999999999984e+01 1.454679999999999929e+01 1.047910000000000075e+01 1.256789999999999985e+01
1.149210000000000065e+01 1.488659999999999961e+01 1.123750000000000071e+01 1.486449999999999960e+01 1.165220000000000056e+01 1.298780000000000001e+01 1.443740000000000023e+01 1.472930000000000028e+01 1.223739999999999917e+01 1.218180000000000085e+01 1.284280000000000044e+01 1.432300000000000040e+01 1.269229999999999947e+01 1.187270000000000003e+01 1.082830000000000048e+01 1.153149999999999942e+01 9.155519999999999214e+00 1.322920000000000051e+01 9.869070000000000675e+00 1.192960000000000065e+01 1.222550000000000026e+01
1.064850000000000030e+01 1.526839999999999975e+01 1.102810000000000024e+01 1.524929999999999986e+01 1.141259999999999941e+01 1.353260000000000041e+01 1.504110000000000014e+01 1.452360000000000007e+01 1.231209999999999916e+01 1.145340000000000025e+01 1.337369999999999948e+01 1.370410000000000039e+01 1.267600000000000016e+01 1.204110000000000014e+01 1.097680000000000078e+01 1.261759999999999948e+01 9.595319999999999183e+00 1.319299999999999962e+01 9.382669999999999177e+00 1.085399999999999920e+01 1.232199999999999918e+01
1.149220000000000041e+01 1.096410000000000018e+01 1.277159999999999940e+01 1.306600000000000072e+01 1.278100000000000058e+01 1.419810000000000016e+01 1.303989999999999938e+01 1.190830000000000055e+01 1.062720000000000020e+01 1.465540000000000020e+01 1.101340000000000074e+01 1.273590000000000089e+01 1.456300000000000061e+01 1.410130000000000017e+01 1.222010000000000041e+01 1.145679999999999943e+01 1.404190000000000005e+01 1.226440000000000019e+01 9.000019999999999243e+00 1.246310000000000073e+01 1.245589999999999975e+01
1.317730000000000068e+01 9.764799999999999258e+00 1.315130000000000088e+01 1.240850000000000009e+01 1.254889999999999972e+01 1.110950000000000060e+01 1.007680000000000042e+01 1.115659999999999918e+01 1.331990000000000052e+01 1.082269999999999932e+01 1.545720000000000027e+01 1.317169999999999952e+01 1.312420000000000009e+01 1.312609999999999921e+01 1.411749999999999972e+01 1.421299999999999919e+01 1.537410000000000032e+01 1.236560000000000059e+01 1.582970000000000077e+01 1.222460000000000058e+01 1.241670000000000051e+01
1.289419999999999966e+01 1.385139999999999993e+01 1.172259999999999991e+01 1.238490000000000002e+01 1.124399999999999977e+01 1.348930000000000007e+01 1.504449999999999932e+01 1.211599999999999966e+01 1.233530000000000015e+01 1.306099999999999994e+01 1.084319999999999951e+01 1.074740000000000073e+01 1.014579999999999949e+01 1.021219999999999928e+01 1.224820000000000064e+01 1.011570000000000036e+01 1.324329999999999963e+01 1.320889999999999986e+01 1.048279999999999923e+01 1.261880000000000024e+01 1.037710000000000043e+01
1.255519999999999925e+01 1.271369999999999933e+01 1.289540000000000042e+01 1.061389999999999922e+01 1.532269999999999932e+01 1.415740000000000087e+01 8.953450000000000131e+00 1.341559999999999953e+01 1.244229999999999947e+01 1.110929999999999929e+01 9.850540000000000518e+00 1.231959999999999944e+01 1.463470000000000049e+01 9.948620000000000019e+00 1.274510000000000076e+01 1.600840000000000174e+01 1.266350000000000087e+01 1.286040000000000028e+01 1.523920000000000030e+01 1.519940000000000069e+01 1.169400000000000084e+01
1.268140000000000001e+01 1.268469999999999942e+01 1.228650000000000020e+01 1.109430000000000049e+01 1.588879999999999981e+01 1.290760000000000041e+01 9.074669999999999348e+00 1.319180000000000064e+01 1.370420000000000016e+01 1.100549999999999962e+01 9.942149999999999821e+00 1.214429999999999943e+01 1.466600000000000037e+01 9.607350000000000279e+00 1.247579999999999956e+01 1.636919999999999931e+01 1.246860000000000035e+01 1.202399999999999913e+01 1.422300000000000075e+01 1.533079999999999998e+01 1.357179999999999964e+01
1.131020000000000003e+01 1.392420000000000080e+01 1.165879999999999939e+01 1.762849999999999895e+01 1.149399999999999977e+01 1.256170000000000009e+01 1.852179999999999893e+01 1.435580000000000034e+01 1.346170000000000044e+01 1.438589999999999947e+01 1.357569999999999943e+01 1.348820000000000086e+01 1.295800000000000018e+01 1.585309999999999953e+01 1.517670000000000030e+01 1.067650000000000077e+01 1.360769999999999946e+01 1.453899999999999970e+01 8.638830000000000453e+00 1.130920000000000059e+01 1.323349999999999937e+01
1.252779999999999916e+01 1.187480000000000047e+01 1.358990000000000009e+01 1.299869999999999948e+01 1.373320000000000007e+01 1.159639999999999915e+01 1.069050000000000011e+01 1.270100000000000051e+01 1.044800000000000040e+01 1.023000000000000043e+01 1.336849999999999916e+01 1.311040000000000028e+01 1.011940000000000062e+01 1.034709999999999930e+01 1.241440000000000055e+01 1.288679999999999914e+01 1.064439999999999920e+01 1.109570000000000078e+01 1.515990000000000038e+01 1.194389999999999930e+01 1.235820000000000007e+01
1.142270000000000074e+01 1.237790000000000035e+01 1.474890000000000079e+01 1.301689999999999969e+01 1.458319999999999972e+01 1.182049999999999912e+01 1.012959999999999994e+01 1.243360000000000021e+01 9.490880000000000649e+00 9.274879999999999569e+00 1.329439999999999955e+01 1.270960000000000001e+01 1.175249999999999950e+01 1.085139999999999993e+01 1.198470000000000013e+01 1.415300000000000047e+01 9.931589999999999918e+00 1.020790000000000042e+01 1.486340000000000039e+01 1.114090000000000025e+01 1.365049999999999919e+01
1.178630000000000067e+01 1.166859999999999964e+01 1.000539999999999985e+01 1.178679999999999950e+01 1.166799999999999926e+01 1.341460000000000008e+01 1.375779999999999959e+01 1.021380000000000088e+01 1.170940000000000047e+01 1.381830000000000069e+01 1.301179999999999914e+01 1.170940000000000047e+01 1.112579999999999991e+01 1.374009999999999998e+01 1.171059999999999945e+01 1.068849999999999945e+01 9.790179999999999438e+00 1.171010000000000062e+01 9.005110000000000170e+00 1.187609999999999921e+01 1.170909999999999940e+01
1.183510000000000062e+01 1.162100000000000044e+01 9.864660000000000650e+00 1.169880000000000031e+01 1.166350000000000087e+01 1.358999999999999986e+01 1.384919999999999973e+01 1.008060000000000045e+01 1.163889999999999958e+01 1.383140000000000036e+01 1.313969999999999949e+01 1.164879999999999960e+01 1.114520000000000088e+01 1.389930000000000021e+01 1.178299999999999947e+01 1.063739999999999952e+01 9.601190000000000779e+00 1.167890000000000050e+01 8.971510000000000318e+00 1.196330000000000027e+01 1.176430000000000042e+01
1.177270000000000039e+01 1.150500000000000078e+01 1.020579999999999998e+01 1.177289999999999992e+01 1.165019999999999989e+01 1.337720000000000020e+01 1.395490000000000030e+01 1.013640000000000008e+01 1.174760000000000026e+01 1.399549999999999983e+01 1.304570000000000007e+01 1.167249999999999943e+01 1.123770000000000024e+01 1.406070000000000064e+01 1.164049999999999940e+01 1.040150000000000041e+01 9.686989999999999768e+00 1.179310000000000080e+01 8.976990000000000691e+00 1.202710000000000079e+01 1.167549999999999955e+01
1.205230000000000068e+01 1.614780000000000015e+01 1.425939999999999941e+01 1.011239999999999917e+01 1.491210000000000058e+01 1.232820000000000071e+01 1.072320000000000029e+01 1.020110000000000028e+01 1.374360000000000070e+01 1.050709999999999944e+01 1.148579999999999934e+01 1.116699999999999982e+01 1.357750000000000057e+01 1.283270000000000088e+01 1.321160000000000068e+01 1.659339999999999904e+01 1.161020000000000074e+01 1.138069999999999915e+01 1.664780000000000015e+01 1.302420000000000044e+01 1.412330000000000041e+01
1.205530000000000079e+01 1.613390000000000057e+01 1.427619999999999933e+01 1.024360000000000070e+01 1.484340000000000082e+01 1.233249999999999957e+01 1.079349999999999987e+01 1.024929999999999986e+01 1.375999999999999979e+01 1.042900000000000027e+01 1.155289999999999928e+01 1.109190000000000076e+01 1.351409999999999911e+01 1.281470000000000020e+01 1.327549999999999919e+01 1.656309999999999860e+01 1.162609999999999921e+01 1.150229999999999997e+01 1.661510000000000176e+01 1.299339999999999939e+01 1.397530000000000072e+01
1.453759999999999941e+01 1.368520000000000003e+01 1.679860000000000042e+01 1.339380000000000059e+01 1.237880000000000003e+01 1.416269999999999918e+01 1.153190000000000026e+01 1.516000000000000014e+01 1.607849999999999824e+01 1.220700000000000074e+01 1.506010000000000026e+01 1.266639999999999944e+01 1.490629999999999988e+01 1.568469999999999942e+01 1.442800000000000082e+01 1.475949999999999918e+01 1.389930000000000021e+01 1.074619999999999997e+01 1.690709999999999980e+01 1.237500000000000000e+01 1.336299999999999955e+01
1.540450000000000053e+01 1.329110000000000014e+01 1.658459999999999823e+01 1.297429999999999950e+01 1.246410000000000018e+01 1.401270000000000060e+01 1.229920000000000080e+01 1.482890000000000086e+01 1.578769999999999918e+01 1.147610000000000063e+01 1.548359999999999914e+01 1.222639999999999993e+01 1.474740000000000073e+01 1.572250000000000014e+01 1.395739999999999981e+01 1.445529999999999937e+01 1.375980000000000025e+01 1.136560000000000059e+01 1.688650000000000162e+01 1.269319999999999915e+01 1.430889999999999951e+01
1.217229999999999990e+01 1.064310000000000045e+01 1.488310000000000066e+01 1.394309999999999938e+01 1.223719999999999963e+01 1.196320000000000050e+01 1.281349999999999945e+01 1.415789999999999971e+01 1.482659999999999911e+01 1.083360000000000056e+01 1.287759999999999927e+01 1.212250000000000050e+01 1.306489999999999974e+01 1.611260000000000048e+01 1.199119999999999919e+01 1.611809999999999832e+01 1.558750000000000036e+01 1.337459999999999916e+01 1.520780000000000065e+01 1.253769999999999918e+01 1.499210000000000065e+01
1.700750000000000028e+01 1.329679999999999929e+01 1.231700000000000017e+01 1.626300000000000168e+01 1.614849999999999852e+01 1.419870000000000054e+01 1.014930000000000021e+01 1.268730000000000047e+01 1.439630000000000010e+01 1.037899999999999956e+01 1.590569999999999951e+01 1.214850000000000030e+01 1.349220000000000041e+01 1.407639999999999958e+01 1.320309999999999917e+01 1.537030000000000030e+01 1.161120000000000019e+01 1.537679999999999936e+01 1.180620000000000047e+01 1.074169999999999980e+01 1.282719999999999949e+01
1.322579999999999956e+01 1.281739999999999924e+01 1.314439999999999920e+01 1.560999999999999943e+01 1.308280000000000065e+01 1.528679999999999950e+01 1.665330000000000155e+01 1.227529999999999966e+01 1.191019999999999968e+01 1.542839999999999989e+01 1.533660000000000068e+01 1.261359999999999992e+01 1.164439999999999920e+01 1.554930000000000057e+01 1.323700000000000010e+01 1.183939999999999948e+01 1.308239999999999981e+01 1.607789999999999964e+01 1.038339999999999996e+01 1.264090000000000025e+01 1.251479999999999926e+01
1.319500000000000028e+01 1.283000000000000007e+01 1.308019999999999960e+01 1.551479999999999926e+01 1.309750000000000014e+01 1.527350000000000030e+01 1.669249999999999901e+01 1.230400000000000027e+01 1.192430000000000057e+01 1.552110000000000056e+01 1.528030000000000044e+01 1.261800000000000033e+01 1.154390000000000072e+01 1.555749999999999922e+01 1.323150000000000048e+01 1.189209999999999923e+01 1.304129999999999967e+01 1.610229999999999961e+01 1.042530000000000001e+01 1.267409999999999926e+01 1.255499999999999972e+01
1.349099999999999966e+01 1.310330000000000084e+01 1.173090000000000011e+01 1.353669999999999973e+01 1.413799999999999990e+01 1.513990000000000080e+01 1.608119999999999905e+01 1.177500000000000036e+01 1.356939999999999991e+01 1.574380000000000024e+01 1.598719999999999963e+01 1.276280000000000037e+01 1.193849999999999945e+01 1.610069999999999979e+01 1.306070000000000064e+01 1.310999999999999943e+01 1.055080000000000062e+01 1.422039999999999971e+01 1.088349999999999973e+01 1.312969999999999970e+01 1.430059999999999931e+01
1.182189999999999941e+01 9.303879999999999484e+00 1.386430000000000007e+01 1.450050000000000061e+01 1.565150000000000041e+01 1.173789999999999978e+01 9.116889999999999716e+00 1.355930000000000035e+01 1.372780000000000022e+01 1.082939999999999969e+01 1.501420000000000066e+01 1.117409999999999926e+01 1.266820000000000057e+01 1.281070000000000064e+01 1.293389999999999951e+01 1.520500000000000007e+01 1.059650000000000070e+01 1.393909999999999982e+01 1.647390000000000043e+01 1.367989999999999995e+01 1.323869999999999969e+01
1.642849999999999966e+01 1.224430000000000085e+01 1.434130000000000038e+01 1.419780000000000086e+01 1.567779999999999951e+01 1.143759999999999977e+01 1.122419999999999973e+01 1.461149999999999949e+01 1.201270000000000060e+01 1.348269999999999946e+01 1.236459999999999937e+01 1.176929999999999943e+01 1.064400000000000013e+01 1.259619999999999962e+01 1.455310000000000059e+01 1.362449999999999939e+01 1.108189999999999920e+01 1.476130000000000031e+01 1.373039999999999949e+01 1.475590000000000046e+01 1.445679999999999943e+01
1.287229999999999919e+01 1.438840000000000074e+01 1.385459999999999958e+01 1.169239999999999924e+01 1.112190000000000012e+01 1.563410000000000011e+01 1.040360000000000085e+01 1.412110000000000021e+01 1.662239999999999895e+01 1.211170000000000080e+01 1.717650000000000077e+01 1.379490000000000016e+01 1.553700000000000081e+01 1.625769999999999982e+01 1.247000000000000064e+01 1.756070000000000064e+01 1.453619999999999912e+01 1.418379999999999974e+01 2.025359999999999872e+01 1.282939999999999969e+01 1.387149999999999928e+01
1.564039999999999964e+01 1.558590000000000053e+01 1.113610000000000078e+01 1.819399999999999906e+01 1.231039999999999957e+01 1.426110000000000078e+01 1.669790000000000063e+01 1.201159999999999961e+01 1.692370000000000019e+01 1.415939999999999976e+01 1.382230000000000025e+01 1.383339999999999925e+01 1.170519999999999960e+01 1.539770000000000039e+01 1.178449999999999953e+01 1.057820000000000071e+01 1.238380000000000081e+01 1.377069999999999972e+01 9.598679999999999879e+00 1.506209999999999916e+01 1.486430000000000007e+01
1.368890000000000029e+01 1.161239999999999917e+01 1.503529999999999944e+01 1.330790000000000006e+01 1.398569999999999958e+01 1.344030000000000058e+01 1.663970000000000127e+01 1.302929999999999922e+01 1.325389999999999979e+01 1.464230000000000054e+01 1.108649999999999913e+01 1.200949999999999918e+01 1.181569999999999965e+01 1.312700000000000067e+01 1.046739999999999959e+01 1.050159999999999982e+01 1.259609999999999985e+01 1.381300000000000061e+01 9.051940000000000097e+00 1.421100000000000030e+01 1.162880000000000003e+01
1.512209999999999965e+01 1.024339999999999939e+01 1.294020000000000081e+01 1.189649999999999963e+01 1.071080000000000076e+01 1.143890000000000029e+01 1.198680000000000057e+01 1.683569999999999922e+01 1.460590000000000011e+01 1.050169999999999959e+01 1.450939999999999941e+01 1.277790000000000070e+01 1.350040000000000084e+01 1.365070000000000050e+01 1.344480000000000075e+01 1.658239999999999981e+01 1.283259999999999934e+01 1.429349999999999987e+01 1.538109999999999999e+01 1.618830000000000169e+01 1.546979999999999933e+01
1.511040000000000028e+01 1.054020000000000046e+01 1.251449999999999996e+01 1.196330000000000027e+01 1.068740000000000023e+01 1.179069999999999929e+01 1.255649999999999977e+01 1.703229999999999933e+01 1.401140000000000008e+01 9.774969999999999715e+00 1.462209999999999965e+01 1.287669999999999959e+01 1.331119999999999948e+01 1.376079999999999970e+01 1.335710000000000086e+01 1.709319999999999951e+01 1.277730000000000032e+01 1.448670000000000080e+01 1.516140000000000043e+01 1.555090000000000039e+01 1.593399999999999928e+01
1.019730000000000025e+01 9.858159999999999812e+00 1.357089999999999996e+01 1.442750000000000021e+01 9.280229999999999535e+00 1.305049999999999955e+01 9.688240000000000407e+00 1.291580000000000084e+01 1.378999999999999915e+01 1.061819999999999986e+01 1.574840000000000018e+01 1.213419999999999987e+01 1.276469999999999949e+01 1.276909999999999989e+01 1.278400000000000070e+01 1.546920000000000073e+01 1.204800000000000004e+01 1.102899999999999991e+01 1.498910000000000053e+01 1.553459999999999930e+01 1.179570000000000007e+01
1.147240000000000038e+01 1.011539999999999928e+01 1.487739999999999974e+01 1.337170000000000059e+01 8.779659999999999798e+00 1.188410000000000011e+01 9.758960000000000079e+00 1.345470000000000077e+01 1.404129999999999967e+01 1.144979999999999976e+01 1.634440000000000026e+01 1.312599999999999945e+01 1.261810000000000009e+01 1.274959999999999916e+01 1.256000000000000050e+01 1.615930000000000177e+01 1.184570000000000078e+01 1.130359999999999943e+01 1.332399999999999984e+01 1.486500000000000021e+01 1.036209999999999987e+01
1.144280000000000008e+01 1.014080000000000048e+01 1.507440000000000069e+01 1.337030000000000030e+01 8.870430000000000703e+00 1.180700000000000038e+01 9.780239999999999156e+00 1.346759999999999913e+01 1.403570000000000029e+01 1.155550000000000033e+01 1.620870000000000033e+01 1.318859999999999921e+01 1.249799999999999933e+01 1.264359999999999928e+01 1.262550000000000061e+01 1.606360000000000099e+01 1.197910000000000075e+01 1.123520000000000074e+01 1.344410000000000061e+01 1.484430000000000049e+01 1.018790000000000084e+01
1.342590000000000039e+01 1.097160000000000046e+01 1.246269999999999989e+01 1.384720000000000084e+01 1.445100000000000051e+01 1.302030000000000065e+01 1.517239999999999966e+01 1.226750000000000007e+01 1.429410000000000025e+01 1.514559999999999995e+01 1.277180000000000071e+01 1.121059999999999945e+01 1.176430000000000042e+01 1.310459999999999958e+01 1.167880000000000074e+01 9.239020000000000010e+00 1.387640000000000029e+01 1.304269999999999996e+01 9.900529999999999831e+00 1.105199999999999960e+01 1.278570000000000029e+01
1.152020000000000088e+01 1.124510000000000076e+01 9.957819999999999894e+00 1.419909999999999961e+01 1.144899999999999984e+01 1.128330000000000055e+01 1.246959999999999980e+01 9.618059999999999832e+00 1.203309999999999924e+01 1.278459999999999930e+01 1.359440000000000026e+01 1.184299999999999997e+01 1.128389999999999915e+01 1.189910000000000068e+01 1.327650000000000041e+01 9.665350000000000108e+00 1.310340000000000060e+01 1.118500000000000050e+01 9.365059999999999718e+00 1.037880000000000003e+01 1.170919999999999916e+01