-3.091543572584960930e+04
-3.091565632719733549e+04
-3.091534322373531541e+04
-3.091358675079435852e+04
-3.091583716264153918e+04
-3.091396764815984716e+04
-3.091463082338477761e+04
-3.091424633629322125e+04
-3.091559092844008410e+04
-3.091571061826671576e+04
-3.091516680660389102e+04
-3.091519855059074325e+04
-3.091545617302945902e+04
-3.091511222328421718e+04
-3.091508550251926863e+04
-3.091269683261182217e+04
-3.091441191567372516e+04
-3.091568401124535740e+04
-3.091575949971251612e+04
-3.091535406638427958e+04
-3.091400696670817342e+04
-3.091375297154724103e+04
-3.091579908955836436e+04
-3.091572053572854566e+04
-3.091559205417513294e+04
-3.091442954484242000e+04
-3.091580938389788935e+04
-3.091481387057045504e+04
-3.091538570696786701e+04
-3.091558848812296856e+04
-3.091519147753511788e+04
-3.091442389548652500e+04
-3.091557629306810486e+04
-3.091416506159689379e+04
-3.091514396645472880e+04
-3.091486520893232228e+04
-3.091524636507808464e+04
-3.091522635709001042e+04
-3.091568832452219067e+04
-3.091561413948043628e+04
-3.091572209466886488e+04
-3.091507405006314002e+04
-3.091542575369288897e+04
-3.091537433070361658e+04
-3.091580309262539231e+04
-3.091558498193584819e+04
-3.091575373089862478e+04
-3.091522778078973352e+04
-3.091516090390998943e+04
-3.091518839258026128e+04
-3.091558248855652710e+04
-3.091557329138008936e+04
-3.091553965075961241e+04
-3.091532715568385174e+04
-3.091534076192119755e+04
-3.091429783765128013e+04
-3.091416732231886272e+04
-3.091503255242700106e+04
-3.091578102691228560e+04
-3.091477073290406770e+04
-3.091461801362470214e+04
-3.091501851135169636e+04
-3.091484385180371100e+04
-3.091579633875932632e+04
-3.091479113763416171e+04
-3.091439928850205251e+04
-3.091442509169906407e+04
-3.091546289260917547e+04
-3.091441747359936926e+04
-3.091443164664989672e+04
-3.091464625033597986e+04
-3.091493388530104130e+04
-3.091558366980280334e+04
-3.091528516334470623e+04
-3.091520776763149479e+04
-3.091496645678615096e+04
-3.091394747282173921e+04
-3.091574422541718377e+04
-3.091585148834794381e+04
-3.091518223137818495e+04
-3.091392478179097452e+04
-3.091472853022091294e+04
-3.091497507163892442e+04
-3.091509282156582776e+04
-3.091557057241837538e+04
-3.091563046495161689e+04
-3.091468176173925895e+04
-3.091583513430480889e+04
-3.091582310360672636e+04
-3.091580790114945557e+04
-3.091584215729148491e+04
-3.091492593930414296e+04
-3.091502585434427601e+04
-3.091526775486036058e+04
-3.091547605530093642e+04
-3.091531160981888752e+04
-3.091574044112970296e+04
-3.091303815945154565e+04
-3.091529625824322284e+04
-3.091534583412359643e+04
-3.091578379948042857e+04
-3.091558253372742547e+04
-3.091568127024242131e+04
-3.091514605302382915e+04
-3.091513410858583666e+04
-3.091585588516373537e+04
-3.091474524291012131e+04
-3.091564096201597567e+04
-3.091505586877541646e+04
-3.091383210987763596e+04
-3.091403641187711401e+04
-3.091546178238462016e+04
-3.091413562948941762e+04
-3.091532857747878006e+04
-3.091440809437875942e+04
-3.091440463934904619e+04
-3.091349081242621105e+04
-3.091433908929649260e+04
-3.091443191604262029e+04
-3.091585167556228043e+04
-3.091581025520647745e+04
-3.091431508069040501e+04
-3.091495194740289298e+04
-3.091548470906598595e+04
-3.091394622871715546e+04
-3.091437787749490235e+04
-3.091419905025099797e+04
-3.091514356699158452e+04
-3.091535494776108317e+04
-3.091425135679398227e+04
-3.091462431632598600e+04
-3.091544222692189578e+04
-3.091433985230376129e+04
-3.091491349907469703e+04
-3.091455893253499744e+04
-3.091557036778875408e+04
-3.091559758298458837e+04
-3.091406405211480524e+04
-3.091552285072185987e+04
-3.091555593432525711e+04
-3.091422109827670647e+04
-3.091333374612788612e+04
-3.091440758661429209e+04
-3.091504305411729365e+04
-3.091573154436696859e+04
-3.091392458396419897e+04
-3.091475628120894908e+04
-3.091551213651064245e+04
-3.091529202551209528e+04
-3.091571166644931145e+04
-3.091412702171160345e+04
-3.091444453450664878e+04
-3.091369560096527493e+04
-3.091443351280676143e+04
-3.091443941713335153e+04
-3.091372337943681487e+04
-3.091573954179338034e+04
-3.091462290541560651e+04
-3.091495304266118910e+04
-3.091520693741210198e+04
-3.091354024735160783e+04
-3.091464910100080306e+04
-3.091591686016591848e+04
-3.091431334025014075e+04
-3.091457750512244820e+04
-3.091448746400593518e+04
-3.091438768420639099e+04
-3.091443849793272238e+04
-3.091473633145323765e+04
-3.091493905056637959e+04
-3.091535535293861903e+04
-3.091581329417409506e+04
-3.091291050430792893e+04
-3.091257719040511438e+04
-3.091438836666795760e+04
-3.091399225868179201e+04
-3.091528710950305322e+04
-3.091299836007801423e+04
-3.091446437732161576e+04
-3.091557170931009750e+04
-3.091579871322488907e+04
-3.091364833124989309e+04
-3.091458826994684932e+04
-3.091569918812392280e+04
-3.091444405449779879e+04
-3.091479763734588050e+04
-3.091577916728614582e+04
-3.091488524413178675e+04
-3.091310923994623590e+04
-3.091469759005841115e+04
-3.091578435568116765e+04
-3.091491653777019746e+04
-3.091391595877109648e+04
-3.091462140144228761e+04
-3.091441793319968565e+04
-3.091445457305915261e+04
-3.091361151587698259e+04
-3.091314697533611252e+04
-3.091568463629089820e+04
-3.091568703497459501e+04
-3.091552824429073007e+04
-3.091477063684787572e+04
-3.091585033268036932e+04
-3.091399923758602381e+04
-3.091583308392685285e+04
-3.091583298351684061e+04
-3.091582802233690018e+04
-3.091582284918026198e+04
-3.091550266205017397e+04
-3.091539944436409496e+04
-3.091539853305477300e+04
-3.091511844761670727e+04
-3.091585251911525484e+04
-3.091542606988919579e+04
-3.091517479886014553e+04
-3.091526298388800569e+04
-3.091428363330766661e+04
-3.091416177391720703e+04
-3.091508294519318952e+04
-3.091308967359895541e+04
-3.091586290733406713e+04
-3.091405668599255296e+04
-3.091507111939683818e+04
-3.091353173045982840e+04
-3.091438201661885978e+04
-3.091311107725903275e+04
-3.091588170958562478e+04
-3.091410611738046282e+04
-3.091554032669045046e+04
-3.091507314528454663e+04
-3.091367346994484615e+04
-3.091559964832880360e+04
-3.091337161240453133e+04
-3.091293240267101282e+04
-3.091250985011546072e+04
-3.091236508744542880e+04
-3.091416948752886674e+04
-3.091574161285198716e+04
-3.091584587273416764e+04
-3.091580175654632694e+04
-3.091321665362807835e+04
-3.091446270518193342e+04
-3.091453919856557695e+04
-3.091401594973099782e+04
-3.091477570251954239e+04
-3.091400145776302816e+04
-3.091587093605357950e+04
-3.091262795759997971e+04
-3.091584469284845545e+04
-3.091590106177929556e+04
-3.091566986268507753e+04
-3.091586899125580385e+04
-3.091236470621390981e+04
-3.091334463748523922e+04
-3.091583949547368320e+04
-3.091575962787814206e+04
-3.091582393219343430e+04
-3.091318287776701618e+04
-3.091433277625487972e+04
-3.091295224303695068e+04
-3.091476074224361219e+04
-3.091330511267459951e+04
-3.091348356657828117e+04
-3.091538706209489828e+04
-3.091361509499061140e+04
-3.091347069586470388e+04
-3.091452800108013980e+04
-3.091308673232021829e+04
-3.091424794094866229e+04
-3.091588556217368750e+04
-3.091323035129568598e+04
-3.091571295164308322e+04
-3.091571762601501541e+04
-3.091418248232636688e+04
-3.091487736670758022e+04
-3.091322404505692612e+04
-3.091466821999289459e+04
-3.091567914666583965e+04
-3.091425528693450178e+04
-3.091415603476373508e+04
-3.091340716979505669e+04
-3.091355500082099752e+04
-3.091481581591246504e+04
-3.091463094257064949e+04
-3.091247234003586345e+04
-3.091199866789799853e+04
-3.091387191414920744e+04
-3.091315897936704278e+04
-3.091339710566385475e+04
-3.091456875611754367e+04
-3.091429333307840352e+04
-3.091510994732387553e+04
-3.091139455770805216e+04
-3.091434408313009772e+04
-3.091249604060905403e+04
-3.091384179930804748e+04
-3.091319867914689166e+04
-3.091447237583648530e+04
-3.091277224760823447e+04
-3.091406995317603287e+04
-3.091244002624258064e+04
-3.091399243310677412e+04
-3.091264093933601544e+04
-3.091431059897509476e+04
-3.091146840941032497e+04
-3.091423919003896299e+04
-3.091166098928883366e+04
-3.091414703976789679e+04
-3.091580405999017239e+04
-3.091411033759435668e+04
-3.091500683521797691e+04
-3.091578998925445921e+04
-3.091581986953346859e+04
-3.091584673533510795e+04
-3.091567952354353838e+04
-3.091558504016821098e+04
-3.091391869297119047e+04
-3.091445724902687653e+04
-3.091508839209637517e+04
-3.091579623562816778e+04
-3.091570246682385186e+04
