2.389669350477552634e-01 6.963074498265492407e-01 5.050055831611646173e-01 -2.080942055983861505e-01 -1.203334485882275595e-01 1.159145960637844412e-02 -1.487925804564603494e-01 -5.460612189446005862e-03 -1.589768751863491481e-01 3.128765411183558054e-02 -4.304237878245135290e-02 7.633199682527526397e-02 -2.731026003667671532e-04 -2.409180425540095177e-02 9.655717013886135069e-02 -4.834034297246973637e-03 -5.564433857901383007e-01 -4.298255434914939888e-01 9.173933379286941525e-02 5.306417977911494915e-02 -1.006838424759039785e-01
-1.837170088684915992e-01 1.301756323031963425e-01 1.363944628775807903e-02 1.140062717176705126e-01 8.219688930922013081e-02 -4.685774192299230895e-02 -1.128564742888998607e-01 -8.140077286055165395e-02 1.286431004261993916e-01 -4.710837307987192357e-02 -9.442536548749530523e-02 -4.473308493900547689e-02 4.870281712611037039e-01 1.323447179534827378e-01 3.328742746274940267e-01 -2.984253974954838642e-02 1.343625713033212432e-01 9.179096154861565715e-02 -2.275099955698949017e-01 -3.032536210991060299e-01 -4.753569560280694328e-01
-7.347030734815023119e-03 2.007460950001541469e-02 -1.279677744140328144e-01 1.166722488059806218e-01 -1.451487099109529388e-01 -5.187710135142396817e-02 1.844385633193194318e-01 -9.919676770655611042e-02 1.296487617998339226e-01 -2.119801712375720959e-01 -1.525212459912362040e-01 -8.272627949388891566e-02 -1.594565402317683067e-01 9.891507762092080491e-02 1.835474703120221554e-02 -2.113593526169304238e-01 1.291993843521583030e-01 4.305636558480491899e-02 2.890322826957858471e-01 1.486777035577182549e-01 7.151122942143717243e-02
-3.908163517274133025e-01 6.811252386703664508e-01 -1.387535633516056910e+00 1.837999012412634414e-01 9.714727950080617180e-01 1.302713596240102856e+00 -3.361016264264432007e-01 -1.872370036534485305e-01 -5.120933438317639558e-02 -2.068760682419394648e-01 -1.161384774611628812e+00 3.065849483184923119e-01 1.800078888615634920e+00 -5.272626994710776227e-01 -3.835758675164092080e-01 -7.587860845633648266e-01 1.462348468201878915e-01 3.474028084619178447e-01 -2.912986588977374280e-01 7.705159723753896017e-02 -1.343805690269379571e-01
-1.617846229146914852e-02 1.121427874143959315e-02 -2.335297198990109874e-02 -1.510289261710057729e-01 -1.343643196536154459e-02 -6.260379604905302875e-03 -1.531497779219993527e-01 2.815194672154271438e-01 -7.259515518177064863e-02 -1.298242653161306090e-02 -2.783039424919974900e-02 -7.450337668374962599e-03 1.115695856282373222e-01 -1.840134056654251504e-01 -6.837355770816670730e-02 -4.162919752406696317e-02 -3.576883018206000048e-02 6.942508756599011233e-02 2.633992048119169760e-01 -3.168473531688776462e-02 1.086073660091960991e-01
8.316946058243361861e-01 3.423567609804659684e-01 -1.122677841760173933e+00 -9.870469451625490942e-01 8.425140659316925351e-01 -4.347548114577071132e-01 9.643185456042153991e-02 -1.805524948359985005e-01 -2.217699558657825476e-01 8.780463546033615563e-01 -2.709558833158329794e-01 6.948410467283268055e-01 -4.750883271475730973e-01 9.673545044680176286e-02 1.370431574010013920e+00 -1.434567182027119137e-01 -6.311516279907135596e-01 -3.849972248835223376e-01 -2.005807216311502605e-01 -1.989462712164152547e-01 9.892726465091268573e-02
5.489785985208024410e-01 3.632654364149473514e-01 -6.163429467326787536e-01 -4.619644385083326310e-01 4.101095514900584549e-01 -2.279295482184342525e-01 8.202303129908267154e-02 -1.600946366670820409e-01 -2.485054714542763443e-01 5.784745535355604318e-01 -1.192829985938211879e-01 4.839386306029910267e-01 -4.516460864485330462e-01 1.492478714418957464e-01 7.579885282968070737e-01 -2.498402854818268237e-01 -6.117616004750104919e-01 -2.129208865399840056e-01 -4.602537291675302261e-02 -3.148362361098785284e-02 6.377164262350787372e-02
-3.302327230212351861e-01 1.240433553527880761e+00 -1.052160806591324049e-01 7.897351757829362828e-01 9.932622276142776263e-01 -3.338597785506778881e-01 -1.759519167250940541e-01 -9.508300230845002921e-02 -8.772541976538887898e-01 -5.168097758606925857e-02 5.123643381273641773e-03 1.529178335444406400e+00 6.850567642613363262e-01 -1.085852493779745132e+00 -2.124640014704568536e-01 -2.148849524072423134e-01 -1.108781645089506496e+00 8.640840805759869570e-02 -7.020413703046318732e-01 5.089776807633733524e-02 -8.679268516784928444e-02
6.627995965293558001e-03 -1.182063233450018624e-01 -9.547586690396916986e-03 -1.040483883508799834e-01 7.938435932860248012e-03 3.867813649366809350e-03 2.818536078098883221e-02 1.763962033880895133e-02 4.886690494342732505e-03 1.428291118691633610e-01 -1.084961400772448126e-01 -4.004483220305388863e-02 -2.515732091557790207e-02 1.578772142733678996e-01 3.667344719310352413e-02 -6.359644763961604108e-02 7.729569779184906897e-02 -1.631195397863769228e-02 1.515968829062817880e-02 -3.404850491463951717e-02 2.047637011320795064e-02
-4.804435755207601272e-02 -1.592937893882057365e-01 3.012849786678423528e-02 3.012802478376345183e-01 -1.048391569045309391e-01 1.839722680114440900e-01 -2.774929136437609412e-01 -7.196472063451089807e-02 -3.351598826826818200e-01 2.256183319736432824e-01 -8.821815630036052014e-02 -1.503519546526799200e-02 -6.737334707368469733e-02 1.276010322287916554e-01 7.398560788633050389e-02 5.578522990169221610e-03 3.010437063272434766e-01 7.811742243012076425e-02 -1.395664845319254110e-01 -4.328863906359547813e-03 -1.600871804672979876e-02
-4.751923539900777121e-02 1.436418890676941784e-01 -1.138726257642995454e-02 1.120640602290896848e-01 -1.447278202886592147e-01 -9.421710611421617310e-02 -1.810805994689803633e-01 -5.752740954779014121e-02 8.109455444873013563e-02 1.737263696447186728e-02 8.695862417959539237e-02 6.958907253917211155e-02 1.946072257406953887e-01 1.298839149144031396e-02 -4.102509107535508986e-02 -1.948618678188381720e-02 -2.054005634377737977e-01 -8.326754817614472060e-02 -7.595784986231750302e-02 1.640668371134257897e-01 7.921332953217621875e-02
-3.685039052728956988e-02 1.183626464301298920e-01 6.517232831949551497e-02 1.065039977611444560e-01 -1.341885590269813466e-01 -9.397794207838379432e-02 -1.905995954898604405e-01 -5.410285412006925893e-02 6.668593687566116979e-02 -1.058302144110021513e-02 1.034082350328672101e-01 -1.494813790503057328e-02 1.987961187793843842e-01 8.918334850689116355e-03 -2.218656523333559574e-02 -3.413653949415898503e-02 -1.029222964952159342e-01 -3.356040665015423002e-02 -3.313051816605214195e-02 6.052449332858032133e-02 3.281473524968003125e-02
1.014999621088207571e-01 4.608707939772462014e-02 -2.574727086911354212e-01 1.249887397789268273e-01 -4.526545246138113376e-01 8.797287303849844753e-02 2.002179389451048119e-01 -9.710810616980271315e-02 -1.112482491285777808e-01 -1.111189226288748083e-01 7.333110781149182467e-02 -1.531604737120344506e-01 -3.627667966266294175e-01 3.306879111625356527e-01 1.235810606817624030e-01 1.873022068350085334e-01 1.546742365344025150e-01 1.395634506299443245e-01 -1.401231798344241275e-01 -5.501770412254057552e-02 1.707640471815424776e-01
-6.466449426551281743e-01 -8.692374459122620411e-01 8.951620354966541293e-02 1.959335037050447762e-03 2.291810070746055916e-01 9.737655507306287594e-01 2.337184388866491054e-03 3.572300797773184655e-01 -8.825443456896505667e-01 6.428099362848113119e-01 -8.692039187242674991e-01 8.888931712506152605e-02 4.917738624464262909e-01 2.010087589208232328e-01 -5.858032780143539175e-02 1.002473205450974411e-03 7.474284925198687590e-01 -1.524477638568125515e-01 -4.932378487074773332e-01 2.035929749218459983e-01 -5.859863405745695947e-02
-1.128819796343681209e-01 -3.263462945834419426e-01 5.757060408447025462e-02 1.915420591425665703e-02 -2.515438985773174943e-02 -2.953084488754063597e-01 1.022054214525284777e-01 3.689976599648033262e-01 2.613134229109422280e-01 4.496489561918875361e-02 -4.882782417214531594e-03 -4.742317897696199380e-02 -1.553846323965879794e-01 -3.338834841237844214e-02 6.455629195112912860e-03 1.190685685724449105e-01 -3.228904745386954739e-02 -5.282074771168202530e-03 -1.712647952746269506e-02 5.306325418190037391e-02 2.267399501094369274e-02
1.696955480414518991e-01 3.137830093238284657e-01 -2.137396801204095365e+00 -7.751934778992385366e-01 2.204448451823648458e+00 8.323366103367782487e-02 -1.696803476783059095e+00 -9.140961549621122728e-01 3.893828073303082921e-02 2.254575865907122723e-01 6.013908493284525481e-02 2.008293781806387734e+00 1.701596476270459846e+00 -6.316897599268533892e-01 1.180561709079709781e-01 -3.335294946112773995e-01 -2.503772244260010993e+00 -1.266093576575107182e-01 7.087768383909509584e-01 1.471187613068654532e+00 1.548426438053874914e-02
-2.936734842399965975e-02 3.204135249704282984e-01 -1.056873330543124379e+00 -2.762190861882373727e-01 1.130095937792241267e+00 -1.511649375394806538e-02 -9.246507914219653790e-01 -4.990459198068608049e-01 1.015956071543267121e-02 1.125906736221147370e-02 -7.119544650506505479e-02 9.932035550352871223e-01 1.167169088715838354e+00 -3.163412571807756035e-01 6.708173252902645267e-02 -4.003543739132596202e-01 -1.570999440124295043e+00 1.035918118137576886e-02 4.521633924473449362e-01 1.007072600854326927e+00 -8.814205164049555494e-03
-9.320450276147236590e-02 5.993046560509379672e-02 2.013492758516514242e-02 1.383066438787554364e-01 -7.901206356007388354e-02 1.706933418387625301e-01 -5.754160203841360982e-02 8.122830324623606102e-02 1.768043403376491074e-01 1.187407014702158425e-01 3.209467203880903008e-02 -1.059096615052530777e-01 -6.914571147339122759e-02 -1.060995632004431422e-01 -2.225233405763782021e-02 1.580581685288171001e-01 3.054466180107688889e-01 -3.089113854952562632e-01 -1.952137490265786479e-01 -2.935884321403907649e-01 6.944077129657037772e-02
-6.331002672377289420e-02 6.473544643421665079e-02 -1.523260478230960800e-02 2.123217166097498762e-02 -5.647788515059832398e-03 1.656006031200421558e-01 8.472711213939275107e-03 3.702121463544592178e-02 2.151750242898762544e-01 1.430887933099188047e-01 4.566433858100173333e-03 -1.076841856317936191e-01 -7.336031554581837200e-02 -9.261289187515724108e-02 9.865323645333135081e-04 9.782323286219596348e-02 2.588662467197438977e-01 -2.701244399068082336e-01 -1.339465667774377700e-01 -2.669287126793570275e-01 1.127912196852724064e-02
6.532931989150073115e-02 8.356682460885693497e-02 -1.161464581660351936e-01 -3.162468976869565740e-01 3.364729451756897638e-01 3.185438185969891589e-01 -3.746868946662490485e-02 1.350612429341220833e-01 -1.779464758783657896e-01 2.702299065672021938e-01 1.096243916597428869e-01 -1.078829833446570963e-01 3.570810072037046423e-02 -5.349021675036306211e-01 -9.172570694498818900e-02 4.114135636991905765e-02 -1.506063910425528007e-01 1.577150290725475856e-01 -5.869314781747845405e-02 2.078320558983918695e-02 1.744272524244210032e-02
-3.946369599188368493e-01 -3.728895905638165420e-01 1.535293499130758521e+00 6.080106177629498454e-01 -1.492358283936927821e+00 -5.722250754089600600e-01 -6.133434975367847430e-01 -7.304588502982088949e-01 -2.688403280377894555e-01 -5.373066633788236013e-01 3.703348908295251984e-01 -1.171124731256454610e-01 -2.844341728441202588e-01 1.473881975138211731e+00 2.095164885627138762e-01 1.486058617872470622e+00 4.340868902232571380e-01 3.568280106317210931e-01 -2.643479933789226743e-01 3.174029686079593571e-01 -1.143460173174866146e+00
5.663045442480058728e-02 4.998510865394051317e-01 1.430309074885607101e+00 2.517825483924751029e-01 -1.464391415520646111e+00 4.171632707519885019e-01 1.290636146674005502e+00 -5.124718102483896698e-02 9.976950669410743211e-02 9.040066311025822532e-02 1.088000290694096428e+00 -5.786041371456007720e-01 -1.313749491829466987e+00 7.246109270965311877e-01 2.752169729372587192e-01 -9.307957284853864977e-01 -6.094542408852803295e-01 -8.693045517103186182e-01 5.550954077133138931e-01 -1.873694668992675616e-01 -7.745501878351098712e-01
-1.373316814794043050e-01 9.361901604739904801e-04 -1.775422470059343782e-01 1.667813566334335473e-01 -1.943191593186930077e-01 2.818655377295428144e-01 5.594628381702806269e-02 -3.165532189429130783e-02 1.601745979820077409e-03 6.205543112148549645e-02 7.802306293630170697e-02 -5.070910051076669284e-02 -6.115662480406679202e-02 2.959189316604853293e-01 -2.430885680221852307e-01 -2.445035490529312572e-01 -1.137859281585344717e-01 3.759122825342098989e-02 1.582087837644552686e-01 -3.511787822987718494e-02 1.502814035761024236e-01
-3.316636448928989012e-01 7.182423554616557126e-02 -4.327928024731479001e-02 3.000826278861109531e-01 -2.926465341304269052e-01 1.884993639879248839e-01 1.599281320125937045e-01 1.668137011138761533e-02 6.147806414786130547e-02 -2.251587215345398837e-02 5.320553904260737210e-02 1.067754548553519756e-01 2.122461261705596916e-02 -1.121897357620018215e-01 -2.467169605253822784e-01 1.681485665634941118e-01 2.155695343915546291e-01 -3.154162770310114938e-02 -2.952044220329017588e-01 4.755553937864605979e-02 -3.521506593740744706e-02
1.625266947704423481e-01 -1.919156404627820611e-01 2.155443375784912505e-02 3.361486261961165595e-02 1.232933027921648828e-01 4.069696686278864717e-03 -2.362541124559741912e-01 -3.283011044785544980e-02 -2.495924311165909504e-03 4.308809300043781043e-02 -2.403518855910951376e-03 1.692467876585860009e-01 1.293799786531351671e-02 6.351278393583204007e-02 -2.192203983382388366e-01 -2.108821044086826579e-01 -7.424996873522629603e-02 7.908868244061360853e-03 1.949685686088515335e-01 1.145931517737778238e-01 1.893658772469684545e-02
-4.064285027897656666e-01 -1.144487071862368088e+00 1.887869161892524739e-01 -6.664438784514030434e-02 3.033108538602071746e-01 1.326398343409361136e+00 -8.191036554924203961e-02 -3.582847978033253805e-02 -1.056816766268900532e+00 7.689378291245411168e-01 -9.212468048212349991e-01 1.368897088094452874e-01 5.591418616250934948e-01 8.191230930339264971e-01 -2.900780018599843912e-01 -2.644158190859239310e-01 9.908550063695084065e-01 -2.911119453707308735e-01 -5.086805640574951770e-01 -1.172654537763875154e-02 -1.406830633051063713e-02
4.128060732864494847e-02 6.731308041060243830e-02 1.256981586218302270e-02 -5.141358283519235906e-02 1.572080589092984815e-02 -2.402617941288766323e-01 5.951662080604433469e-02 1.375379353920518355e-01 -4.561445917554970281e-03 1.900029966630000997e-02 -1.462940336198531588e-01 -2.081472731720217587e-02 -1.132591604993069684e-01 -1.620134511149611267e-01 4.386184084975409125e-01 5.457269755060045052e-02 1.223637460783953412e-01 -1.471014115012989343e-01 -9.697533439157883170e-03 -3.462813445923266370e-02 -3.844879407272367572e-02
-6.524113104577883293e-02 9.638001083199190244e-01 -1.085695193675335207e-01 3.057207490524851967e-01 -2.201530403760569299e-01 9.136196266628091589e-01 1.003002029992901223e+00 -2.205255932549229220e-02 2.914741109919666839e-01 -2.248049377103027505e-02 -6.819151844709376853e-01 -7.529826928721216062e-01 -5.456851693651462165e-01 -7.769826573150099280e-01 -1.161722206218408354e-01 -3.724274090213393618e-01 5.258720925003154134e-01 4.342566858900639981e-01 -3.028885244200241189e-01 2.114312920893298142e-01 -6.616259906833436011e-01
-7.057781605260690476e-03 7.756298969859101722e-02 -7.922186559537729156e-02 4.785085631216259155e-02 1.923659435076722490e-01 9.444130632841296613e-02 8.553510708564826537e-02 -1.821390198838455932e-01 -3.765931107075964901e-02 -6.495203618242692545e-02 -3.736075454699210041e-02 -3.526299130429538797e-02 -1.417592757553183813e-01 -3.127948314531358576e-01 1.282198968108692362e-02 2.566565890582186982e-01 -1.021555420470764280e-01 1.725544607269332009e-01 -1.762735103350909771e-01 3.645212661468542059e-01 -1.276735887660007396e-01
8.399794722257845903e-03 8.831277290451695905e-03 3.757842415861938762e-02 -1.266072493527442000e-01 -1.009059343853342255e-01 1.852947921648677443e-02 6.716637325209248721e-02 9.869694521068622314e-03 -7.455952958143377551e-02 -5.223366196730480637e-02 -5.770337586269412566e-02 2.928712999873658851e-02 -6.779701348762214030e-02 1.405130619500296330e-01 -3.838153400846464752e-02 -1.216810667105796412e-02 -1.460057615095808684e-02 4.342166795215673253e-02 1.832398635043787638e-01 1.399585263743649381e-02 -1.587563773610106352e-02
7.328611350245003986e-02 -1.411338291486038399e-01 -2.407325117345548993e-01 -4.602074493068015332e-02 4.487922645477319256e-02 -7.383180448250881546e-04 -6.976863839879943185e-02 -3.301697824106442081e-02 1.430844738562507892e-02 8.236961603387310538e-02 -3.742729470230646283e-02 -1.468584422324733241e-01 2.372017697374954187e-02 1.740370617764106231e-01 1.143192778423989114e-01 -1.375591212838520871e-01 -1.412520484817319233e-01 3.168604143740166301e-01 7.397254668119150611e-02 1.339138623425228103e-01 -5.715881616811983174e-02
1.033574300302005922e-01 -4.062890975648373870e-01 1.220976831590660838e+00 4.083384726420388189e-01 1.299703245565903664e+00 -3.273502076067822397e-01 -5.313001030989814577e-01 3.440701956908446407e-02 -9.723833769789325121e-01 -6.839907848025521542e-01 7.978826424200877732e-01 5.700703879375670358e-01 -4.207680605262139051e-01 -7.148670623745770891e-01 9.407183877359556745e-02 9.724380900587271948e-02 -9.308442709170841045e-01 -7.104664132620206463e-01 1.027119236749635345e+00 -7.999252812064500118e-02 1.250809395459118734e-01
2.400247898198782370e-01 5.018963478512084714e-02 3.042720865675421771e-01 -8.190949137409495040e-02 -1.819915413943234972e-01 4.414548497395349991e-02 1.288136674240183688e-01 -1.189690668718782103e-02 -1.619702565782810133e-02 -4.811202899287485291e-02 2.825364928659739039e-02 -1.551939593703857423e-01 -7.630582299292980319e-02 -1.341375483360448401e-02 -3.124553943857246580e-02 3.427851582246112250e-02 6.337353297710615618e-02 -2.727570440733262380e-02 -1.967896811285256287e-01 6.548538586629137903e-02 -1.185052398232417509e-01
2.368644409748507304e-02 -4.726623882702424978e-02 -1.264813424205283976e+00 2.420642404380567853e-02 -4.726515896360724417e-02 1.264526437646698698e+00 6.630510504393150040e-01 -9.829448011516925821e-01 -1.359085243399295079e-04 1.071252483271529554e+00 8.325958289789262556e-01 2.180295660996220563e-05 -4.486584643281585350e-01 1.532416280189255797e+00 5.877542312544057181e-04 -2.049944833709132219e-01 -1.560403974542865502e+00 1.815198981914306094e-05 -1.128543402730995959e+00 2.728680643170076081e-01 -2.048655168256826307e-04
-7.130590110600419640e-02 1.245118515251513770e-02 -6.578160268598876037e-01 1.109396653016523349e-01 -1.027761035573807324e-01 6.144507689157524544e-01 3.297141828928039087e-01 -4.764257122784973375e-01 6.264467659269670752e-02 8.146134291383201331e-01 3.548508321372563223e-01 3.936523815928676118e-02 -3.694373700637934022e-01 1.011301705949782415e+00 -3.709212566649577186e-02 -1.028560134502389395e-01 -8.990932011331518314e-01 -2.315278588121576220e-03 -7.116679927127399496e-01 9.969129372947593826e-02 -1.923720113116344707e-02
8.088603796511363575e-02 8.342094020342659400e-02 -1.047507726549526286e+00 6.324502923048282155e-02 8.789147190568342982e-02 9.060933386007715695e-01 3.335203414832666469e-01 -7.607843461054948353e-01 6.176546208298649976e-02 6.751105022817954771e-01 5.592409005270527755e-01 -4.181796793377255163e-03 -2.666741220232817233e-01 9.400495409042909367e-01 -2.001269733077391810e-02 -1.112057745008423193e-01 -1.344000734171317157e+00 1.129082048887810469e-01 -7.748819630144669901e-01 4.341821753142907636e-01 -9.064733476794215386e-03
2.173814423611504232e-01 9.237614467649623781e-03 1.220839071871891723e-01 -8.446722501036739439e-02 -1.291269820811516422e-01 -1.496261321702515856e-01 1.187814277476570840e-01 -1.040467428447207632e-01 2.950521098690369048e-01 -1.783152749463060016e-02 1.749599850434757353e-01 -3.002094861265749981e-01 -2.692857459862693648e-01 2.819204564976075106e-02 2.948165967999953271e-02 2.146562784731750797e-03 -6.242248183913150922e-02 -1.264023838359185081e-01 3.327506559772809569e-02 8.320651018205031668e-02 1.296202739744520271e-01
2.477360944806955845e-01 5.343441866494449272e-02 1.708152635607489145e-01 -1.308014388643832515e-01 -1.455408031754599207e-01 -1.888226031040810549e-01 1.197178750184684642e-01 -5.252203692171204114e-02 1.938109550258244884e-01 -1.908262639632960986e-02 1.040866463690823668e-01 -2.074597087077957591e-01 -3.191497248180626412e-01 2.033202836980190290e-02 1.757739963716259748e-02 -1.022424967631789007e-03 -2.105611792855629216e-01 -3.817190166598390944e-01 1.026022455472432870e-01 2.307708745568386177e-01 3.957976588259124462e-01
1.830594748916718473e-01 -1.236378820663237427e-01 2.198109807832044071e-01 2.026543679242006019e-04 -1.357154858986233670e-01 -1.312033023217107353e-01 1.076970925707301657e-01 -6.620282655172109176e-02 -1.379704978236626911e-01 -1.893455655303153129e-01 1.072265806533217875e-01 -1.606638789540449641e-01 1.330051315660812083e-01 9.339702698210373966e-02 -1.518091532008240541e-01 -2.512451363652800154e-02 6.796968879020764400e-04 2.233701591835783040e-01 -2.094941713854291121e-01 1.242528385712731304e-01 1.384656923334597056e-01
-4.132949428819469584e-01 1.790088557924266743e-01 4.400555524393692242e-01 3.900718630344910537e-02 -2.179559296989959372e-01 -8.085528756876278478e-02 -2.318012699449292502e-01 1.832512792033585414e-01 2.957958786530144324e-01 2.117652269955210831e-01 -1.109319519915308860e-01 1.519287095077065108e-01 1.200779323349377009e-01 8.076766436578312891e-02 -1.588597357166380772e-02 1.095046810866579790e-01 -6.009398777966851179e-02 -1.564351338130618163e-01 1.647411861063103333e-01 -5.404592989137296799e-02 -6.346036942245343315e-01
9.474829607124662934e-02 1.904084082429834957e-01 -7.752791984857215768e-02 1.129914572160252151e-01 3.275117757427928322e-02 -9.231402681898483176e-02 -3.180148397888601375e-01 2.285342203098883751e-01 -1.163321432516922077e-02 -6.887759681356965535e-02 1.229139107783245588e-01 1.094318160170440306e-02 -1.165362374375057547e-01 -1.556407657146875456e-01 -2.584154294541789187e-02 -1.166447379998808015e-01 -1.689451972328373519e-01 5.337816292312540234e-02 4.123337101746120115e-01 -2.500217539579507320e-01 1.429953594133143158e-01
-1.391549537259123837e-01 1.042743883374384478e-01 2.434123213590161927e-01 2.149792090569263917e-02 -5.138231821816675871e-02 -1.731268911820796619e-01 -2.761257037137003836e-02 2.220304600596176015e-01 -3.187509981068512716e-02 1.489502919374102452e-01 -8.824931807325117616e-02 1.285193789318513635e-01 -1.179617599920844556e-01 3.605843926608667122e-02 2.925272863559492953e-02 -8.977691343177038319e-02 -3.578564519812476447e-02 -2.049219782557716307e-01 2.040580361001018694e-01 -1.869459547515325559e-01 8.739540322073930528e-03
4.065932076718923316e-01 -1.682878175222199957e-01 -6.459141322321546030e-02 -1.211335245360917190e-01 -5.352836678222374495e-02 2.211272314443959441e-01 -7.061458283085247922e-02 1.432531382375731334e-02 1.497184347813716038e-02 -1.114643246561132922e-01 1.106820921656634232e-01 -7.866748428591502362e-02 9.001957416819117430e-02 2.140977833983147005e-01 -5.824726707039122597e-02 1.993181556084040462e-01 -4.584791536189222055e-02 9.025519008136768939e-02 -3.927184540033625826e-01 -7.144103829933198813e-02 -1.248481004243790632e-01
5.044322785308710255e-01 -1.381923326227555704e-01 -5.395979792835012279e-02 -1.013179794120220439e-01 -5.727605848196586080e-02 2.530141069085331540e-01 -6.151940749011227533e-02 -3.779347124480537945e-02 -4.915641118331903411e-03 -1.396709741730373378e-01 1.649522222712331843e-01 -6.757569290920403815e-02 1.316283057094025655e-01 2.428453416430221834e-01 -3.756567148588525751e-02 2.014493431949603564e-01 -3.625224903840493923e-02 6.953821611443801454e-02 -5.350016177821298458e-01 -1.382834011042561317e-01 -1.585354681591323589e-01
-6.429249674497558228e-03 5.714107555484050638e-02 -3.910247139448273790e-02 4.276365575010943054e-01 4.009183197272724736e-02 1.633559784526330549e-01 4.572095427729317568e-02 1.842395084961185314e-01 -1.302901492474661284e-02 -1.501214809462510513e-01 -2.149471731088886395e-01 6.023390722527159624e-02 7.838029203905974573e-02 2.064899399372597394e-02 -9.334807317386628611e-02 -2.581598617788216296e-02 2.237641550645819155e-02 8.883367844805215019e-03 -3.693710355967488868e-01 -1.095506524149818250e-01 -8.699369402961425191e-02
1.313667730742179574e-01 1.288101707234300120e-01 -2.587856683400084970e-02 -2.044469926184927788e-01 6.899535334809044074e-02 -1.223047135449325251e-01 3.037383255071378352e-02 -4.515063212691324337e-03 -5.141893073020990107e-02 5.692546282591227219e-02 3.001665487002322733e-02 6.847655610932179560e-02 1.669941925707180488e-02 -7.705211145821372343e-02 3.950294645598836224e-02 -1.205454103503649788e-01 -2.358282863152027717e-02 5.010411988690771819e-03 8.962691526094195005e-02 -1.226721756391183499e-01 8.661229655514234016e-02
9.186398088443203935e-02 1.760776436800736700e-01 -1.348229530734367798e-01 2.110502031472627771e-01 9.616296856958783668e-02 -1.491157167284815899e-01 -1.852210014980391894e-01 6.868563823568053783e-02 1.700527771442099237e-04 1.090845113733089206e-01 -1.155028595695015148e-01 -6.863694153778045204e-02 -4.617136016631831485e-02 -2.400340972140914755e-02 3.698743033711397732e-02 -1.724904916749926409e-01 -1.185714200240837873e-01 1.338791010249088254e-01 -8.115842065653572704e-03 -8.284861259241509124e-02 1.815389757784643399e-01
9.013321693731385365e-02 -3.653330663261029621e-01 1.203363796460737156e-01 -1.688109342146566771e-02 1.205114203637631387e-01 2.542620690641160877e-02 1.416931983986113031e-01 -3.745367422292181919e-02 -1.991354015805931743e-01 -9.654174351861845305e-02 3.286654812486917154e-01 2.629868512528242899e-02 -2.001113924212938600e-01 6.432067603795260657e-02 -4.597935016636171129e-02 8.022948100757590351e-02 -1.221535840886195934e-01 6.943593762222760590e-02 1.478333017876894920e-03 1.144269556516943308e-02 3.617542446959531085e-03
-2.395530951949179088e-01 -4.485413248584475127e-02 9.201860704133334179e-02 -5.655738366691671903e-02 4.692567047412853770e-02 -2.598197661169574305e-02 -4.661883499749730486e-02 6.343631932149474545e-03 -1.589666936169888134e-02 3.011744212227682183e-02 -1.189036580020483153e-01 -4.930152425773722674e-02 1.100561827603415838e-01 3.262874163161815638e-02 1.143708027540101813e-01 2.311772631561040403e-01 -1.541918461194071166e-01 -2.799520197546137568e-02 -2.862157417939050277e-02 2.320515925694039971e-01 -8.721398616668282755e-02
-1.471873377760518908e-01 -2.198015191227888077e-01 4.534404080710520146e-01 3.631344129870176657e-02 2.983763408431114317e-01 -1.106080443884975006e-01 2.366144783048483025e-01 1.971905161445035859e-01 7.537780894118455144e-02 -2.212478676146953926e-01 -7.278474834455585241e-02 -4.116055736991471870e-01 1.567041740700979569e-01 -1.773204122068415267e-01 -1.758658361841386741e-01 8.368267852688109076e-02 -2.545303894122075694e-01 3.095314842069532557e-01 -1.448795668097818679e-01 2.288702120987786692e-01 -1.402702469474064184e-01
-1.590057743882708208e-01 9.295901381134039076e-02 -5.300792403729585184e-02 3.599390457140387578e-02 6.198750257034926769e-02 5.782555469501787782e-02 1.366481793585089810e-01 -1.080348841319821590e-01 -1.762110839451747415e-02 -1.813717512150313238e-01 -4.655666571791842318e-02 -8.747803848317375897e-02 4.921266692513813490e-02 -5.573859008649118679e-02 2.493517758408017246e-02 1.395107430107810909e-01 7.437626133294815423e-02 9.285760949427707134e-02 -2.098791684046243805e-02 -1.899263777824603677e-02 -1.751127085838804359e-02
1.647696739316922149e-02 1.013380340183377970e-01 7.264729715819163991e-02 -4.498633862132637995e-02 7.166863236998220754e-02 3.569205703531784686e-04 -2.400099288423775817e-02 -1.340053936226306697e-01 5.424601315592335327e-02 1.471203862441977095e-01 2.915281555848842771e-02 1.890789421104505574e-03 1.395286378902628639e-02 -9.284110301061718196e-02 5.797221043146036194e-03 -8.249585720952749834e-02 1.988805023921130441e-02 -1.190533990625393911e-02 -2.606697728923410701e-02 4.799015869295595801e-03 -1.230329528645322384e-01
1.411378400698670155e-01 -1.312796126698455856e-01 -6.777171383042380169e-03 -6.892156268126192753e-02 1.442366367001253480e-01 -7.939232974906131057e-02 -1.744618594758325647e-01 1.698532595224017949e-01 3.749460618863297706e-02 1.066408318826989748e-01 -4.483073544514302317e-02 3.126142885742265454e-02 3.488462773180457666e-02 -1.534917860927843998e-02 -3.434695859427211451e-02 3.808678271769034424e-02 5.064713691945771715e-03 8.205100490378978983e-02 -7.736671166703387725e-02 -1.276950831902058658e-01 -3.029058022346961879e-02
1.650818058812734967e-02 1.144552377888063133e-01 -2.264738923323143804e-01 -4.752972550077293884e-02 1.052018881685089363e-01 1.402846965483672825e-01 1.014146014768100429e-03 -1.541267457819820719e-01 1.086993600879112426e-01 7.639699431856533662e-02 -4.624216835323321367e-02 -1.625940576788363345e-01 1.243640130811569516e-01 -2.383063157468869042e-01 1.366467395406196494e-01 -3.021303574571531647e-01 1.319601837328947536e-01 -1.439401370590568524e-02 1.313767489553083756e-01 8.705792019189217967e-02 1.783116754015826380e-02
-2.931875457023453216e-02 1.610056814365601052e-01 -1.737839623602921713e-01 1.056201552653613651e-01 1.452409611000054779e-01 5.080387138112556905e-02 -4.351314781019711975e-02 -6.179266435668147317e-02 1.294146371266142181e-01 -2.630866100637283683e-02 -1.527327963768338424e-02 -5.318430172873964135e-02 2.148343530928455980e-01 -1.503352939028176072e-01 -2.237250742932999151e-02 -3.710375733815892141e-01 2.163933159125253775e-02 -2.865947224312055674e-02 1.497235769881192224e-01 -1.004847876527031197e-01 9.778178667581005623e-02
-4.177860948332617341e-01 -1.284541603236711627e+00 5.743742092970657159e-02 -2.052258826745566866e-01 1.230517270613678438e+00 4.080141536624656839e-01 5.142327589491164641e-01 -2.278248014669849719e-01 8.293173636449057140e-01 5.367484254143005673e-01 8.750868603538965174e-02 -8.586980818064491316e-01 -2.156941814831172533e-01 3.348954704117185210e-01 -7.229095765720094935e-01 -2.191162686515992775e-01 5.856161016887400095e-01 2.026425408486810242e-01 6.841191857050404543e-03 -7.261711240458303962e-01 8.419623071476715903e-02