 Set GAUSS_MDEF to "14GB".
 Entering Gaussian System, Link 0=g16
 Initial command:
 /home/sekinelabo/g16/l1.exe "/home/sekinelabo/g16temp/Gau-316045.inp" -scrdir="/home/sekinelabo/g16temp/"
 Entering Link 1 = /home/sekinelabo/g16/l1.exe PID=    316047.
  
 Copyright (c) 1988-2017, Gaussian, Inc.  All Rights Reserved.
  
 This is part of the Gaussian(R) 16 program.  It is based on
 the Gaussian(R) 09 system (copyright 2009, Gaussian, Inc.),
 the Gaussian(R) 03 system (copyright 2003, Gaussian, Inc.),
 the Gaussian(R) 98 system (copyright 1998, Gaussian, Inc.),
 the Gaussian(R) 94 system (copyright 1995, Gaussian, Inc.),
 the Gaussian 92(TM) system (copyright 1992, Gaussian, Inc.),
 the Gaussian 90(TM) system (copyright 1990, Gaussian, Inc.),
 the Gaussian 88(TM) system (copyright 1988, Gaussian, Inc.),
 the Gaussian 86(TM) system (copyright 1986, Carnegie Mellon
 University), and the Gaussian 82(TM) system (copyright 1983,
 Carnegie Mellon University). Gaussian is a federally registered
 trademark of Gaussian, Inc.
  
 This software contains proprietary and confidential information,
 including trade secrets, belonging to Gaussian, Inc.
  
 This software is provided under written license and may be
 used, copied, transmitted, or stored only in accord with that
 written license.
  
 The following legend is applicable only to US Government
 contracts under FAR:
  
                    RESTRICTED RIGHTS LEGEND
  
 Use, reproduction and disclosure by the US Government is
 subject to restrictions as set forth in subparagraphs (a)
 and (c) of the Commercial Computer Software - Restricted
 Rights clause in FAR 52.227-19.
  
 Gaussian, Inc.
 340 Quinnipiac St., Bldg. 40, Wallingford CT 06492
  
  
 ---------------------------------------------------------------
 Warning -- This program may not be used in any manner that
 competes with the business of Gaussian, Inc. or will provide
 assistance to any competitor of Gaussian, Inc.  The licensee
 of this program is prohibited from giving any competitor of
 Gaussian, Inc. access to this program.  By using this program,
 the user acknowledges that Gaussian, Inc. is engaged in the
 business of creating and licensing software in the field of
 computational chemistry and represents and warrants to the
 licensee that it is not a competitor of Gaussian, Inc. and that
 it will not use this program in any manner prohibited above.
 ---------------------------------------------------------------
  

 Cite this work as:
 Gaussian 16, Revision B.01,
 M. J. Frisch, G. W. Trucks, H. B. Schlegel, G. E. Scuseria, 
 M. A. Robb, J. R. Cheeseman, G. Scalmani, V. Barone, 
 G. A. Petersson, H. Nakatsuji, X. Li, M. Caricato, A. V. Marenich, 
 J. Bloino, B. G. Janesko, R. Gomperts, B. Mennucci, H. P. Hratchian, 
 J. V. Ortiz, A. F. Izmaylov, J. L. Sonnenberg, D. Williams-Young, 
 F. Ding, F. Lipparini, F. Egidi, J. Goings, B. Peng, A. Petrone, 
 T. Henderson, D. Ranasinghe, V. G. Zakrzewski, J. Gao, N. Rega, 
 G. Zheng, W. Liang, M. Hada, M. Ehara, K. Toyota, R. Fukuda, 
 J. Hasegawa, M. Ishida, T. Nakajima, Y. Honda, O. Kitao, H. Nakai, 
 T. Vreven, K. Throssell, J. A. Montgomery, Jr., J. E. Peralta, 
 F. Ogliaro, M. J. Bearpark, J. J. Heyd, E. N. Brothers, K. N. Kudin, 
 V. N. Staroverov, T. A. Keith, R. Kobayashi, J. Normand, 
 K. Raghavachari, A. P. Rendell, J. C. Burant, S. S. Iyengar, 
 J. Tomasi, M. Cossi, J. M. Millam, M. Klene, C. Adamo, R. Cammi, 
 J. W. Ochterski, R. L. Martin, K. Morokuma, O. Farkas, 
 J. B. Foresman, and D. J. Fox, Gaussian, Inc., Wallingford CT, 2016.
 
 ******************************************
 Gaussian 16:  ES64L-G16RevB.01 20-Dec-2017
                29-Nov-2023 
 ******************************************
 %nproc=15
 Will use up to   15 processors via shared memory.
 -------------------------
 #P B3LYP/6-311+g(d) force
 -------------------------
 1/10=7,30=1,38=1/1,3;
 2/12=2,17=6,18=5,40=1/2;
 3/5=4,6=6,7=11,11=2,25=1,30=1,71=1,74=-5/1,2,3;
 4//1;
 5/5=2,38=5/2;
 6/7=2,8=2,9=2,10=2,28=1/1;
 7/29=1/1,2,3,16;
 1/10=7,30=1/3;
 99//99;
 Leave Link    1 at Wed Nov 29 02:30:41 2023, MaxMem=           0 cpu:               0.3 elap:               0.0
 (Enter /home/sekinelabo/g16/l101.exe)
 -----
 DPGEN
 -----
 Symbolic Z-matrix:
 Charge =  0 Multiplicity = 2
 Na                    15.4423   16.6815   12.3 
 Na                    14.9564   13.4929   10.9865 
 Na                    15.7971   12.91     18.1041 
 Na                    14.5274   19.6021   14.6605 
 Na                    16.7066   13.8685   21.0127 
 Na                    15.4363   14.1146   14.2096 
 Na                    14.5594   16.7558   16.1522 
 
 ITRead=  0  0  0  0  0  0  0
 MicOpt= -1 -1 -1 -1 -1 -1 -1
 NAtoms=      7 NQM=        7 NQMF=       0 NMMI=      0 NMMIF=      0
                NMic=       0 NMicF=      0.
                    Isotopes and Nuclear Properties:
 (Nuclear quadrupole moments (NQMom) in fm**2, nuclear magnetic moments (NMagM)
  in nuclear magnetons)

  Atom         1           2           3           4           5           6           7
 IAtWgt=          23          23          23          23          23          23          23
 AtmWgt=  22.9897697  22.9897697  22.9897697  22.9897697  22.9897697  22.9897697  22.9897697
 NucSpn=           3           3           3           3           3           3           3
 AtZEff=  -0.0000000  -0.0000000  -0.0000000  -0.0000000  -0.0000000  -0.0000000  -0.0000000
 NQMom=   10.4000000  10.4000000  10.4000000  10.4000000  10.4000000  10.4000000  10.4000000
 NMagM=    2.2175200   2.2175200   2.2175200   2.2175200   2.2175200   2.2175200   2.2175200
 AtZNuc=  11.0000000  11.0000000  11.0000000  11.0000000  11.0000000  11.0000000  11.0000000
 Leave Link  101 at Wed Nov 29 02:30:41 2023, MaxMem=  1879048192 cpu:               2.4 elap:               0.2
 (Enter /home/sekinelabo/g16/l103.exe)

 GradGradGradGradGradGradGradGradGradGradGradGradGradGradGradGradGradGrad
 Berny optimization.
 Initialization pass.
 Trust Radius=3.00D-01 FncErr=1.00D-07 GrdErr=1.00D-07 EigMax=2.50D+02 EigMin=1.00D-04
 Number of steps in this run=      2 maximum allowed number of steps=      2.
 GradGradGradGradGradGradGradGradGradGradGradGradGradGradGradGradGradGrad

 Leave Link  103 at Wed Nov 29 02:30:41 2023, MaxMem=  1879048192 cpu:               0.2 elap:               0.0
 (Enter /home/sekinelabo/g16/l202.exe)
                          Input orientation:                          
 ---------------------------------------------------------------------
 Center     Atomic      Atomic             Coordinates (Angstroms)
 Number     Number       Type             X           Y           Z
 ---------------------------------------------------------------------
      1         11           0       15.442300   16.681500   12.300000
      2         11           0       14.956400   13.492900   10.986500
      3         11           0       15.797100   12.910000   18.104100
      4         11           0       14.527400   19.602100   14.660500
      5         11           0       16.706600   13.868500   21.012700
      6         11           0       15.436300   14.114600   14.209600
      7         11           0       14.559400   16.755800   16.152200
 ---------------------------------------------------------------------
                    Distance matrix (angstroms):
                    1          2          3          4          5
     1  Na   0.000000
     2  Na   3.482607   0.000000
     3  Na   6.930921   7.190743   0.000000
     4  Na   3.865088   7.141753   7.632478   0.000000
     5  Na   9.242433  10.184742   3.194662   8.830262   0.000000
     6  Na   3.199310   3.317407   4.092477   5.580508   6.925056
     7  Na   3.952781   6.122792   4.486869   3.213661   6.047432
                    6          7
     6  Na   0.000000
     7  Na   3.393904   0.000000
 Stoichiometry    Na7(2)
 Framework group  C1[X(Na7)]
 Deg. of freedom    15
 Full point group                 C1      NOp   1
 Largest Abelian subgroup         C1      NOp   1
 Largest concise Abelian subgroup C1      NOp   1
                         Standard orientation:                         
 ---------------------------------------------------------------------
 Center     Atomic      Atomic             Coordinates (Angstroms)
 Number     Number       Type             X           Y           Z
 ---------------------------------------------------------------------
      1         11           0        3.246692    0.293851    0.667334
      2         11           0        3.630093   -3.064429   -0.171423
      3         11           0       -3.384702   -1.486970   -0.276575
      4         11           0        2.023777    3.892950   -0.032577
      5         11           0       -5.992356    0.218417    0.428874
      6         11           0        0.696695   -1.527196    0.021664
      7         11           0       -0.220199    1.673377   -0.637296
 ---------------------------------------------------------------------
 Rotational constants (GHZ):           0.6628056           0.2860274           0.2040428
 Leave Link  202 at Wed Nov 29 02:30:41 2023, MaxMem=  1879048192 cpu:               0.0 elap:               0.0
 (Enter /home/sekinelabo/g16/l301.exe)
 Standard basis: 6-311+G(d) (5D, 7F)
 Ernie: Thresh=  0.10000D-02 Tol=  0.10000D-05 Strict=F.
 There are   217 symmetry adapted cartesian basis functions of A   symmetry.
 There are   210 symmetry adapted basis functions of A   symmetry.
   210 basis functions,   350 primitive gaussians,   217 cartesian basis functions
    39 alpha electrons       38 beta electrons
       nuclear repulsion energy       276.9461091735 Hartrees.
 IExCor=  402 DFT=T Ex+Corr=B3LYP ExCW=0 ScaHFX=  0.200000
 ScaDFX=  0.800000  0.720000  1.000000  0.810000 ScalE2=  1.000000  1.000000
 IRadAn=      5 IRanWt=     -1 IRanGd=            0 ICorTp=0 IEmpDi=  4
 NAtoms=    7 NActive=    7 NUniq=    7 SFac= 1.00D+00 NAtFMM=   60 NAOKFM=F Big=F
 Integral buffers will be    131072 words long.
 Raffenetti 2 integral format.
 Two-electron integral symmetry is turned on.
 Leave Link  301 at Wed Nov 29 02:30:41 2023, MaxMem=  1879048192 cpu:               0.5 elap:               0.0
 (Enter /home/sekinelabo/g16/l302.exe)
 NPDir=0 NMtPBC=     1 NCelOv=     1 NCel=       1 NClECP=     1 NCelD=      1
         NCelK=      1 NCelE2=     1 NClLst=     1 CellRange=     0.0.
 One-electron integrals computed using PRISM.
 One-electron integral symmetry used in STVInt
 NBasis=   210 RedAO= T EigKep=  7.22D-06  NBF=   210
 NBsUse=   210 1.00D-06 EigRej= -1.00D+00 NBFU=   210
 Precomputing XC quadrature grid using
 IXCGrd= 4 IRadAn=           5 IRanWt=          -1 IRanGd=           0 AccXCQ= 0.00D+00.
 Generated NRdTot=       0 NPtTot=           0 NUsed=           0 NTot=          32
 NSgBfM=   204   204   204   204   204 MxSgAt=     7 MxSgA2=     7.
 Leave Link  302 at Wed Nov 29 02:30:41 2023, MaxMem=  1879048192 cpu:               2.0 elap:               0.1
 (Enter /home/sekinelabo/g16/l303.exe)
 DipDrv:  MaxL=1.
 Leave Link  303 at Wed Nov 29 02:30:41 2023, MaxMem=  1879048192 cpu:               0.5 elap:               0.0
 (Enter /home/sekinelabo/g16/l401.exe)
 ExpMin= 7.60D-03 ExpMax= 3.62D+04 ExpMxC= 1.21D+03 IAcc=3 IRadAn=         5 AccDes= 0.00D+00
 Harris functional with IExCor=  402 and IRadAn=       5 diagonalized for initial guess.
 HarFok:  IExCor=  402 AccDes= 0.00D+00 IRadAn=         5 IDoV= 1 UseB2=F ITyADJ=14
 ICtDFT=  3500011 ScaDFX=  1.000000  1.000000  1.000000  1.000000
 FoFCou: FMM=F IPFlag=           0 FMFlag=      100000 FMFlg1=           0
         NFxFlg=           0 DoJE=T BraDBF=F KetDBF=T FulRan=T
         wScrn=  0.000000 ICntrl=       500 IOpCl=  0 I1Cent=   200000004 NGrid=           0
         NMat0=    1 NMatS0=      1 NMatT0=    0 NMatD0=    1 NMtDS0=    0 NMtDT0=    0
 Petite list used in FoFCou.
 Harris En= -1135.89000708455    
 JPrj=0 DoOrth=F DoCkMO=F.
 Initial guess <Sx>= 0.0000 <Sy>= 0.0000 <Sz>= 0.5000 <S**2>= 0.7500 S= 0.5000
 Leave Link  401 at Wed Nov 29 02:30:42 2023, MaxMem=  1879048192 cpu:               4.2 elap:               0.3
 (Enter /home/sekinelabo/g16/l502.exe)
 Keep R1 and R2 ints in memory in canonical form, NReq=506573293.
 FoFCou: FMM=F IPFlag=           0 FMFlag=           0 FMFlg1=           0
         NFxFlg=           0 DoJE=F BraDBF=F KetDBF=F FulRan=T
         wScrn=  0.000000 ICntrl=       600 IOpCl=  0 I1Cent=           0 NGrid=           0
         NMat0=    1 NMatS0=  22155 NMatT0=    0 NMatD0=    1 NMtDS0=    0 NMtDT0=    0
 Symmetry not used in FoFCou.
 Two-electron integral symmetry not used.
 UHF open shell SCF:
 Using DIIS extrapolation, IDIIS=  1040.
 NGot=  1879048192 LenX=  1388082607 LenY=  1388035077
 Requested convergence on RMS density matrix=1.00D-08 within 128 cycles.
 Requested convergence on MAX density matrix=1.00D-06.
 Requested convergence on             energy=1.00D-06.
 No special actions if energy rises.

 Cycle   1  Pass 1  IDiag  1:
 E= -1136.09458452299    
 DIIS: error= 1.02D-02 at cycle   1 NSaved=   1.
 NSaved= 1 IEnMin= 1 EnMin= -1136.09458452299     IErMin= 1 ErrMin= 1.02D-02
 ErrMax= 1.02D-02  0.00D+00 EMaxC= 1.00D-01 BMatC= 1.83D-01 BMatP= 1.83D-01
 IDIUse=3 WtCom= 8.98D-01 WtEn= 1.02D-01
 Coeff-Com:  0.100D+01
 Coeff-En:   0.100D+01
 Coeff:      0.100D+01
 Gap=     0.038 Goal=   None    Shift=    0.000
 Gap=     0.052 Goal=   None    Shift=    0.000
 GapD=    0.038 DampG=0.250 DampE=0.500 DampFc=0.2500 IDamp=-1.
 Damping current iteration by 2.50D-01
 RMSDP=1.95D-02 MaxDP=1.72D+00              OVMax= 1.80D-01

 Cycle   2  Pass 1  IDiag  1:
 E= -1136.10326705273     Delta-E=       -0.008682529740 Rises=F Damp=T
 DIIS: error= 7.12D-03 at cycle   2 NSaved=   2.
 NSaved= 2 IEnMin= 2 EnMin= -1136.10326705273     IErMin= 2 ErrMin= 7.12D-03
 ErrMax= 7.12D-03  0.00D+00 EMaxC= 1.00D-01 BMatC= 7.08D-02 BMatP= 1.83D-01
 IDIUse=3 WtCom= 9.29D-01 WtEn= 7.12D-02
 Coeff-Com: -0.130D+01 0.230D+01
 Coeff-En:   0.000D+00 0.100D+01
 Coeff:     -0.121D+01 0.221D+01
 Gap=     0.046 Goal=   None    Shift=    0.000
 Gap=     0.049 Goal=   None    Shift=    0.000
 RMSDP=1.47D-02 MaxDP=1.24D+00 DE=-8.68D-03 OVMax= 1.14D-01

 Cycle   3  Pass 1  IDiag  1:
 E= -1136.11986292287     Delta-E=       -0.016595870135 Rises=F Damp=F
 DIIS: error= 2.11D-03 at cycle   3 NSaved=   3.
 NSaved= 3 IEnMin= 3 EnMin= -1136.11986292287     IErMin= 3 ErrMin= 2.11D-03
 ErrMax= 2.11D-03  0.00D+00 EMaxC= 1.00D-01 BMatC= 1.28D-03 BMatP= 7.08D-02
 IDIUse=3 WtCom= 9.79D-01 WtEn= 2.11D-02
 Coeff-Com: -0.125D+00 0.214D+00 0.911D+00
 Coeff-En:   0.000D+00 0.000D+00 0.100D+01
 Coeff:     -0.122D+00 0.210D+00 0.912D+00
 Gap=     0.045 Goal=   None    Shift=    0.000
 Gap=     0.051 Goal=   None    Shift=    0.000
 RMSDP=2.68D-03 MaxDP=1.29D-01 DE=-1.66D-02 OVMax= 7.50D-02

 Cycle   4  Pass 1  IDiag  1:
 E= -1136.11919564191     Delta-E=        0.000667280955 Rises=F Damp=F
 DIIS: error= 2.56D-03 at cycle   4 NSaved=   4.
 NSaved= 4 IEnMin= 3 EnMin= -1136.11986292287     IErMin= 3 ErrMin= 2.11D-03
 ErrMax= 2.56D-03  0.00D+00 EMaxC= 1.00D-01 BMatC= 1.97D-03 BMatP= 1.28D-03
 IDIUse=3 WtCom= 1.65D-01 WtEn= 8.35D-01
 Coeff-Com: -0.555D-02 0.667D-02 0.555D+00 0.444D+00
 Coeff-En:   0.000D+00 0.000D+00 0.582D+00 0.418D+00
 Coeff:     -0.916D-03 0.110D-02 0.578D+00 0.422D+00
 Gap=     0.045 Goal=   None    Shift=    0.000
 Gap=     0.051 Goal=   None    Shift=    0.000
 RMSDP=1.33D-03 MaxDP=7.13D-02 DE= 6.67D-04 OVMax= 5.08D-02

 Cycle   5  Pass 1  IDiag  1:
 E= -1136.12132513895     Delta-E=       -0.002129497041 Rises=F Damp=F
 DIIS: error= 1.31D-04 at cycle   5 NSaved=   5.
 NSaved= 5 IEnMin= 5 EnMin= -1136.12132513895     IErMin= 5 ErrMin= 1.31D-04
 ErrMax= 1.31D-04  0.00D+00 EMaxC= 1.00D-01 BMatC= 1.43D-05 BMatP= 1.28D-03
 IDIUse=3 WtCom= 9.99D-01 WtEn= 1.31D-03
 Coeff-Com:  0.422D-02-0.682D-02 0.108D+00 0.437D-01 0.851D+00
 Coeff-En:   0.000D+00 0.000D+00 0.000D+00 0.000D+00 0.100D+01
 Coeff:      0.421D-02-0.681D-02 0.107D+00 0.437D-01 0.851D+00
 Gap=     0.045 Goal=   None    Shift=    0.000
 Gap=     0.051 Goal=   None    Shift=    0.000
 RMSDP=2.79D-04 MaxDP=2.16D-02 DE=-2.13D-03 OVMax= 6.86D-03

 Cycle   6  Pass 1  IDiag  1:
 E= -1136.12134986158     Delta-E=       -0.000024722631 Rises=F Damp=F
 DIIS: error= 9.58D-05 at cycle   6 NSaved=   6.
 NSaved= 6 IEnMin= 6 EnMin= -1136.12134986158     IErMin= 6 ErrMin= 9.58D-05
 ErrMax= 9.58D-05  0.00D+00 EMaxC= 1.00D-01 BMatC= 4.97D-06 BMatP= 1.43D-05
 IDIUse=1 WtCom= 1.00D+00 WtEn= 0.00D+00
 Coeff-Com:  0.249D-02-0.376D-02-0.851D-01-0.873D-01 0.408D+00 0.766D+00
 Coeff:      0.249D-02-0.376D-02-0.851D-01-0.873D-01 0.408D+00 0.766D+00
 Gap=     0.045 Goal=   None    Shift=    0.000
 Gap=     0.051 Goal=   None    Shift=    0.000
 RMSDP=1.69D-04 MaxDP=1.09D-02 DE=-2.47D-05 OVMax= 5.62D-03

 Cycle   7  Pass 1  IDiag  1:
 E= -1136.12136136747     Delta-E=       -0.000011505890 Rises=F Damp=F
 DIIS: error= 5.13D-05 at cycle   7 NSaved=   7.
 NSaved= 7 IEnMin= 7 EnMin= -1136.12136136747     IErMin= 7 ErrMin= 5.13D-05
 ErrMax= 5.13D-05  0.00D+00 EMaxC= 1.00D-01 BMatC= 1.19D-06 BMatP= 4.97D-06
 IDIUse=1 WtCom= 1.00D+00 WtEn= 0.00D+00
 Coeff-Com:  0.406D-03-0.480D-03-0.713D-01-0.554D-01 0.188D-01 0.372D+00
 Coeff-Com:  0.736D+00
 Coeff:      0.406D-03-0.480D-03-0.713D-01-0.554D-01 0.188D-01 0.372D+00
 Coeff:      0.736D+00
 Gap=     0.045 Goal=   None    Shift=    0.000
 Gap=     0.052 Goal=   None    Shift=    0.000
 RMSDP=8.32D-05 MaxDP=4.70D-03 DE=-1.15D-05 OVMax= 2.64D-03

 Cycle   8  Pass 1  IDiag  1:
 E= -1136.12136469533     Delta-E=       -0.000003327861 Rises=F Damp=F
 DIIS: error= 1.26D-05 at cycle   8 NSaved=   8.
 NSaved= 8 IEnMin= 8 EnMin= -1136.12136469533     IErMin= 8 ErrMin= 1.26D-05
 ErrMax= 1.26D-05  0.00D+00 EMaxC= 1.00D-01 BMatC= 1.37D-07 BMatP= 1.19D-06
 IDIUse=1 WtCom= 1.00D+00 WtEn= 0.00D+00
 Coeff-Com:  0.291D-03-0.263D-03-0.506D-02 0.345D-03-0.620D-01-0.696D-01
 Coeff-Com:  0.150D+00 0.986D+00
 Coeff:      0.291D-03-0.263D-03-0.506D-02 0.345D-03-0.620D-01-0.696D-01
 Coeff:      0.150D+00 0.986D+00
 Gap=     0.045 Goal=   None    Shift=    0.000
 Gap=     0.052 Goal=   None    Shift=    0.000
 RMSDP=5.43D-05 MaxDP=3.86D-03 DE=-3.33D-06 OVMax= 1.78D-03

 Cycle   9  Pass 1  IDiag  1:
 E= -1136.12136542583     Delta-E=       -0.000000730495 Rises=F Damp=F
 DIIS: error= 6.88D-06 at cycle   9 NSaved=   9.
 NSaved= 9 IEnMin= 9 EnMin= -1136.12136542583     IErMin= 9 ErrMin= 6.88D-06
 ErrMax= 6.88D-06  0.00D+00 EMaxC= 1.00D-01 BMatC= 2.04D-08 BMatP= 1.37D-07
 IDIUse=1 WtCom= 1.00D+00 WtEn= 0.00D+00
 Coeff-Com:  0.804D-04-0.904D-04 0.915D-02 0.743D-02-0.490D-02-0.564D-01
 Coeff-Com: -0.114D+00 0.870D-01 0.107D+01
 Coeff:      0.804D-04-0.904D-04 0.915D-02 0.743D-02-0.490D-02-0.564D-01
 Coeff:     -0.114D+00 0.870D-01 0.107D+01
 Gap=     0.045 Goal=   None    Shift=    0.000
 Gap=     0.052 Goal=   None    Shift=    0.000
 RMSDP=2.44D-05 MaxDP=1.69D-03 DE=-7.30D-07 OVMax= 7.65D-04

 Cycle  10  Pass 1  IDiag  1:
 E= -1136.12136556703     Delta-E=       -0.000000141202 Rises=F Damp=F
 DIIS: error= 2.64D-06 at cycle  10 NSaved=  10.
 NSaved=10 IEnMin=10 EnMin= -1136.12136556703     IErMin=10 ErrMin= 2.64D-06
 ErrMax= 2.64D-06  0.00D+00 EMaxC= 1.00D-01 BMatC= 4.12D-09 BMatP= 2.04D-08
 IDIUse=1 WtCom= 1.00D+00 WtEn= 0.00D+00
 Coeff-Com: -0.192D-03 0.239D-03 0.146D-02 0.298D-03 0.126D-01 0.104D-01
 Coeff-Com: -0.379D-01-0.181D+00 0.609D-01 0.113D+01
 Coeff:     -0.192D-03 0.239D-03 0.146D-02 0.298D-03 0.126D-01 0.104D-01
 Coeff:     -0.379D-01-0.181D+00 0.609D-01 0.113D+01
 Gap=     0.045 Goal=   None    Shift=    0.000
 Gap=     0.052 Goal=   None    Shift=    0.000
 RMSDP=1.08D-05 MaxDP=6.09D-04 DE=-1.41D-07 OVMax= 3.63D-04

 Cycle  11  Pass 1  IDiag  1:
 E= -1136.12136559596     Delta-E=       -0.000000028933 Rises=F Damp=F
 DIIS: error= 1.77D-06 at cycle  11 NSaved=  11.
 NSaved=11 IEnMin=11 EnMin= -1136.12136559596     IErMin=11 ErrMin= 1.77D-06
 ErrMax= 1.77D-06  0.00D+00 EMaxC= 1.00D-01 BMatC= 1.14D-09 BMatP= 4.12D-09
 IDIUse=1 WtCom= 1.00D+00 WtEn= 0.00D+00
 Coeff-Com: -0.780D-04 0.952D-04-0.743D-03-0.890D-03 0.595D-02 0.104D-01
 Coeff-Com: -0.594D-03-0.737D-01-0.128D+00 0.424D+00 0.764D+00
 Coeff:     -0.780D-04 0.952D-04-0.743D-03-0.890D-03 0.595D-02 0.104D-01
 Coeff:     -0.594D-03-0.737D-01-0.128D+00 0.424D+00 0.764D+00
 Gap=     0.045 Goal=   None    Shift=    0.000
 Gap=     0.052 Goal=   None    Shift=    0.000
 RMSDP=3.57D-06 MaxDP=2.22D-04 DE=-2.89D-08 OVMax= 1.34D-04

 Cycle  12  Pass 1  IDiag  1:
 E= -1136.12136560078     Delta-E=       -0.000000004819 Rises=F Damp=F
 DIIS: error= 9.97D-07 at cycle  12 NSaved=  12.
 NSaved=12 IEnMin=12 EnMin= -1136.12136560078     IErMin=12 ErrMin= 9.97D-07
 ErrMax= 9.97D-07  0.00D+00 EMaxC= 1.00D-01 BMatC= 3.96D-10 BMatP= 1.14D-09
 IDIUse=1 WtCom= 1.00D+00 WtEn= 0.00D+00
 Coeff-Com:  0.432D-04-0.574D-04-0.549D-03-0.255D-03-0.137D-02 0.140D-03
 Coeff-Com:  0.934D-02 0.251D-01-0.607D-01-0.174D+00 0.308D+00 0.895D+00
 Coeff:      0.432D-04-0.574D-04-0.549D-03-0.255D-03-0.137D-02 0.140D-03
 Coeff:      0.934D-02 0.251D-01-0.607D-01-0.174D+00 0.308D+00 0.895D+00
 Gap=     0.045 Goal=   None    Shift=    0.000
 Gap=     0.052 Goal=   None    Shift=    0.000
 RMSDP=2.24D-06 MaxDP=1.29D-04 DE=-4.82D-09 OVMax= 8.45D-05

 Cycle  13  Pass 1  IDiag  1:
 E= -1136.12136560300     Delta-E=       -0.000000002221 Rises=F Damp=F
 DIIS: error= 6.34D-07 at cycle  13 NSaved=  13.
 NSaved=13 IEnMin=13 EnMin= -1136.12136560300     IErMin=13 ErrMin= 6.34D-07
 ErrMax= 6.34D-07  0.00D+00 EMaxC= 1.00D-01 BMatC= 1.14D-10 BMatP= 3.96D-10
 IDIUse=1 WtCom= 1.00D+00 WtEn= 0.00D+00
 Coeff-Com:  0.471D-04-0.591D-04 0.275D-04 0.193D-03-0.276D-02-0.321D-02
 Coeff-Com:  0.354D-02 0.328D-01 0.380D-01-0.231D+00-0.196D+00 0.277D+00
 Coeff-Com:  0.108D+01
 Coeff:      0.471D-04-0.591D-04 0.275D-04 0.193D-03-0.276D-02-0.321D-02
 Coeff:      0.354D-02 0.328D-01 0.380D-01-0.231D+00-0.196D+00 0.277D+00
 Coeff:      0.108D+01
 Gap=     0.045 Goal=   None    Shift=    0.000
 Gap=     0.052 Goal=   None    Shift=    0.000
 RMSDP=1.90D-06 MaxDP=1.04D-04 DE=-2.22D-09 OVMax= 8.33D-05

 Cycle  14  Pass 1  IDiag  1:
 E= -1136.12136560399     Delta-E=       -0.000000000990 Rises=F Damp=F
 DIIS: error= 3.31D-07 at cycle  14 NSaved=  14.
 NSaved=14 IEnMin=14 EnMin= -1136.12136560399     IErMin=14 ErrMin= 3.31D-07
 ErrMax= 3.31D-07  0.00D+00 EMaxC= 1.00D-01 BMatC= 2.28D-11 BMatP= 1.14D-10
 IDIUse=1 WtCom= 1.00D+00 WtEn= 0.00D+00
 Coeff-Com: -0.298D-04 0.393D-04 0.125D-03-0.109D-04 0.838D-03 0.598D-03
 Coeff-Com: -0.232D-02-0.119D-01 0.202D-02 0.111D+00-0.735D-01-0.323D+00
 Coeff-Com: -0.160D+00 0.146D+01
 Coeff:     -0.298D-04 0.393D-04 0.125D-03-0.109D-04 0.838D-03 0.598D-03
 Coeff:     -0.232D-02-0.119D-01 0.202D-02 0.111D+00-0.735D-01-0.323D+00
 Coeff:     -0.160D+00 0.146D+01
 Gap=     0.045 Goal=   None    Shift=    0.000
 Gap=     0.052 Goal=   None    Shift=    0.000
 RMSDP=1.35D-06 MaxDP=8.45D-05 DE=-9.90D-10 OVMax= 4.86D-05

 Cycle  15  Pass 1  IDiag  1:
 E= -1136.12136560424     Delta-E=       -0.000000000247 Rises=F Damp=F
 DIIS: error= 1.16D-07 at cycle  15 NSaved=  15.
 NSaved=15 IEnMin=15 EnMin= -1136.12136560424     IErMin=15 ErrMin= 1.16D-07
 ErrMax= 1.16D-07  0.00D+00 EMaxC= 1.00D-01 BMatC= 2.76D-12 BMatP= 2.28D-11
 IDIUse=1 WtCom= 1.00D+00 WtEn= 0.00D+00
 Coeff-Com: -0.115D-04 0.148D-04 0.289D-04-0.167D-04 0.435D-03 0.541D-03
 Coeff-Com: -0.577D-03-0.719D-02-0.420D-02 0.490D-01 0.150D-01-0.817D-01
 Coeff-Com: -0.193D+00 0.238D+00 0.984D+00
 Coeff:     -0.115D-04 0.148D-04 0.289D-04-0.167D-04 0.435D-03 0.541D-03
 Coeff:     -0.577D-03-0.719D-02-0.420D-02 0.490D-01 0.150D-01-0.817D-01
 Coeff:     -0.193D+00 0.238D+00 0.984D+00
 Gap=     0.045 Goal=   None    Shift=    0.000
 Gap=     0.052 Goal=   None    Shift=    0.000
 RMSDP=3.12D-07 MaxDP=2.13D-05 DE=-2.47D-10 OVMax= 1.35D-05

 Cycle  16  Pass 1  IDiag  1:
 E= -1136.12136560426     Delta-E=       -0.000000000021 Rises=F Damp=F
 DIIS: error= 3.63D-08 at cycle  16 NSaved=  16.
 NSaved=16 IEnMin=16 EnMin= -1136.12136560426     IErMin=16 ErrMin= 3.63D-08
 ErrMax= 3.63D-08  0.00D+00 EMaxC= 1.00D-01 BMatC= 4.97D-13 BMatP= 2.76D-12
 IDIUse=1 WtCom= 1.00D+00 WtEn= 0.00D+00
 Coeff-Com:  0.423D-05-0.565D-05-0.120D-04 0.153D-05-0.106D-03-0.105D-03
 Coeff-Com:  0.378D-03 0.149D-02-0.123D-02-0.114D-01 0.119D-01 0.362D-01
 Coeff-Com:  0.151D-01-0.203D+00 0.850D-01 0.107D+01
 Coeff:      0.423D-05-0.565D-05-0.120D-04 0.153D-05-0.106D-03-0.105D-03
 Coeff:      0.378D-03 0.149D-02-0.123D-02-0.114D-01 0.119D-01 0.362D-01
 Coeff:      0.151D-01-0.203D+00 0.850D-01 0.107D+01
 Gap=     0.045 Goal=   None    Shift=    0.000
 Gap=     0.052 Goal=   None    Shift=    0.000
 RMSDP=1.09D-07 MaxDP=6.75D-06 DE=-2.14D-11 OVMax= 3.88D-06

 Cycle  17  Pass 1  IDiag  1:
 E= -1136.12136560428     Delta-E=       -0.000000000018 Rises=F Damp=F
 DIIS: error= 1.73D-08 at cycle  17 NSaved=  17.
 NSaved=17 IEnMin=17 EnMin= -1136.12136560428     IErMin=17 ErrMin= 1.73D-08
 ErrMax= 1.73D-08  0.00D+00 EMaxC= 1.00D-01 BMatC= 9.84D-14 BMatP= 4.97D-13
 IDIUse=1 WtCom= 1.00D+00 WtEn= 0.00D+00
 Coeff-Com:  0.306D-05-0.399D-05-0.993D-05 0.310D-05-0.118D-03-0.110D-03
 Coeff-Com:  0.220D-03 0.171D-02 0.303D-03-0.123D-01 0.129D-02 0.266D-01
 Coeff-Com:  0.365D-01-0.100D+00-0.160D+00 0.257D+00 0.949D+00
 Coeff:      0.306D-05-0.399D-05-0.993D-05 0.310D-05-0.118D-03-0.110D-03
 Coeff:      0.220D-03 0.171D-02 0.303D-03-0.123D-01 0.129D-02 0.266D-01
 Coeff:      0.365D-01-0.100D+00-0.160D+00 0.257D+00 0.949D+00
 Gap=     0.045 Goal=   None    Shift=    0.000
 Gap=     0.052 Goal=   None    Shift=    0.000
 RMSDP=5.76D-08 MaxDP=3.89D-06 DE=-1.77D-11 OVMax= 1.67D-06

 Cycle  18  Pass 1  IDiag  1:
 E= -1136.12136560427     Delta-E=        0.000000000010 Rises=F Damp=F
 DIIS: error= 6.17D-09 at cycle  18 NSaved=  18.
 NSaved=18 IEnMin=17 EnMin= -1136.12136560428     IErMin=18 ErrMin= 6.17D-09
 ErrMax= 6.17D-09  0.00D+00 EMaxC= 1.00D-01 BMatC= 1.50D-14 BMatP= 9.84D-14
 IDIUse=1 WtCom= 1.00D+00 WtEn= 0.00D+00
 Coeff-Com: -0.119D-07 0.338D-07-0.495D-06 0.687D-06-0.122D-04-0.153D-04
 Coeff-Com:  0.128D-04 0.170D-03 0.217D-03-0.118D-02-0.153D-02 0.182D-03
 Coeff-Com:  0.804D-02 0.748D-02-0.580D-01-0.944D-01 0.180D+00 0.959D+00
 Coeff:     -0.119D-07 0.338D-07-0.495D-06 0.687D-06-0.122D-04-0.153D-04
 Coeff:      0.128D-04 0.170D-03 0.217D-03-0.118D-02-0.153D-02 0.182D-03
 Coeff:      0.804D-02 0.748D-02-0.580D-01-0.944D-01 0.180D+00 0.959D+00
 Gap=     0.045 Goal=   None    Shift=    0.000
 Gap=     0.052 Goal=   None    Shift=    0.000
 RMSDP=2.51D-08 MaxDP=2.05D-06 DE= 1.05D-11 OVMax= 5.65D-07

 Cycle  19  Pass 1  IDiag  1:
 E= -1136.12136560427     Delta-E=       -0.000000000004 Rises=F Damp=F
 DIIS: error= 1.95D-09 at cycle  19 NSaved=  19.
 NSaved=19 IEnMin=17 EnMin= -1136.12136560428     IErMin=19 ErrMin= 1.95D-09
 ErrMax= 1.95D-09  0.00D+00 EMaxC= 1.00D-01 BMatC= 2.17D-15 BMatP= 1.50D-14
 IDIUse=1 WtCom= 1.00D+00 WtEn= 0.00D+00
 Large coefficients: NSaved= 19 BigCof=    0.00 CofMax=   10.00 Det=-6.65D-15
 Inversion failed.  Reducing to 18 matrices.
 Large coefficients: NSaved= 18 BigCof=    0.00 CofMax=   10.00 Det=-6.67D-15
 Inversion failed.  Reducing to 17 matrices.
 Large coefficients: NSaved= 17 BigCof=    0.00 CofMax=   10.00 Det=-6.68D-15
 Inversion failed.  Reducing to 16 matrices.
 Large coefficients: NSaved= 16 BigCof=    0.00 CofMax=   10.00 Det=-6.68D-15
 Inversion failed.  Reducing to 15 matrices.
 Coeff-Com: -0.132D-05-0.107D-05 0.324D-05 0.722D-05-0.154D-05 0.111D-03
 Coeff-Com: -0.291D-03-0.170D-03-0.107D-02 0.369D-02 0.944D-02-0.253D-01
 Coeff-Com: -0.889D-01 0.447D-01 0.106D+01
 Coeff:     -0.132D-05-0.107D-05 0.324D-05 0.722D-05-0.154D-05 0.111D-03
 Coeff:     -0.291D-03-0.170D-03-0.107D-02 0.369D-02 0.944D-02-0.253D-01
 Coeff:     -0.889D-01 0.447D-01 0.106D+01
 Gap=     0.045 Goal=   None    Shift=    0.000
 Gap=     0.052 Goal=   None    Shift=    0.000
 RMSDP=1.08D-08 MaxDP=1.04D-06 DE=-3.64D-12 OVMax= 2.35D-07

 Cycle  20  Pass 1  IDiag  1:
 E= -1136.12136560427     Delta-E=        0.000000000007 Rises=F Damp=F
 DIIS: error= 7.15D-10 at cycle  20 NSaved=  16.
 NSaved=16 IEnMin=13 EnMin= -1136.12136560428     IErMin=16 ErrMin= 7.15D-10
 ErrMax= 7.15D-10  0.00D+00 EMaxC= 1.00D-01 BMatC= 4.08D-16 BMatP= 2.17D-15
 IDIUse=1 WtCom= 1.00D+00 WtEn= 0.00D+00
 Large coefficients: NSaved= 16 BigCof=    0.00 CofMax=   10.00 Det=-8.94D-16
 Inversion failed.  Reducing to 15 matrices.
 Coeff-Com:  0.231D-05-0.427D-06-0.171D-04-0.270D-04 0.135D-03 0.291D-03
 Coeff-Com: -0.395D-04-0.150D-02-0.125D-02 0.103D-01 0.236D-01-0.362D-01
 Coeff-Com: -0.201D+00-0.507D-01 0.126D+01
 Coeff:      0.231D-05-0.427D-06-0.171D-04-0.270D-04 0.135D-03 0.291D-03
 Coeff:     -0.395D-04-0.150D-02-0.125D-02 0.103D-01 0.236D-01-0.362D-01
 Coeff:     -0.201D+00-0.507D-01 0.126D+01
 Gap=     0.045 Goal=   None    Shift=    0.000
 Gap=     0.052 Goal=   None    Shift=    0.000
 RMSDP=5.54D-09 MaxDP=4.29D-07 DE= 6.82D-12 OVMax= 1.30D-07

 SCF Done:  E(UB3LYP) =  -1136.12136560     A.U. after   20 cycles
            NFock= 20  Conv=0.55D-08     -V/T= 2.0029
 <Sx>= 0.0000 <Sy>= 0.0000 <Sz>= 0.5000 <S**2>= 0.7805 S= 0.5151
 <L.S>= 0.000000000000E+00
 KE= 1.132871171607D+03 PE=-3.283066395378D+03 EE= 7.371277489927D+02
 Annihilation of the first spin contaminant:
 S**2 before annihilation     0.7805,   after     0.7505
 Leave Link  502 at Wed Nov 29 02:30:58 2023, MaxMem=  1879048192 cpu:             175.2 elap:              15.9
 (Enter /home/sekinelabo/g16/l601.exe)
 Copying SCF densities to generalized density rwf, IOpCl= 1 IROHF=0.

 **********************************************************************

            Population analysis using the SCF Density.

 **********************************************************************

 Orbital symmetries:
 Alpha Orbitals:
       Occupied  (A) (A) (A) (A) (A) (A) (A) (A) (A) (A) (A) (A)
                 (A) (A) (A) (A) (A) (A) (A) (A) (A) (A) (A) (A)
                 (A) (A) (A) (A) (A) (A) (A) (A) (A) (A) (A) (A)
                 (A) (A) (A)
       Virtual   (A) (A) (A) (A) (A) (A) (A) (A) (A) (A) (A) (A)
                 (A) (A) (A) (A) (A) (A) (A) (A) (A) (A) (A) (A)
                 (A) (A) (A) (A) (A) (A) (A) (A) (A) (A) (A) (A)
                 (A) (A) (A) (A) (A) (A) (A) (A) (A) (A) (A) (A)
                 (A) (A) (A) (A) (A) (A) (A) (A) (A) (A) (A) (A)
                 (A) (A) (A) (A) (A) (A) (A) (A) (A) (A) (A) (A)
                 (A) (A) (A) (A) (A) (A) (A) (A) (A) (A) (A) (A)
                 (A) (A) (A) (A) (A) (A) (A) (A) (A) (A) (A) (A)
                 (A) (A) (A) (A) (A) (A) (A) (A) (A) (A) (A) (A)
                 (A) (A) (A) (A) (A) (A) (A) (A) (A) (A) (A) (A)
                 (A) (A) (A) (A) (A) (A) (A) (A) (A) (A) (A) (A)
                 (A) (A) (A) (A) (A) (A) (A) (A) (A) (A) (A) (A)
                 (A) (A) (A) (A) (A) (A) (A) (A) (A) (A) (A) (A)
                 (A) (A) (A) (A) (A) (A) (A) (A) (A) (A) (A) (A)
                 (A) (A) (A)
 Beta  Orbitals:
       Occupied  (A) (A) (A) (A) (A) (A) (A) (A) (A) (A) (A) (A)
                 (A) (A) (A) (A) (A) (A) (A) (A) (A) (A) (A) (A)
                 (A) (A) (A) (A) (A) (A) (A) (A) (A) (A) (A) (A)
                 (A) (A)
       Virtual   (A) (A) (A) (A) (A) (A) (A) (A) (A) (A) (A) (A)
                 (A) (A) (A) (A) (A) (A) (A) (A) (A) (A) (A) (A)
                 (A) (A) (A) (A) (A) (A) (A) (A) (A) (A) (A) (A)
                 (A) (A) (A) (A) (A) (A) (A) (A) (A) (A) (A) (A)
                 (A) (A) (A) (A) (A) (A) (A) (A) (A) (A) (A) (A)
                 (A) (A) (A) (A) (A) (A) (A) (A) (A) (A) (A) (A)
                 (A) (A) (A) (A) (A) (A) (A) (A) (A) (A) (A) (A)
                 (A) (A) (A) (A) (A) (A) (A) (A) (A) (A) (A) (A)
                 (A) (A) (A) (A) (A) (A) (A) (A) (A) (A) (A) (A)
                 (A) (A) (A) (A) (A) (A) (A) (A) (A) (A) (A) (A)
                 (A) (A) (A) (A) (A) (A) (A) (A) (A) (A) (A) (A)
                 (A) (A) (A) (A) (A) (A) (A) (A) (A) (A) (A) (A)
                 (A) (A) (A) (A) (A) (A) (A) (A) (A) (A) (A) (A)
                 (A) (A) (A) (A) (A) (A) (A) (A) (A) (A) (A) (A)
                 (A) (A) (A) (A)
 The electronic state is 2-A.
 Alpha  occ. eigenvalues --  -38.44987 -38.44437 -38.44267 -38.43992 -38.43792
 Alpha  occ. eigenvalues --  -38.43753 -38.43479  -2.20822  -2.20251  -2.20103
 Alpha  occ. eigenvalues --   -2.19799  -2.19659  -2.19601  -2.19258  -1.14547
 Alpha  occ. eigenvalues --   -1.14513  -1.14388  -1.13921  -1.13910  -1.13875
 Alpha  occ. eigenvalues --   -1.13799  -1.13784  -1.13725  -1.13457  -1.13456
 Alpha  occ. eigenvalues --   -1.13420  -1.13364  -1.13333  -1.13252  -1.13240
 Alpha  occ. eigenvalues --   -1.13238  -1.13236  -1.12944  -1.12932  -1.12896
 Alpha  occ. eigenvalues --   -0.17017  -0.13416  -0.12905  -0.10759
 Alpha virt. eigenvalues --   -0.06273  -0.05443  -0.04468  -0.04000  -0.02475
 Alpha virt. eigenvalues --   -0.02444  -0.02064  -0.01662  -0.01182  -0.00939
 Alpha virt. eigenvalues --   -0.00329  -0.00060   0.00339   0.00382   0.00601
 Alpha virt. eigenvalues --    0.00782   0.00858   0.01010   0.01048   0.01286
 Alpha virt. eigenvalues --    0.01355   0.01402   0.01645   0.01670   0.01807
 Alpha virt. eigenvalues --    0.01889   0.02042   0.02185   0.02414   0.02503
 Alpha virt. eigenvalues --    0.02549   0.02670   0.02817   0.02928   0.02979
 Alpha virt. eigenvalues --    0.03119   0.03227   0.03321   0.03402   0.03604
 Alpha virt. eigenvalues --    0.03673   0.03773   0.03905   0.03926   0.04023
 Alpha virt. eigenvalues --    0.04428   0.04760   0.04961   0.05253   0.05438
 Alpha virt. eigenvalues --    0.05735   0.06192   0.06943   0.07219   0.07274
 Alpha virt. eigenvalues --    0.07710   0.07798   0.08061   0.08175   0.08414
 Alpha virt. eigenvalues --    0.08677   0.09001   0.09345   0.09690   0.09988
 Alpha virt. eigenvalues --    0.10264   0.10783   0.11020   0.11084   0.11893
 Alpha virt. eigenvalues --    0.12711   0.12928   0.13041   0.13287   0.13790
 Alpha virt. eigenvalues --    0.14463   0.15293   0.15602   0.16274   0.17306
 Alpha virt. eigenvalues --    0.26520   0.27833   0.28566   0.29280   0.30042
 Alpha virt. eigenvalues --    0.30722   0.31073   0.31168   0.32017   0.32337
 Alpha virt. eigenvalues --    0.33854   0.33967   0.34599   0.36024   0.36338
 Alpha virt. eigenvalues --    0.36568   0.37435   0.38620   0.39688   0.39968
 Alpha virt. eigenvalues --    0.41145   0.41938   0.42669   0.43157   0.43441
 Alpha virt. eigenvalues --    0.43577   0.43713   0.44210   0.44277   0.44534
 Alpha virt. eigenvalues --    0.44728   0.45071   0.45459   0.45689   0.45853
 Alpha virt. eigenvalues --    0.46456   0.46884   0.47086   0.47719   0.47889
 Alpha virt. eigenvalues --    0.48598   0.48735   0.49558   0.49783   0.50843
 Alpha virt. eigenvalues --    0.51605   0.52344   0.53065   0.53597   0.54442
 Alpha virt. eigenvalues --    0.58802   0.60599   0.62718   0.65307   0.66688
 Alpha virt. eigenvalues --    0.67377   2.01966   2.07309   2.10212   2.14854
 Alpha virt. eigenvalues --    2.15517   2.16569   2.20706   4.42880   4.43641
 Alpha virt. eigenvalues --    4.43683   4.43994   4.44270   4.44722   4.44749
 Alpha virt. eigenvalues --    4.44955   4.45407   4.45656   4.46094   4.46437
 Alpha virt. eigenvalues --    4.46707   4.46913   4.48215   4.49429   4.52195
 Alpha virt. eigenvalues --    4.56276   4.58840   4.59911   4.61531  96.21043
 Alpha virt. eigenvalues --   96.27586  96.31288  96.36901  96.37988  96.38716
 Alpha virt. eigenvalues --   96.44205
  Beta  occ. eigenvalues --  -38.44964 -38.44421 -38.44242 -38.43974 -38.43716
  Beta  occ. eigenvalues --  -38.43702 -38.43489  -2.20779  -2.20223  -2.20059
  Beta  occ. eigenvalues --   -2.19765  -2.19570  -2.19459  -2.19283  -1.14511
  Beta  occ. eigenvalues --   -1.14486  -1.14353  -1.13898  -1.13891  -1.13855
  Beta  occ. eigenvalues --   -1.13760  -1.13757  -1.13685  -1.13433  -1.13432
  Beta  occ. eigenvalues --   -1.13398  -1.13309  -1.13276  -1.13165  -1.13149
  Beta  occ. eigenvalues --   -1.13141  -1.13139  -1.12967  -1.12951  -1.12863
  Beta  occ. eigenvalues --   -0.16427  -0.12890  -0.12542
  Beta virt. eigenvalues --   -0.07374  -0.06125  -0.04978  -0.04045  -0.03753
  Beta virt. eigenvalues --   -0.02327  -0.02119  -0.01885  -0.01512  -0.00914
  Beta virt. eigenvalues --   -0.00550  -0.00006   0.00075   0.00439   0.00515
  Beta virt. eigenvalues --    0.00660   0.00839   0.00923   0.01081   0.01167
  Beta virt. eigenvalues --    0.01353   0.01434   0.01443   0.01713   0.01736
  Beta virt. eigenvalues --    0.01908   0.01947   0.02099   0.02287   0.02505
  Beta virt. eigenvalues --    0.02536   0.02632   0.02735   0.02926   0.02953
  Beta virt. eigenvalues --    0.03053   0.03209   0.03258   0.03382   0.03472
  Beta virt. eigenvalues --    0.03631   0.03710   0.03816   0.03965   0.03979
  Beta virt. eigenvalues --    0.04107   0.04511   0.04842   0.05021   0.05288
  Beta virt. eigenvalues --    0.05528   0.05874   0.06293   0.07006   0.07295
  Beta virt. eigenvalues --    0.07326   0.07763   0.07986   0.08229   0.08424
  Beta virt. eigenvalues --    0.08535   0.08912   0.09235   0.09452   0.09786
  Beta virt. eigenvalues --    0.10120   0.10300   0.10961   0.11178   0.11266
  Beta virt. eigenvalues --    0.12044   0.12807   0.13094   0.13164   0.13510
  Beta virt. eigenvalues --    0.13964   0.14558   0.15509   0.15742   0.16446
  Beta virt. eigenvalues --    0.17519   0.26764   0.28182   0.28861   0.29493
  Beta virt. eigenvalues --    0.30290   0.30960   0.31307   0.31427   0.32246
  Beta virt. eigenvalues --    0.32410   0.34087   0.34171   0.34896   0.36450
  Beta virt. eigenvalues --    0.36790   0.36927   0.37661   0.38888   0.39678
  Beta virt. eigenvalues --    0.40019   0.41385   0.42112   0.42765   0.43299
  Beta virt. eigenvalues --    0.43573   0.43776   0.43844   0.44234   0.44514
  Beta virt. eigenvalues --    0.44673   0.44909   0.45169   0.45594   0.45780
  Beta virt. eigenvalues --    0.45926   0.46460   0.46977   0.47231   0.47868
  Beta virt. eigenvalues --    0.48035   0.48679   0.48935   0.49582   0.49869
  Beta virt. eigenvalues --    0.51027   0.51676   0.52513   0.53182   0.53682
  Beta virt. eigenvalues --    0.54693   0.58975   0.60834   0.62967   0.65499
  Beta virt. eigenvalues --    0.66837   0.67491   2.02058   2.07465   2.10295
  Beta virt. eigenvalues --    2.14933   2.15624   2.16661   2.20884   4.42929
  Beta virt. eigenvalues --    4.43682   4.43719   4.44055   4.44301   4.44747
  Beta virt. eigenvalues --    4.44799   4.45026   4.45457   4.45724   4.46134
  Beta virt. eigenvalues --    4.46483   4.46702   4.46948   4.48262   4.49423
  Beta virt. eigenvalues --    4.52240   4.56324   4.58892   4.59967   4.61573
  Beta virt. eigenvalues --   96.21077  96.27639  96.31318  96.36935  96.38020
  Beta virt. eigenvalues --   96.38745  96.44260
          Condensed to atoms (all electrons):
               1          2          3          4          5          6
     1  Na  10.877507  -0.348261   0.160724  -0.277345  -0.094256   0.270786
     2  Na  -0.348261  11.575215  -0.798628   0.523546   0.168665  -0.914681
     3  Na   0.160724  -0.798628  12.548048  -0.533259  -0.009273  -0.134745
     4  Na  -0.277345   0.523546  -0.533259  10.986781   0.158783  -0.106422
     5  Na  -0.094256   0.168665  -0.009273   0.158783  10.719129  -0.074027
     6  Na   0.270786  -0.914681  -0.134745  -0.106422  -0.074027  12.547452
     7  Na   0.627811  -0.502835   0.479390  -0.611270  -0.204128   0.178353
               7
     1  Na   0.627811
     2  Na  -0.502835
     3  Na   0.479390
     4  Na  -0.611270
     5  Na  -0.204128
     6  Na   0.178353
     7  Na  11.828013
          Atomic-Atomic Spin Densities.
               1          2          3          4          5          6
     1  Na   0.361196  -0.179609   0.178282  -0.116912  -0.026877  -0.048960
     2  Na  -0.179609   0.004308  -0.125299   0.045053  -0.004768   0.374033
     3  Na   0.178282  -0.125299   0.236984  -0.137863   0.143473  -0.378189
     4  Na  -0.116912   0.045053  -0.137863   0.107489  -0.005042   0.183122
     5  Na  -0.026877  -0.004768   0.143473  -0.005042   0.255363  -0.004808
     6  Na  -0.048960   0.374033  -0.378189   0.183122  -0.004808   0.102355
     7  Na   0.119582   0.041903  -0.053910   0.058511   0.013645  -0.052801
               7
     1  Na   0.119582
     2  Na   0.041903
     3  Na  -0.053910
     4  Na   0.058511
     5  Na   0.013645
     6  Na  -0.052801
     7  Na  -0.112825
 Mulliken charges and spin densities:
               1          2
     1  Na  -0.216965   0.286702
     2  Na   1.296980   0.155622
     3  Na  -0.712257  -0.136522
     4  Na   0.859185   0.134358
     5  Na   0.335107   0.370986
     6  Na  -0.766716   0.174751
     7  Na  -0.795332   0.014104
 Sum of Mulliken charges =  -0.00000   1.00000
 Mulliken charges and spin densities with hydrogens summed into heavy atoms:
               1          2
     1  Na  -0.216965   0.286702
     2  Na   1.296980   0.155622
     3  Na  -0.712257  -0.136522
     4  Na   0.859185   0.134358
     5  Na   0.335107   0.370986
     6  Na  -0.766716   0.174751
     7  Na  -0.795332   0.014104
 Electronic spatial extent (au):  <R**2>=           4422.6865
 Charge=             -0.0000 electrons
 Dipole moment (field-independent basis, Debye):
    X=              2.1038    Y=              0.1235    Z=             -0.0618  Tot=              2.1083
 Quadrupole moment (field-independent basis, Debye-Ang):
   XX=            -66.4351   YY=            -57.1884   ZZ=            -72.3961
   XY=             -6.6353   XZ=             -0.3667   YZ=              1.8040
 Traceless Quadrupole moment (field-independent basis, Debye-Ang):
   XX=             -1.0952   YY=              8.1514   ZZ=             -7.0562
   XY=             -6.6353   XZ=             -0.3667   YZ=              1.8040
 Octapole moment (field-independent basis, Debye-Ang**2):
  XXX=             28.4932  YYY=              0.3873  ZZZ=             -0.5616  XYY=             45.2863
  XXY=             12.1268  XXZ=             11.7216  XZZ=              9.4951  YZZ=              0.6066
  YYZ=             -9.1406  XYZ=              5.1488
 Hexadecapole moment (field-independent basis, Debye-Ang**3):
 XXXX=          -4670.9336 YYYY=          -1827.8965 ZZZZ=           -343.7400 XXXY=           -311.7406
 XXXZ=            -96.4248 YYYX=            -57.1374 YYYZ=             24.7462 ZZZX=              4.4785
 ZZZY=              6.4652 XXYY=          -1036.7211 XXZZ=           -912.5867 YYZZ=           -429.8054
 XXYZ=             53.6943 YYXZ=            -18.1864 ZZXY=            -13.0742
 N-N= 2.769461091735D+02 E-N=-3.283066395374D+03  KE= 1.132871171607D+03
                          Isotropic Fermi Contact Couplings
        Atom                 a.u.       MegaHertz       Gauss      10(-4) cm-1
     1  Na(23)             0.07969      94.27715      33.64043      31.44747
     2  Na(23)             0.06164      72.92767      26.02241      24.32605
     3  Na(23)            -0.11563    -136.78858     -48.80957     -45.62776
     4  Na(23)             0.07855      92.92438      33.15773      30.99624
     5  Na(23)             0.33353     394.57338     140.79359     131.61551
     6  Na(23)             0.17242     203.97850      72.78460      68.03990
     7  Na(23)             0.07155      84.64524      30.20353      28.23461
 --------------------------------------------------------
       Center         ----  Spin Dipole Couplings  ----
                      3XX-RR        3YY-RR        3ZZ-RR
 --------------------------------------------------------
     1   Atom        0.009671     -0.000844     -0.008827
     2   Atom       -0.000300      0.001793     -0.001494
     3   Atom        0.052750     -0.025445     -0.027305
     4   Atom        0.000950     -0.001135      0.000185
     5   Atom       -0.005026      0.002386      0.002639
     6   Atom        0.019243     -0.005161     -0.014082
     7   Atom       -0.015644      0.030767     -0.015123
 --------------------------------------------------------
                        XY            XZ            YZ
 --------------------------------------------------------
     1   Atom       -0.002076      0.000668      0.000117
     2   Atom        0.007333      0.002862      0.002050
     3   Atom       -0.010310     -0.010164      0.001819
     4   Atom       -0.005083      0.000492     -0.001675
     5   Atom        0.003995      0.001983     -0.000637
     6   Atom       -0.023364      0.011061     -0.006104
     7   Atom        0.010422     -0.000427     -0.001016
 --------------------------------------------------------


 ---------------------------------------------------------------------------------
              Anisotropic Spin Dipole Couplings in Principal Axis System
 ---------------------------------------------------------------------------------

       Atom             a.u.   MegaHertz   Gauss  10(-4) cm-1        Axes

              Baa    -0.0089    -1.251    -0.446    -0.417 -0.0388 -0.0247  0.9989
     1 Na(23) Bbb    -0.0012    -0.174    -0.062    -0.058  0.1851  0.9822  0.0314
              Bcc     0.0101     1.424     0.508     0.475  0.9820 -0.1861  0.0335
 
              Baa    -0.0068    -0.962    -0.343    -0.321  0.7694 -0.6136 -0.1777
     2 Na(23) Bbb    -0.0024    -0.345    -0.123    -0.115 -0.0609 -0.3474  0.9357
              Bcc     0.0093     1.306     0.466     0.436  0.6359  0.7091  0.3047
 
              Baa    -0.0287    -4.055    -1.447    -1.353  0.0870 -0.2602  0.9616
     3 Na(23) Bbb    -0.0267    -3.764    -1.343    -1.256  0.1556  0.9570  0.2449
              Bcc     0.0554     7.819     2.790     2.608  0.9840 -0.1283 -0.1238
 
              Baa    -0.0055    -0.771    -0.275    -0.257  0.6029  0.7776  0.1781
     4 Na(23) Bbb    -0.0000    -0.005    -0.002    -0.002 -0.3187  0.0301  0.9474
              Bcc     0.0055     0.776     0.277     0.259  0.7314 -0.6280  0.2660
 
              Baa    -0.0072    -1.017    -0.363    -0.339  0.8984 -0.3879 -0.2060
     5 Na(23) Bbb     0.0030     0.429     0.153     0.143  0.1125 -0.2503  0.9616
              Bcc     0.0042     0.589     0.210     0.196  0.4245  0.8871  0.1812
 
              Baa    -0.0194    -2.744    -0.979    -0.915  0.5492  0.8078 -0.2139
     6 Na(23) Bbb    -0.0171    -2.417    -0.863    -0.806 -0.0883  0.3106  0.9464
              Bcc     0.0365     5.161     1.842     1.722  0.8310 -0.5009  0.2419
 
              Baa    -0.0179    -2.527    -0.902    -0.843  0.9754 -0.2074  0.0744
     7 Na(23) Bbb    -0.0151    -2.137    -0.762    -0.713 -0.0681  0.0375  0.9970
              Bcc     0.0330     4.664     1.664     1.556  0.2095  0.9775 -0.0225
 

 ---------------------------------------------------------------------------------

 No NMR shielding tensors so no spin-rotation constants.
 Leave Link  601 at Wed Nov 29 02:30:58 2023, MaxMem=  1879048192 cpu:               2.2 elap:               0.2
 (Enter /home/sekinelabo/g16/l701.exe)
 ... and contract with generalized density number  0.
 Compute integral first derivatives.
 Leave Link  701 at Wed Nov 29 02:30:58 2023, MaxMem=  1879048192 cpu:               1.5 elap:               0.1
 (Enter /home/sekinelabo/g16/l702.exe)
 L702 exits ... SP integral derivatives will be done elsewhere.
 Leave Link  702 at Wed Nov 29 02:30:58 2023, MaxMem=  1879048192 cpu:               0.5 elap:               0.0
 (Enter /home/sekinelabo/g16/l703.exe)
 Integral derivatives from FoFJK, PRISM(SPDF).
 Compute integral first derivatives, UseDBF=F ICtDFT=           0.
 Calling FoFJK, ICntrl=      2127 FMM=F ISym2X=0 I1Cent= 0 IOpClX= 1 NMat=1 NMatS=1 NMatT=0.
 FoFJK:  IHMeth= 1 ICntrl=    2127 DoSepK=F KAlg= 0 I1Cent=           0 FoldK=F
 IRaf=         0 NMat=       1 IRICut=       1 DoRegI=T DoRafI=F ISym2E= 0 IDoP0=0 IntGTp=1.
 FoFCou: FMM=F IPFlag=           0 FMFlag=      100000 FMFlg1=         800
         NFxFlg=           0 DoJE=F BraDBF=F KetDBF=F FulRan=T
         wScrn=  0.000000 ICntrl=      2127 IOpCl=  1 I1Cent=           0 NGrid=           0
         NMat0=    1 NMatS0=      1 NMatT0=    0 NMatD0=    1 NMtDS0=    0 NMtDT0=    0
 Symmetry not used in FoFCou.
 Leave Link  703 at Wed Nov 29 02:31:00 2023, MaxMem=  1879048192 cpu:              28.5 elap:               1.9
 (Enter /home/sekinelabo/g16/l716.exe)
 Dipole        = 8.27682532D-01 4.85797025D-02-2.43267798D-02
 ***** Axes restored to original set *****
 -------------------------------------------------------------------
 Center     Atomic                   Forces (Hartrees/Bohr)
 Number     Number              X              Y              Z
 -------------------------------------------------------------------
      1       11          -0.001867677    0.002691135    0.000075812
      2       11           0.000692491    0.001736980   -0.000623464
      3       11          -0.000710617    0.002813534   -0.002189438
      4       11           0.000629632   -0.000407079   -0.002212296
      5       11          -0.000121839   -0.000245383   -0.000202794
      6       11           0.000235786   -0.004447630    0.003987528
      7       11           0.001142223   -0.002141557    0.001164652
 -------------------------------------------------------------------
 Cartesian Forces:  Max     0.004447630 RMS     0.001907297
 Z-matrix is all fixed cartesians, so copy forces.
 Force constants in Cartesian coordinates: 
                1             2             3             4             5 
      1  0.479866D-01
      2  0.110127D-01  0.770216D-01
      3 -0.150105D-01 -0.560222D-02  0.792979D-01
      4 -0.126398D-01 -0.698821D-02  0.289395D-02  0.124779D-01
      5 -0.586739D-02 -0.233102D-01 -0.122545D-01  0.257080D-02  0.378452D-01
      6  0.803472D-02  0.100224D-01 -0.139266D-01  0.463592D-03  0.597637D-02
      7  0.260349D-02  0.409842D-03  0.559093D-03  0.178382D-02  0.804064D-03
      8  0.846474D-03  0.310381D-02  0.417483D-02  0.567404D-03  0.482627D-02
      9  0.206251D-04  0.922064D-03  0.123951D-02  0.102436D-04  0.141831D-02
     10 -0.128549D-01  0.172263D-02  0.444261D-02  0.464194D-02  0.199215D-03
     11 -0.488618D-02 -0.136033D-01  0.874756D-02  0.239508D-02  0.377658D-03
     12  0.595419D-02 -0.111664D-01 -0.143295D-01 -0.116767D-02 -0.391823D-03
     13 -0.163402D-03  0.151237D-04  0.198160D-04  0.198442D-03 -0.222272D-04
     14  0.562835D-04 -0.520933D-05 -0.682558D-05 -0.683528D-04  0.765611D-05
     15  0.325470D-04 -0.301240D-05 -0.394703D-05 -0.395264D-04  0.442730D-05
     16 -0.167005D-01 -0.391304D-02  0.325161D-02 -0.110496D-01  0.409941D-02
     17  0.298899D-02 -0.350876D-01 -0.161302D-02  0.660711D-03 -0.239034D-01
     18 -0.173317D-02  0.507406D-02 -0.340590D-01 -0.503221D-02  0.959728D-02
     19 -0.823150D-02 -0.225910D-02  0.384341D-02  0.458728D-02 -0.178387D-02
     20 -0.415092D-02 -0.811901D-02  0.655423D-02  0.862564D-03  0.415686D-02
     21  0.270157D-02  0.753116D-03 -0.182183D-01  0.287162D-02 -0.435003D-02
                6             7             8             9            10 
      6  0.403232D-01
      7 -0.420694D-03  0.827355D-02
      8 -0.101542D-02  0.760073D-02  0.322059D-01
      9 -0.275102D-03  0.691543D-02  0.645394D-02  0.329675D-01
     10 -0.230288D-02 -0.159836D-04  0.230993D-04  0.862556D-05  0.858428D-02
     11 -0.181757D-02 -0.259822D-05  0.336901D-05  0.128277D-05 -0.233123D-02
     12  0.135713D-02  0.000000D+00  0.556110D-05  0.177552D-05 -0.593559D-02
     13 -0.252594D-04 -0.377057D-02 -0.470102D-02 -0.675587D-02  0.000000D+00
     14  0.870054D-05 -0.531348D-02 -0.124583D-01 -0.652536D-02  0.000000D+00
     15  0.503126D-05 -0.574183D-02 -0.356358D-02 -0.234699D-01  0.000000D+00
     16 -0.430100D-02 -0.989819D-02 -0.551393D-02 -0.468323D-03  0.350132D-02
     17 -0.822194D-02 -0.474545D-02 -0.253112D-01 -0.142171D-02  0.136085D-02
     18 -0.277185D-01 -0.782909D-04 -0.980886D-02 -0.117390D-01 -0.116272D-02
     19 -0.144848D-02  0.102389D-02  0.117724D-02  0.269273D-03 -0.385663D-02
     20 -0.495251D-02  0.124689D-02 -0.236986D-02 -0.848534D-03 -0.974570D-03
     21  0.234784D-03 -0.123311D-02  0.375353D-02  0.127524D-02  0.494996D-02
               11            12            13            14            15 
     11  0.426326D-01
     12 -0.437268D-02  0.270152D-01
     13  0.000000D+00  0.000000D+00  0.308992D-02
     14  0.000000D+00  0.000000D+00  0.366410D-02  0.809053D-02
     15  0.000000D+00  0.000000D+00  0.649820D-02  0.532718D-02  0.239453D-01
     16  0.117937D-02 -0.118122D-02  0.737731D-03  0.162973D-02 -0.767743D-03
     17 -0.378746D-02 -0.715646D-03  0.107406D-02  0.435499D-02 -0.177099D-02
     18 -0.534830D-03  0.778550D-02  0.263870D-03  0.119605D-02 -0.476656D-03
     19  0.364555D-02  0.233089D-02 -0.921259D-04  0.317326D-04  0.183500D-04
     20 -0.256228D-01  0.166410D-01 -0.300318D-04  0.103444D-04  0.598186D-05
     21 -0.202376D-02 -0.218301D-01  0.000000D+00  0.000000D+00  0.000000D+00
               16            17            18            19            20 
     16  0.464634D-01
     17 -0.452846D-02  0.107306D+00
     18  0.526375D-02  0.276114D-02  0.942505D-01
     19 -0.130542D-01  0.318929D-02  0.247878D-02  0.196233D-01
     20  0.704691D-02 -0.235713D-01 -0.828483D-02 -0.400084D-02  0.555158D-01
     21 -0.179707D-02  0.109822D-01 -0.280428D-01 -0.749222D-02 -0.911529D-02
               21 
     21  0.665811D-01
 Leave Link  716 at Wed Nov 29 02:31:00 2023, MaxMem=  1879048192 cpu:               0.4 elap:               0.0
 (Enter /home/sekinelabo/g16/l103.exe)

 GradGradGradGradGradGradGradGradGradGradGradGradGradGradGradGradGradGrad
 Berny optimization.
 Search for a local minimum.
 Step number   1 out of a maximum of    2
 All quantities printed in internal units (Hartrees-Bohrs-Radians)
 Second derivative matrix not updated -- first step.
 ITU=  0
     Eigenvalues ---    0.00192   0.00484   0.00981   0.01377   0.02585
     Eigenvalues ---    0.02862   0.04254   0.05041   0.05942   0.07125
     Eigenvalues ---    0.07869   0.08776   0.11254   0.13598   0.14423
 Quadratic step=4.285D-01 exceeds max=3.000D-01 adjusted using Lamda=-2.542D-03.
 Angle between NR and scaled steps=   7.39 degrees.
 Angle between quadratic step and forces=  54.84 degrees.
 Linear search not attempted -- first point.
 B after Tr=     0.000000    0.000000    0.000000
         Rot=    1.000000    0.000000    0.000000   -0.000000 Ang=   0.00 deg.
 Variable       Old X    -DE/DX   Delta X   Delta X   Delta X     New X
                                 (Linear)    (Quad)   (Total)
    X1       29.18172  -0.00187   0.00000  -0.01028  -0.01028  29.17144
    Y1       31.52347   0.00269   0.00000   0.00078   0.00078  31.52424
    Z1       23.24363   0.00008   0.00000   0.06263   0.06263  23.30626
    X2       28.26350   0.00069   0.00000   0.04135   0.04135  28.30485
    Y2       25.49789   0.00174   0.00000   0.01472   0.01472  25.51261
    Z2       20.76148  -0.00062   0.00000   0.04515   0.04515  20.80662
    X3       29.85219  -0.00071   0.00000  -0.10735  -0.10735  29.74485
    Y3       24.39636   0.00281   0.00000   0.10199   0.10199  24.49835
    Z3       34.21179  -0.00219   0.00000  -0.12132  -0.12132  34.09047
    X4       27.45281   0.00063   0.00000  -0.00658  -0.00658  27.44622
    Y4       37.04260  -0.00041   0.00000  -0.05954  -0.05954  36.98306
    Z4       27.70433  -0.00221   0.00000   0.00206   0.00206  27.70639
    X5       31.57090  -0.00012   0.00000   0.01750   0.01750  31.58840
    Y5       26.20767  -0.00025   0.00000   0.04288   0.04288  26.25055
    Z5       39.70825  -0.00020   0.00000  -0.14027  -0.14027  39.56798
    X6       29.17038   0.00024   0.00000   0.00802   0.00802  29.17840
    Y6       26.67273  -0.00445   0.00000  -0.04395  -0.04395  26.62878
    Z6       26.85225   0.00399   0.00000   0.08436   0.08436  26.93661
    X7       27.51328   0.00114   0.00000   0.05733   0.05733  27.57061
    Y7       31.66387  -0.00214   0.00000  -0.05688  -0.05688  31.60699
    Z7       30.52323   0.00116   0.00000   0.06739   0.06739  30.59062
         Item               Value     Threshold  Converged?
 Maximum Force            0.004448     0.000450     NO 
 RMS     Force            0.001907     0.000300     NO 
 Maximum Displacement     0.140265     0.001800     NO 
 RMS     Displacement     0.065547     0.001200     NO 
 Predicted change in Energy=-8.705597D-04
 GradGradGradGradGradGradGradGradGradGradGradGradGradGradGradGradGradGrad

 Leave Link  103 at Wed Nov 29 02:31:00 2023, MaxMem=  1879048192 cpu:               0.2 elap:               0.0
 (Enter /home/sekinelabo/g16/l9999.exe)
 1\1\GINC-SEKINELABO-XA7R-R37\Force\UB3LYP\6-311+G(d)\Na7(2)\SEKINELABO
 \29-Nov-2023\0\\#P B3LYP/6-311+g(d) force\\DPGEN\\0,2\Na,15.4423,16.68
 15,12.3\Na,14.9564,13.4929,10.9865\Na,15.7971,12.91,18.1041\Na,14.5274
 ,19.6021,14.6605\Na,16.7066,13.8685,21.0127\Na,15.4363,14.1146,14.2096
 \Na,14.5594,16.7558,16.1522\\Version=ES64L-G16RevB.01\State=2-A\HF=-11
 36.1213656\S2=0.780523\S2-1=0.\S2A=0.75049\RMSD=5.543e-09\RMSF=1.907e-
 03\Dipole=-0.1629815,0.2840135,-0.7620915\Quadrupole=-5.3858896,2.8381
 876,2.5477021,0.5910623,0.6287303,6.0120391\PG=C01 [X(Na7)]\\@


 Sacred cows make the best hamburger.
                               -- Mark Twain
 Job cpu time:       0 days  0 hours  3 minutes 39.4 seconds.
 Elapsed time:       0 days  0 hours  0 minutes 18.9 seconds.
 File lengths (MBytes):  RWF=     32 Int=      0 D2E=      0 Chk=      4 Scr=      1
 Normal termination of Gaussian 16 at Wed Nov 29 02:31:00 2023.
