ITEM: TIMESTEP
9040
ITEM: NUMBER OF ATOMS
7
ITEM: BOX BOUNDS xy xz yz ff ff ff
0.0000000000000000e+00 2.5145911716600001e+01 0.0000000000000000e+00
0.0000000000000000e+00 2.5145911716600001e+01 0.0000000000000000e+00
0.0000000000000000e+00 2.5145911716600001e+01 0.0000000000000000e+00
ITEM: ATOMS id type x y z fx fy fz
6 1 11.3847 14.3071 10.679 -0.0107885 -0.0606623 0.0458884
5 1 10.5011 10.3785 11.0147 0.0707976 0.125902 0.0580131
2 1 12.693 9.99214 13.7491 0.065286 -0.102152 0.00767112
1 1 11.0549 12.7627 13.9648 0.0802927 0.134141 -0.140355
3 1 13.7529 12.0292 11.2437 -0.0500746 0.0193097 0.105277
4 1 14.1017 15.6242 12.3585 -0.0732313 -0.135996 0.0789358
7 1 14.5224 12.9169 15.0008 -0.0822818 0.019457 -0.155431
