 Set GAUSS_MDEF to "14GB".
 Entering Gaussian System, Link 0=g16
 Initial command:
 /home/sekinelabo/g16/l1.exe "/home/sekinelabo/g16temp/Gau-640404.inp" -scrdir="/home/sekinelabo/g16temp/"
 Entering Link 1 = /home/sekinelabo/g16/l1.exe PID=    640406.
  
 Copyright (c) 1988-2017, Gaussian, Inc.  All Rights Reserved.
  
 This is part of the Gaussian(R) 16 program.  It is based on
 the Gaussian(R) 09 system (copyright 2009, Gaussian, Inc.),
 the Gaussian(R) 03 system (copyright 2003, Gaussian, Inc.),
 the Gaussian(R) 98 system (copyright 1998, Gaussian, Inc.),
 the Gaussian(R) 94 system (copyright 1995, Gaussian, Inc.),
 the Gaussian 92(TM) system (copyright 1992, Gaussian, Inc.),
 the Gaussian 90(TM) system (copyright 1990, Gaussian, Inc.),
 the Gaussian 88(TM) system (copyright 1988, Gaussian, Inc.),
 the Gaussian 86(TM) system (copyright 1986, Carnegie Mellon
 University), and the Gaussian 82(TM) system (copyright 1983,
 Carnegie Mellon University). Gaussian is a federally registered
 trademark of Gaussian, Inc.
  
 This software contains proprietary and confidential information,
 including trade secrets, belonging to Gaussian, Inc.
  
 This software is provided under written license and may be
 used, copied, transmitted, or stored only in accord with that
 written license.
  
 The following legend is applicable only to US Government
 contracts under FAR:
  
                    RESTRICTED RIGHTS LEGEND
  
 Use, reproduction and disclosure by the US Government is
 subject to restrictions as set forth in subparagraphs (a)
 and (c) of the Commercial Computer Software - Restricted
 Rights clause in FAR 52.227-19.
  
 Gaussian, Inc.
 340 Quinnipiac St., Bldg. 40, Wallingford CT 06492
  
  
 ---------------------------------------------------------------
 Warning -- This program may not be used in any manner that
 competes with the business of Gaussian, Inc. or will provide
 assistance to any competitor of Gaussian, Inc.  The licensee
 of this program is prohibited from giving any competitor of
 Gaussian, Inc. access to this program.  By using this program,
 the user acknowledges that Gaussian, Inc. is engaged in the
 business of creating and licensing software in the field of
 computational chemistry and represents and warrants to the
 licensee that it is not a competitor of Gaussian, Inc. and that
 it will not use this program in any manner prohibited above.
 ---------------------------------------------------------------
  

 Cite this work as:
 Gaussian 16, Revision B.01,
 M. J. Frisch, G. W. Trucks, H. B. Schlegel, G. E. Scuseria, 
 M. A. Robb, J. R. Cheeseman, G. Scalmani, V. Barone, 
 G. A. Petersson, H. Nakatsuji, X. Li, M. Caricato, A. V. Marenich, 
 J. Bloino, B. G. Janesko, R. Gomperts, B. Mennucci, H. P. Hratchian, 
 J. V. Ortiz, A. F. Izmaylov, J. L. Sonnenberg, D. Williams-Young, 
 F. Ding, F. Lipparini, F. Egidi, J. Goings, B. Peng, A. Petrone, 
 T. Henderson, D. Ranasinghe, V. G. Zakrzewski, J. Gao, N. Rega, 
 G. Zheng, W. Liang, M. Hada, M. Ehara, K. Toyota, R. Fukuda, 
 J. Hasegawa, M. Ishida, T. Nakajima, Y. Honda, O. Kitao, H. Nakai, 
 T. Vreven, K. Throssell, J. A. Montgomery, Jr., J. E. Peralta, 
 F. Ogliaro, M. J. Bearpark, J. J. Heyd, E. N. Brothers, K. N. Kudin, 
 V. N. Staroverov, T. A. Keith, R. Kobayashi, J. Normand, 
 K. Raghavachari, A. P. Rendell, J. C. Burant, S. S. Iyengar, 
 J. Tomasi, M. Cossi, J. M. Millam, M. Klene, C. Adamo, R. Cammi, 
 J. W. Ochterski, R. L. Martin, K. Morokuma, O. Farkas, 
 J. B. Foresman, and D. J. Fox, Gaussian, Inc., Wallingford CT, 2016.
 
 ******************************************
 Gaussian 16:  ES64L-G16RevB.01 20-Dec-2017
                29-Nov-2023 
 ******************************************
 %nproc=15
 Will use up to   15 processors via shared memory.
 -------------------------
 #P B3LYP/6-311+g(d) force
 -------------------------
 1/10=7,30=1,38=1/1,3;
 2/12=2,17=6,18=5,40=1/2;
 3/5=4,6=6,7=11,11=2,25=1,30=1,71=1,74=-5/1,2,3;
 4//1;
 5/5=2,38=5/2;
 6/7=2,8=2,9=2,10=2,28=1/1;
 7/29=1/1,2,3,16;
 1/10=7,30=1/3;
 99//99;
 Leave Link    1 at Wed Nov 29 15:39:35 2023, MaxMem=           0 cpu:               0.3 elap:               0.0
 (Enter /home/sekinelabo/g16/l101.exe)
 -----
 DPGEN
 -----
 Symbolic Z-matrix:
 Charge =  0 Multiplicity = 2
 Na                    11.4372   15.1475   15.0289 
 Na                    17.0288   18.0674   13.9628 
 Na                    16.9503   12.7421   17.2845 
 Na                    19.1009   16.172    15.6949 
 Na                    13.4911   17.019    13.0496 
 Na                    13.5441   13.3397   17.2534 
 Na                    15.8731   14.9377   15.1514 
 
 ITRead=  0  0  0  0  0  0  0
 MicOpt= -1 -1 -1 -1 -1 -1 -1
 NAtoms=      7 NQM=        7 NQMF=       0 NMMI=      0 NMMIF=      0
                NMic=       0 NMicF=      0.
                    Isotopes and Nuclear Properties:
 (Nuclear quadrupole moments (NQMom) in fm**2, nuclear magnetic moments (NMagM)
  in nuclear magnetons)

  Atom         1           2           3           4           5           6           7
 IAtWgt=          23          23          23          23          23          23          23
 AtmWgt=  22.9897697  22.9897697  22.9897697  22.9897697  22.9897697  22.9897697  22.9897697
 NucSpn=           3           3           3           3           3           3           3
 AtZEff=  -0.0000000  -0.0000000  -0.0000000  -0.0000000  -0.0000000  -0.0000000  -0.0000000
 NQMom=   10.4000000  10.4000000  10.4000000  10.4000000  10.4000000  10.4000000  10.4000000
 NMagM=    2.2175200   2.2175200   2.2175200   2.2175200   2.2175200   2.2175200   2.2175200
 AtZNuc=  11.0000000  11.0000000  11.0000000  11.0000000  11.0000000  11.0000000  11.0000000
 Leave Link  101 at Wed Nov 29 15:39:35 2023, MaxMem=  1879048192 cpu:               2.4 elap:               0.2
 (Enter /home/sekinelabo/g16/l103.exe)

 GradGradGradGradGradGradGradGradGradGradGradGradGradGradGradGradGradGrad
 Berny optimization.
 Initialization pass.
 Trust Radius=3.00D-01 FncErr=1.00D-07 GrdErr=1.00D-07 EigMax=2.50D+02 EigMin=1.00D-04
 Number of steps in this run=      2 maximum allowed number of steps=      2.
 GradGradGradGradGradGradGradGradGradGradGradGradGradGradGradGradGradGrad

 Leave Link  103 at Wed Nov 29 15:39:35 2023, MaxMem=  1879048192 cpu:               0.2 elap:               0.0
 (Enter /home/sekinelabo/g16/l202.exe)
                          Input orientation:                          
 ---------------------------------------------------------------------
 Center     Atomic      Atomic             Coordinates (Angstroms)
 Number     Number       Type             X           Y           Z
 ---------------------------------------------------------------------
      1         11           0       11.437200   15.147500   15.028900
      2         11           0       17.028800   18.067400   13.962800
      3         11           0       16.950300   12.742100   17.284500
      4         11           0       19.100900   16.172000   15.694900
      5         11           0       13.491100   17.019000   13.049600
      6         11           0       13.544100   13.339700   17.253400
      7         11           0       15.873100   14.937700   15.151400
 ---------------------------------------------------------------------
                    Distance matrix (angstroms):
                    1          2          3          4          5
     1  Na   0.000000
     2  Na   6.397529   0.000000
     3  Na   6.424014   6.276836   0.000000
     4  Na   7.760506   3.299441   4.349267   0.000000
     5  Na   3.411546   3.801105   6.942069   6.259783   0.000000
     6  Na   3.557467   6.732186   3.458365   6.428754   5.586769
     7  Na   4.442548   3.541671   3.245171   3.498225   3.797802
                    6          7
     6  Na   0.000000
     7  Na   3.520831   0.000000
 Stoichiometry    Na7(2)
 Framework group  C1[X(Na7)]
 Deg. of freedom    15
 Full point group                 C1      NOp   1
 Largest Abelian subgroup         C1      NOp   1
 Largest concise Abelian subgroup C1      NOp   1
                         Standard orientation:                         
 ---------------------------------------------------------------------
 Center     Atomic      Atomic             Coordinates (Angstroms)
 Number     Number       Type             X           Y           Z
 ---------------------------------------------------------------------
      1         11           0       -3.884663   -0.538984   -0.204892
      2         11           0        2.119721   -2.739601   -0.386660
      3         11           0        1.145702    3.414886    0.369814
      4         11           0        3.852331    0.064049   -0.231997
      5         11           0       -1.581111   -2.968718    0.449850
      6         11           0       -2.084794    2.517399   -0.477949
      7         11           0        0.432815    0.250968    0.481834
 ---------------------------------------------------------------------
 Rotational constants (GHZ):           0.6154181           0.5017118           0.2838482
 Leave Link  202 at Wed Nov 29 15:39:35 2023, MaxMem=  1879048192 cpu:               0.0 elap:               0.0
 (Enter /home/sekinelabo/g16/l301.exe)
 Standard basis: 6-311+G(d) (5D, 7F)
 Ernie: Thresh=  0.10000D-02 Tol=  0.10000D-05 Strict=F.
 There are   217 symmetry adapted cartesian basis functions of A   symmetry.
 There are   210 symmetry adapted basis functions of A   symmetry.
   210 basis functions,   350 primitive gaussians,   217 cartesian basis functions
    39 alpha electrons       38 beta electrons
       nuclear repulsion energy       300.6414166104 Hartrees.
 IExCor=  402 DFT=T Ex+Corr=B3LYP ExCW=0 ScaHFX=  0.200000
 ScaDFX=  0.800000  0.720000  1.000000  0.810000 ScalE2=  1.000000  1.000000
 IRadAn=      5 IRanWt=     -1 IRanGd=            0 ICorTp=0 IEmpDi=  4
 NAtoms=    7 NActive=    7 NUniq=    7 SFac= 1.00D+00 NAtFMM=   60 NAOKFM=F Big=F
 Integral buffers will be    131072 words long.
 Raffenetti 2 integral format.
 Two-electron integral symmetry is turned on.
 Leave Link  301 at Wed Nov 29 15:39:36 2023, MaxMem=  1879048192 cpu:               0.5 elap:               0.0
 (Enter /home/sekinelabo/g16/l302.exe)
 NPDir=0 NMtPBC=     1 NCelOv=     1 NCel=       1 NClECP=     1 NCelD=      1
         NCelK=      1 NCelE2=     1 NClLst=     1 CellRange=     0.0.
 One-electron integrals computed using PRISM.
 One-electron integral symmetry used in STVInt
 NBasis=   210 RedAO= T EigKep=  3.41D-06  NBF=   210
 NBsUse=   210 1.00D-06 EigRej= -1.00D+00 NBFU=   210
 Precomputing XC quadrature grid using
 IXCGrd= 4 IRadAn=           5 IRanWt=          -1 IRanGd=           0 AccXCQ= 0.00D+00.
 Generated NRdTot=       0 NPtTot=           0 NUsed=           0 NTot=          32
 NSgBfM=   210   210   210   210   210 MxSgAt=     7 MxSgA2=     7.
 Leave Link  302 at Wed Nov 29 15:39:36 2023, MaxMem=  1879048192 cpu:               1.9 elap:               0.1
 (Enter /home/sekinelabo/g16/l303.exe)
 DipDrv:  MaxL=1.
 Leave Link  303 at Wed Nov 29 15:39:36 2023, MaxMem=  1879048192 cpu:               0.5 elap:               0.0
 (Enter /home/sekinelabo/g16/l401.exe)
 ExpMin= 7.60D-03 ExpMax= 3.62D+04 ExpMxC= 1.21D+03 IAcc=3 IRadAn=         5 AccDes= 0.00D+00
 Harris functional with IExCor=  402 and IRadAn=       5 diagonalized for initial guess.
 HarFok:  IExCor=  402 AccDes= 0.00D+00 IRadAn=         5 IDoV= 1 UseB2=F ITyADJ=14
 ICtDFT=  3500011 ScaDFX=  1.000000  1.000000  1.000000  1.000000
 FoFCou: FMM=F IPFlag=           0 FMFlag=      100000 FMFlg1=           0
         NFxFlg=           0 DoJE=T BraDBF=F KetDBF=T FulRan=T
         wScrn=  0.000000 ICntrl=       500 IOpCl=  0 I1Cent=   200000004 NGrid=           0
         NMat0=    1 NMatS0=      1 NMatT0=    0 NMatD0=    1 NMtDS0=    0 NMtDT0=    0
 Petite list used in FoFCou.
 Harris En= -1135.89534952217    
 JPrj=0 DoOrth=F DoCkMO=F.
 Initial guess <Sx>= 0.0000 <Sy>= 0.0000 <Sz>= 0.5000 <S**2>= 0.7500 S= 0.5000
 Leave Link  401 at Wed Nov 29 15:39:36 2023, MaxMem=  1879048192 cpu:               4.3 elap:               0.3
 (Enter /home/sekinelabo/g16/l502.exe)
 Keep R1 and R2 ints in memory in canonical form, NReq=506573321.
 FoFCou: FMM=F IPFlag=           0 FMFlag=           0 FMFlg1=           0
         NFxFlg=           0 DoJE=F BraDBF=F KetDBF=F FulRan=T
         wScrn=  0.000000 ICntrl=       600 IOpCl=  0 I1Cent=           0 NGrid=           0
         NMat0=    1 NMatS0=  22155 NMatT0=    0 NMatD0=    1 NMtDS0=    0 NMtDT0=    0
 Symmetry not used in FoFCou.
 Two-electron integral symmetry not used.
 UHF open shell SCF:
 Using DIIS extrapolation, IDIIS=  1040.
 NGot=  1879048192 LenX=  1388082579 LenY=  1388035049
 Requested convergence on RMS density matrix=1.00D-08 within 128 cycles.
 Requested convergence on MAX density matrix=1.00D-06.
 Requested convergence on             energy=1.00D-06.
 No special actions if energy rises.

 Cycle   1  Pass 1  IDiag  1:
 E= -1136.09927806505    
 DIIS: error= 1.29D-02 at cycle   1 NSaved=   1.
 NSaved= 1 IEnMin= 1 EnMin= -1136.09927806505     IErMin= 1 ErrMin= 1.29D-02
 ErrMax= 1.29D-02  0.00D+00 EMaxC= 1.00D-01 BMatC= 1.84D-01 BMatP= 1.84D-01
 IDIUse=3 WtCom= 8.71D-01 WtEn= 1.29D-01
 Coeff-Com:  0.100D+01
 Coeff-En:   0.100D+01
 Coeff:      0.100D+01
 Gap=     0.028 Goal=   None    Shift=    0.000
 Gap=     0.058 Goal=   None    Shift=    0.000
 GapD=    0.028 DampG=0.250 DampE=0.500 DampFc=0.2500 IDamp=-1.
 Damping current iteration by 2.50D-01
 RMSDP=4.78D-02 MaxDP=4.44D+00              OVMax= 1.80D-01

 Cycle   2  Pass 1  IDiag  1:
 E= -1136.10880988444     Delta-E=       -0.009531819388 Rises=F Damp=T
 DIIS: error= 8.88D-03 at cycle   2 NSaved=   2.
 NSaved= 2 IEnMin= 2 EnMin= -1136.10880988444     IErMin= 2 ErrMin= 8.88D-03
 ErrMax= 8.88D-03  0.00D+00 EMaxC= 1.00D-01 BMatC= 7.08D-02 BMatP= 1.84D-01
 IDIUse=3 WtCom= 9.11D-01 WtEn= 8.88D-02
 Coeff-Com: -0.129D+01 0.229D+01
 Coeff-En:   0.000D+00 0.100D+01
 Coeff:     -0.118D+01 0.218D+01
 Gap=     0.031 Goal=   None    Shift=    0.000
 Gap=     0.063 Goal=   None    Shift=    0.000
 RMSDP=1.97D-02 MaxDP=1.84D+00 DE=-9.53D-03 OVMax= 1.16D-01

 Cycle   3  Pass 1  IDiag  1:
 E= -1136.12679728966     Delta-E=       -0.017987405221 Rises=F Damp=F
 DIIS: error= 1.77D-03 at cycle   3 NSaved=   3.
 NSaved= 3 IEnMin= 3 EnMin= -1136.12679728966     IErMin= 3 ErrMin= 1.77D-03
 ErrMax= 1.77D-03  0.00D+00 EMaxC= 1.00D-01 BMatC= 1.03D-03 BMatP= 7.08D-02
 IDIUse=3 WtCom= 9.82D-01 WtEn= 1.77D-02
 Coeff-Com: -0.657D-01 0.128D+00 0.938D+00
 Coeff-En:   0.000D+00 0.000D+00 0.100D+01
 Coeff:     -0.646D-01 0.125D+00 0.939D+00
 Gap=     0.031 Goal=   None    Shift=    0.000
 Gap=     0.060 Goal=   None    Shift=    0.000
 RMSDP=8.63D-03 MaxDP=7.87D-01 DE=-1.80D-02 OVMax= 6.31D-02

 Cycle   4  Pass 1  IDiag  1:
 E= -1136.12632571310     Delta-E=        0.000471576558 Rises=F Damp=F
 DIIS: error= 1.96D-03 at cycle   4 NSaved=   4.
 NSaved= 4 IEnMin= 3 EnMin= -1136.12679728966     IErMin= 3 ErrMin= 1.77D-03
 ErrMax= 1.96D-03  0.00D+00 EMaxC= 1.00D-01 BMatC= 1.44D-03 BMatP= 1.03D-03
 IDIUse=3 WtCom= 1.84D-01 WtEn= 8.16D-01
 Coeff-Com:  0.135D-01-0.191D-01 0.546D+00 0.460D+00
 Coeff-En:   0.000D+00 0.000D+00 0.591D+00 0.409D+00
 Coeff:      0.249D-02-0.352D-02 0.583D+00 0.418D+00
 Gap=     0.032 Goal=   None    Shift=    0.000
 Gap=     0.062 Goal=   None    Shift=    0.000
 RMSDP=3.02D-03 MaxDP=2.83D-01 DE= 4.72D-04 OVMax= 3.98D-02

 Cycle   5  Pass 1  IDiag  1:
 E= -1136.12775553316     Delta-E=       -0.001429820059 Rises=F Damp=F
 DIIS: error= 3.11D-04 at cycle   5 NSaved=   5.
 NSaved= 5 IEnMin= 5 EnMin= -1136.12775553316     IErMin= 5 ErrMin= 3.11D-04
 ErrMax= 3.11D-04  0.00D+00 EMaxC= 1.00D-01 BMatC= 3.48D-05 BMatP= 1.03D-03
 IDIUse=3 WtCom= 9.97D-01 WtEn= 3.11D-03
 Coeff-Com:  0.230D-02-0.437D-02 0.281D+00 0.204D+00 0.517D+00
 Coeff-En:   0.000D+00 0.000D+00 0.000D+00 0.000D+00 0.100D+01
 Coeff:      0.230D-02-0.436D-02 0.280D+00 0.203D+00 0.519D+00
 Gap=     0.032 Goal=   None    Shift=    0.000
 Gap=     0.062 Goal=   None    Shift=    0.000
 RMSDP=8.51D-04 MaxDP=8.05D-02 DE=-1.43D-03 OVMax= 9.78D-03

 Cycle   6  Pass 1  IDiag  1:
 E= -1136.12779490969     Delta-E=       -0.000039376530 Rises=F Damp=F
 DIIS: error= 1.70D-04 at cycle   6 NSaved=   6.
 NSaved= 6 IEnMin= 6 EnMin= -1136.12779490969     IErMin= 6 ErrMin= 1.70D-04
 ErrMax= 1.70D-04  0.00D+00 EMaxC= 1.00D-01 BMatC= 5.82D-06 BMatP= 3.48D-05
 IDIUse=3 WtCom= 9.98D-01 WtEn= 1.70D-03
 Coeff-Com: -0.665D-02 0.853D-02-0.135D+00-0.128D+00 0.211D+00 0.105D+01
 Coeff-En:   0.000D+00 0.000D+00 0.000D+00 0.000D+00 0.000D+00 0.100D+01
 Coeff:     -0.664D-02 0.852D-02-0.135D+00-0.128D+00 0.210D+00 0.105D+01
 Gap=     0.032 Goal=   None    Shift=    0.000
 Gap=     0.062 Goal=   None    Shift=    0.000
 RMSDP=4.84D-04 MaxDP=5.28D-02 DE=-3.94D-05 OVMax= 1.06D-02

 Cycle   7  Pass 1  IDiag  1:
 E= -1136.12781981721     Delta-E=       -0.000024907523 Rises=F Damp=F
 DIIS: error= 5.92D-05 at cycle   7 NSaved=   7.
 NSaved= 7 IEnMin= 7 EnMin= -1136.12781981721     IErMin= 7 ErrMin= 5.92D-05
 ErrMax= 5.92D-05  0.00D+00 EMaxC= 1.00D-01 BMatC= 7.49D-07 BMatP= 5.82D-06
 IDIUse=1 WtCom= 1.00D+00 WtEn= 0.00D+00
 Coeff-Com:  0.130D-02-0.158D-02-0.390D-01-0.265D-01-0.965D-01-0.327D-01
 Coeff-Com:  0.119D+01
 Coeff:      0.130D-02-0.158D-02-0.390D-01-0.265D-01-0.965D-01-0.327D-01
 Coeff:      0.119D+01
 Gap=     0.032 Goal=   None    Shift=    0.000
 Gap=     0.062 Goal=   None    Shift=    0.000
 RMSDP=1.36D-04 MaxDP=8.70D-03 DE=-2.49D-05 OVMax= 6.16D-03

 Cycle   8  Pass 1  IDiag  1:
 E= -1136.12782686677     Delta-E=       -0.000007049551 Rises=F Damp=F
 DIIS: error= 3.93D-05 at cycle   8 NSaved=   8.
 NSaved= 8 IEnMin= 8 EnMin= -1136.12782686677     IErMin= 8 ErrMin= 3.93D-05
 ErrMax= 3.93D-05  0.00D+00 EMaxC= 1.00D-01 BMatC= 2.71D-07 BMatP= 7.49D-07
 IDIUse=1 WtCom= 1.00D+00 WtEn= 0.00D+00
 Coeff-Com:  0.247D-02-0.316D-02 0.188D-01 0.204D-01-0.840D-01-0.238D+00
 Coeff-Com:  0.344D+00 0.940D+00
 Coeff:      0.247D-02-0.316D-02 0.188D-01 0.204D-01-0.840D-01-0.238D+00
 Coeff:      0.344D+00 0.940D+00
 Gap=     0.032 Goal=   None    Shift=    0.000
 Gap=     0.062 Goal=   None    Shift=    0.000
 RMSDP=8.21D-05 MaxDP=5.46D-03 DE=-7.05D-06 OVMax= 3.56D-03

 Cycle   9  Pass 1  IDiag  1:
 E= -1136.12782898493     Delta-E=       -0.000002118167 Rises=F Damp=F
 DIIS: error= 2.26D-05 at cycle   9 NSaved=   9.
 NSaved= 9 IEnMin= 9 EnMin= -1136.12782898493     IErMin= 9 ErrMin= 2.26D-05
 ErrMax= 2.26D-05  0.00D+00 EMaxC= 1.00D-01 BMatC= 8.80D-08 BMatP= 2.71D-07
 IDIUse=1 WtCom= 1.00D+00 WtEn= 0.00D+00
 Coeff-Com:  0.271D-03-0.363D-03 0.185D-01 0.135D-01 0.221D-02-0.518D-01
 Coeff-Com: -0.275D+00 0.192D+00 0.110D+01
 Coeff:      0.271D-03-0.363D-03 0.185D-01 0.135D-01 0.221D-02-0.518D-01
 Coeff:     -0.275D+00 0.192D+00 0.110D+01
 Gap=     0.032 Goal=   None    Shift=    0.000
 Gap=     0.062 Goal=   None    Shift=    0.000
 RMSDP=7.66D-05 MaxDP=6.32D-03 DE=-2.12D-06 OVMax= 2.71D-03

 Cycle  10  Pass 1  IDiag  1:
 E= -1136.12782978507     Delta-E=       -0.000000800139 Rises=F Damp=F
 DIIS: error= 2.04D-05 at cycle  10 NSaved=  10.
 NSaved=10 IEnMin=10 EnMin= -1136.12782978507     IErMin=10 ErrMin= 2.04D-05
 ErrMax= 2.04D-05  0.00D+00 EMaxC= 1.00D-01 BMatC= 4.69D-08 BMatP= 8.80D-08
 IDIUse=1 WtCom= 1.00D+00 WtEn= 0.00D+00
 Coeff-Com: -0.696D-03 0.888D-03 0.619D-02 0.235D-02 0.271D-01 0.395D-01
 Coeff-Com: -0.271D+00-0.184D+00 0.675D+00 0.704D+00
 Coeff:     -0.696D-03 0.888D-03 0.619D-02 0.235D-02 0.271D-01 0.395D-01
 Coeff:     -0.271D+00-0.184D+00 0.675D+00 0.704D+00
 Gap=     0.032 Goal=   None    Shift=    0.000
 Gap=     0.062 Goal=   None    Shift=    0.000
 RMSDP=4.73D-05 MaxDP=3.85D-03 DE=-8.00D-07 OVMax= 1.28D-03

 Cycle  11  Pass 1  IDiag  1:
 E= -1136.12783000039     Delta-E=       -0.000000215319 Rises=F Damp=F
 DIIS: error= 5.97D-06 at cycle  11 NSaved=  11.
 NSaved=11 IEnMin=11 EnMin= -1136.12783000039     IErMin=11 ErrMin= 5.97D-06
 ErrMax= 5.97D-06  0.00D+00 EMaxC= 1.00D-01 BMatC= 1.10D-08 BMatP= 4.69D-08
 IDIUse=1 WtCom= 1.00D+00 WtEn= 0.00D+00
 Coeff-Com: -0.503D-03 0.647D-03-0.297D-02-0.312D-02 0.138D-01 0.359D-01
 Coeff-Com: -0.419D-01-0.161D+00-0.388D-01 0.382D+00 0.816D+00
 Coeff:     -0.503D-03 0.647D-03-0.297D-02-0.312D-02 0.138D-01 0.359D-01
 Coeff:     -0.419D-01-0.161D+00-0.388D-01 0.382D+00 0.816D+00
 Gap=     0.032 Goal=   None    Shift=    0.000
 Gap=     0.062 Goal=   None    Shift=    0.000
 RMSDP=3.48D-05 MaxDP=2.73D-03 DE=-2.15D-07 OVMax= 6.63D-04

 Cycle  12  Pass 1  IDiag  1:
 E= -1136.12783004914     Delta-E=       -0.000000048749 Rises=F Damp=F
 DIIS: error= 1.89D-06 at cycle  12 NSaved=  12.
 NSaved=12 IEnMin=12 EnMin= -1136.12783004914     IErMin=12 ErrMin= 1.89D-06
 ErrMax= 1.89D-06  0.00D+00 EMaxC= 1.00D-01 BMatC= 8.00D-10 BMatP= 1.10D-08
 IDIUse=1 WtCom= 1.00D+00 WtEn= 0.00D+00
 Coeff-Com:  0.141D-03-0.184D-03-0.906D-03-0.199D-03-0.324D-02-0.621D-02
 Coeff-Com:  0.367D-01 0.308D-01-0.105D+00-0.104D+00-0.135D-01 0.117D+01
 Coeff:      0.141D-03-0.184D-03-0.906D-03-0.199D-03-0.324D-02-0.621D-02
 Coeff:      0.367D-01 0.308D-01-0.105D+00-0.104D+00-0.135D-01 0.117D+01
 Gap=     0.032 Goal=   None    Shift=    0.000
 Gap=     0.062 Goal=   None    Shift=    0.000
 RMSDP=2.21D-05 MaxDP=1.85D-03 DE=-4.87D-08 OVMax= 2.74D-04

 Cycle  13  Pass 1  IDiag  1:
 E= -1136.12783005593     Delta-E=       -0.000000006792 Rises=F Damp=F
 DIIS: error= 1.16D-06 at cycle  13 NSaved=  13.
 NSaved=13 IEnMin=13 EnMin= -1136.12783005593     IErMin=13 ErrMin= 1.16D-06
 ErrMax= 1.16D-06  0.00D+00 EMaxC= 1.00D-01 BMatC= 2.09D-10 BMatP= 8.00D-10
 IDIUse=1 WtCom= 1.00D+00 WtEn= 0.00D+00
 Coeff-Com:  0.969D-04-0.125D-03-0.547D-04 0.143D-03-0.249D-02-0.475D-02
 Coeff-Com:  0.138D-01 0.275D-01-0.230D-01-0.752D-01-0.116D+00 0.333D+00
 Coeff-Com:  0.848D+00
 Coeff:      0.969D-04-0.125D-03-0.547D-04 0.143D-03-0.249D-02-0.475D-02
 Coeff:      0.138D-01 0.275D-01-0.230D-01-0.752D-01-0.116D+00 0.333D+00
 Coeff:      0.848D+00
 Gap=     0.032 Goal=   None    Shift=    0.000
 Gap=     0.062 Goal=   None    Shift=    0.000
 RMSDP=7.75D-06 MaxDP=6.48D-04 DE=-6.79D-09 OVMax= 1.26D-04

 Cycle  14  Pass 1  IDiag  1:
 E= -1136.12783005726     Delta-E=       -0.000000001330 Rises=F Damp=F
 DIIS: error= 8.82D-07 at cycle  14 NSaved=  14.
 NSaved=14 IEnMin=14 EnMin= -1136.12783005726     IErMin=14 ErrMin= 8.82D-07
 ErrMax= 8.82D-07  0.00D+00 EMaxC= 1.00D-01 BMatC= 6.15D-11 BMatP= 2.09D-10
 IDIUse=1 WtCom= 1.00D+00 WtEn= 0.00D+00
 Coeff-Com: -0.499D-04 0.660D-04 0.249D-03 0.133D-05 0.109D-02 0.270D-02
 Coeff-Com: -0.134D-01-0.805D-02 0.343D-01 0.335D-01-0.894D-02-0.343D+00
 Coeff-Com:  0.227D-01 0.128D+01
 Coeff:     -0.499D-04 0.660D-04 0.249D-03 0.133D-05 0.109D-02 0.270D-02
 Coeff:     -0.134D-01-0.805D-02 0.343D-01 0.335D-01-0.894D-02-0.343D+00
 Coeff:      0.227D-01 0.128D+01
 Gap=     0.032 Goal=   None    Shift=    0.000
 Gap=     0.062 Goal=   None    Shift=    0.000
 RMSDP=5.56D-06 MaxDP=5.22D-04 DE=-1.33D-09 OVMax= 1.37D-04

 Cycle  15  Pass 1  IDiag  1:
 E= -1136.12783005809     Delta-E=       -0.000000000830 Rises=F Damp=F
 DIIS: error= 5.51D-07 at cycle  15 NSaved=  15.
 NSaved=15 IEnMin=15 EnMin= -1136.12783005809     IErMin=15 ErrMin= 5.51D-07
 ErrMax= 5.51D-07  0.00D+00 EMaxC= 1.00D-01 BMatC= 2.15D-11 BMatP= 6.15D-11
 IDIUse=1 WtCom= 1.00D+00 WtEn= 0.00D+00
 Coeff-Com: -0.132D-04 0.165D-04-0.834D-04-0.500D-04 0.538D-03 0.373D-03
 Coeff-Com:  0.133D-03-0.310D-02-0.789D-02 0.792D-02 0.272D-01 0.680D-01
 Coeff-Com: -0.241D+00-0.482D+00 0.163D+01
 Coeff:     -0.132D-04 0.165D-04-0.834D-04-0.500D-04 0.538D-03 0.373D-03
 Coeff:      0.133D-03-0.310D-02-0.789D-02 0.792D-02 0.272D-01 0.680D-01
 Coeff:     -0.241D+00-0.482D+00 0.163D+01
 Gap=     0.032 Goal=   None    Shift=    0.000
 Gap=     0.062 Goal=   None    Shift=    0.000
 RMSDP=2.03D-06 MaxDP=1.79D-04 DE=-8.30D-10 OVMax= 1.12D-04

 Cycle  16  Pass 1  IDiag  1:
 E= -1136.12783005851     Delta-E=       -0.000000000417 Rises=F Damp=F
 DIIS: error= 3.10D-07 at cycle  16 NSaved=  16.
 NSaved=16 IEnMin=16 EnMin= -1136.12783005851     IErMin=16 ErrMin= 3.10D-07
 ErrMax= 3.10D-07  0.00D+00 EMaxC= 1.00D-01 BMatC= 7.10D-12 BMatP= 2.15D-11
 IDIUse=1 WtCom= 1.00D+00 WtEn= 0.00D+00
 Coeff-Com:  0.202D-04-0.269D-04-0.108D-03-0.133D-04-0.328D-03-0.930D-03
 Coeff-Com:  0.500D-02 0.261D-02-0.134D-01-0.122D-01 0.448D-02 0.142D+00
 Coeff-Com:  0.162D-01-0.592D+00 0.655D-01 0.138D+01
 Coeff:      0.202D-04-0.269D-04-0.108D-03-0.133D-04-0.328D-03-0.930D-03
 Coeff:      0.500D-02 0.261D-02-0.134D-01-0.122D-01 0.448D-02 0.142D+00
 Coeff:      0.162D-01-0.592D+00 0.655D-01 0.138D+01
 Gap=     0.032 Goal=   None    Shift=    0.000
 Gap=     0.062 Goal=   None    Shift=    0.000
 RMSDP=7.93D-07 MaxDP=4.17D-05 DE=-4.17D-10 OVMax= 8.33D-05

 Cycle  17  Pass 1  IDiag  1:
 E= -1136.12783005866     Delta-E=       -0.000000000147 Rises=F Damp=F
 DIIS: error= 1.23D-07 at cycle  17 NSaved=  17.
 NSaved=17 IEnMin=17 EnMin= -1136.12783005866     IErMin=17 ErrMin= 1.23D-07
 ErrMax= 1.23D-07  0.00D+00 EMaxC= 1.00D-01 BMatC= 2.04D-12 BMatP= 7.10D-12
 IDIUse=1 WtCom= 1.00D+00 WtEn= 0.00D+00
 Coeff-Com:  0.104D-04-0.136D-04-0.162D-04-0.740D-06-0.261D-03-0.262D-03
 Coeff-Com:  0.128D-02 0.173D-02-0.156D-02-0.570D-02-0.758D-02 0.197D-01
 Coeff-Com:  0.618D-01 0.356D-01-0.537D+00 0.365D+00 0.107D+01
 Coeff:      0.104D-04-0.136D-04-0.162D-04-0.740D-06-0.261D-03-0.262D-03
 Coeff:      0.128D-02 0.173D-02-0.156D-02-0.570D-02-0.758D-02 0.197D-01
 Coeff:      0.618D-01 0.356D-01-0.537D+00 0.365D+00 0.107D+01
 Gap=     0.032 Goal=   None    Shift=    0.000
 Gap=     0.062 Goal=   None    Shift=    0.000
 RMSDP=3.95D-07 MaxDP=1.62D-05 DE=-1.47D-10 OVMax= 3.91D-05

 Cycle  18  Pass 1  IDiag  1:
 E= -1136.12783005868     Delta-E=       -0.000000000029 Rises=F Damp=F
 DIIS: error= 4.47D-08 at cycle  18 NSaved=  18.
 NSaved=18 IEnMin=18 EnMin= -1136.12783005868     IErMin=18 ErrMin= 4.47D-08
 ErrMax= 4.47D-08  0.00D+00 EMaxC= 1.00D-01 BMatC= 3.66D-13 BMatP= 2.04D-12
 IDIUse=1 WtCom= 1.00D+00 WtEn= 0.00D+00
 Coeff-Com: -0.586D-06 0.860D-06 0.238D-04 0.698D-05-0.926D-05 0.554D-05
 Coeff-Com: -0.357D-03 0.135D-04 0.140D-02 0.737D-03-0.221D-02-0.164D-01
 Coeff-Com:  0.674D-02 0.951D-01-0.865D-01-0.198D+00 0.157D+00 0.104D+01
 Coeff:     -0.586D-06 0.860D-06 0.238D-04 0.698D-05-0.926D-05 0.554D-05
 Coeff:     -0.357D-03 0.135D-04 0.140D-02 0.737D-03-0.221D-02-0.164D-01
 Coeff:      0.674D-02 0.951D-01-0.865D-01-0.198D+00 0.157D+00 0.104D+01
 Gap=     0.032 Goal=   None    Shift=    0.000
 Gap=     0.062 Goal=   None    Shift=    0.000
 RMSDP=1.95D-07 MaxDP=1.15D-05 DE=-2.86D-11 OVMax= 1.35D-05

 Cycle  19  Pass 1  IDiag  1:
 E= -1136.12783005870     Delta-E=       -0.000000000016 Rises=F Damp=F
 DIIS: error= 1.63D-08 at cycle  19 NSaved=  19.
 NSaved=19 IEnMin=19 EnMin= -1136.12783005870     IErMin=19 ErrMin= 1.63D-08
 ErrMax= 1.63D-08  0.00D+00 EMaxC= 1.00D-01 BMatC= 7.28D-14 BMatP= 3.66D-13
 IDIUse=1 WtCom= 1.00D+00 WtEn= 0.00D+00
 Coeff-Com: -0.345D-05 0.450D-05 0.932D-05 0.728D-06 0.752D-04 0.113D-03
 Coeff-Com: -0.534D-03-0.526D-03 0.899D-03 0.195D-02 0.192D-02-0.114D-01
 Coeff-Com: -0.144D-01 0.184D-01 0.119D+00-0.155D+00-0.214D+00 0.130D+00
 Coeff-Com:  0.112D+01
 Coeff:     -0.345D-05 0.450D-05 0.932D-05 0.728D-06 0.752D-04 0.113D-03
 Coeff:     -0.534D-03-0.526D-03 0.899D-03 0.195D-02 0.192D-02-0.114D-01
 Coeff:     -0.144D-01 0.184D-01 0.119D+00-0.155D+00-0.214D+00 0.130D+00
 Coeff:      0.112D+01
 Gap=     0.032 Goal=   None    Shift=    0.000
 Gap=     0.062 Goal=   None    Shift=    0.000
 RMSDP=1.32D-07 MaxDP=9.51D-06 DE=-1.64D-11 OVMax= 6.17D-06

 Cycle  20  Pass 1  IDiag  1:
 E= -1136.12783005870     Delta-E=        0.000000000000 Rises=F Damp=F
 DIIS: error= 6.18D-09 at cycle  20 NSaved=  20.
 NSaved=20 IEnMin=19 EnMin= -1136.12783005870     IErMin=20 ErrMin= 6.18D-09
 ErrMax= 6.18D-09  0.00D+00 EMaxC= 1.00D-01 BMatC= 1.14D-14 BMatP= 7.28D-14
 IDIUse=1 WtCom= 1.00D+00 WtEn= 0.00D+00
 Coeff-Com: -0.122D-06 0.137D-06-0.261D-05-0.442D-06 0.813D-05 0.395D-05
 Coeff-Com:  0.334D-04-0.521D-04-0.225D-03-0.235D-04 0.713D-03 0.284D-02
 Coeff-Com: -0.428D-02-0.174D-01 0.346D-01 0.189D-01-0.656D-01-0.174D+00
 Coeff-Com:  0.173D+00 0.103D+01
 Coeff:     -0.122D-06 0.137D-06-0.261D-05-0.442D-06 0.813D-05 0.395D-05
 Coeff:      0.334D-04-0.521D-04-0.225D-03-0.235D-04 0.713D-03 0.284D-02
 Coeff:     -0.428D-02-0.174D-01 0.346D-01 0.189D-01-0.656D-01-0.174D+00
 Coeff:      0.173D+00 0.103D+01
 Gap=     0.032 Goal=   None    Shift=    0.000
 Gap=     0.062 Goal=   None    Shift=    0.000
 RMSDP=6.11D-08 MaxDP=5.72D-06 DE= 0.00D+00 OVMax= 1.52D-06

 Cycle  21  Pass 1  IDiag  1:
 E= -1136.12783005869     Delta-E=        0.000000000009 Rises=F Damp=F
 DIIS: error= 1.76D-09 at cycle  21 NSaved=  20.
 NSaved=20 IEnMin=18 EnMin= -1136.12783005870     IErMin=20 ErrMin= 1.76D-09
 ErrMax= 1.76D-09  0.00D+00 EMaxC= 1.00D-01 BMatC= 1.28D-15 BMatP= 1.14D-14
 IDIUse=1 WtCom= 1.00D+00 WtEn= 0.00D+00
 Large coefficients: NSaved= 20 BigCof=    0.00 CofMax=   10.00 Det=-3.92D-15
 Inversion failed.  Reducing to 19 matrices.
 Large coefficients: NSaved= 19 BigCof=    0.00 CofMax=   10.00 Det=-3.94D-15
 Inversion failed.  Reducing to 18 matrices.
 Large coefficients: NSaved= 18 BigCof=    0.00 CofMax=   10.00 Det=-3.94D-15
 Inversion failed.  Reducing to 17 matrices.
 Large coefficients: NSaved= 17 BigCof=    0.00 CofMax=   10.00 Det=-5.12D-15
 Inversion failed.  Reducing to 16 matrices.
 Large coefficients: NSaved= 16 BigCof=    0.00 CofMax=   10.00 Det=-5.29D-15
 Inversion failed.  Reducing to 15 matrices.
 Coeff-Com: -0.205D-05-0.961D-05 0.241D-04 0.746D-05-0.482D-04-0.359D-05
 Coeff-Com:  0.248D-03-0.374D-04-0.229D-02 0.511D-02 0.826D-02-0.187D-01
 Coeff-Com: -0.774D-01 0.891D-01 0.996D+00
 Coeff:     -0.205D-05-0.961D-05 0.241D-04 0.746D-05-0.482D-04-0.359D-05
 Coeff:      0.248D-03-0.374D-04-0.229D-02 0.511D-02 0.826D-02-0.187D-01
 Coeff:     -0.774D-01 0.891D-01 0.996D+00
 Gap=     0.032 Goal=   None    Shift=    0.000
 Gap=     0.062 Goal=   None    Shift=    0.000
 RMSDP=1.33D-08 MaxDP=9.44D-07 DE= 8.64D-12 OVMax= 2.34D-07

 Cycle  22  Pass 1  IDiag  1:
 E= -1136.12783005870     Delta-E=       -0.000000000006 Rises=F Damp=F
 DIIS: error= 1.18D-09 at cycle  22 NSaved=  16.
 NSaved=16 IEnMin=13 EnMin= -1136.12783005870     IErMin=16 ErrMin= 1.18D-09
 ErrMax= 1.18D-09  0.00D+00 EMaxC= 1.00D-01 BMatC= 4.20D-16 BMatP= 1.28D-15
 IDIUse=1 WtCom= 1.00D+00 WtEn= 0.00D+00
 Large coefficients: NSaved= 16 BigCof=    0.00 CofMax=   10.00 Det=-1.09D-15
 Inversion failed.  Reducing to 15 matrices.
 Coeff-Com:  0.292D-05 0.112D-05-0.780D-05-0.580D-04 0.551D-04 0.298D-03
 Coeff-Com:  0.463D-03-0.336D-02-0.377D-04 0.108D-01 0.216D-01-0.511D-01
 Coeff-Com: -0.130D+00 0.283D+00 0.868D+00
 Coeff:      0.292D-05 0.112D-05-0.780D-05-0.580D-04 0.551D-04 0.298D-03
 Coeff:      0.463D-03-0.336D-02-0.377D-04 0.108D-01 0.216D-01-0.511D-01
 Coeff:     -0.130D+00 0.283D+00 0.868D+00
 Gap=     0.032 Goal=   None    Shift=    0.000
 Gap=     0.062 Goal=   None    Shift=    0.000
 RMSDP=4.27D-09 MaxDP=2.82D-07 DE=-5.91D-12 OVMax= 6.21D-08

 SCF Done:  E(UB3LYP) =  -1136.12783006     A.U. after   22 cycles
            NFock= 22  Conv=0.43D-08     -V/T= 2.0029
 <Sx>= 0.0000 <Sy>= 0.0000 <Sz>= 0.5000 <S**2>= 0.7857 S= 0.5177
 <L.S>= 0.000000000000E+00
 KE= 1.132874499474D+03 PE=-3.330565974698D+03 EE= 7.609222285550D+02
 Annihilation of the first spin contaminant:
 S**2 before annihilation     0.7857,   after     0.7506
 Leave Link  502 at Wed Nov 29 15:39:54 2023, MaxMem=  1879048192 cpu:             200.1 elap:              17.9
 (Enter /home/sekinelabo/g16/l601.exe)
 Copying SCF densities to generalized density rwf, IOpCl= 1 IROHF=0.

 **********************************************************************

            Population analysis using the SCF Density.

 **********************************************************************

 Orbital symmetries:
 Alpha Orbitals:
       Occupied  (A) (A) (A) (A) (A) (A) (A) (A) (A) (A) (A) (A)
                 (A) (A) (A) (A) (A) (A) (A) (A) (A) (A) (A) (A)
                 (A) (A) (A) (A) (A) (A) (A) (A) (A) (A) (A) (A)
                 (A) (A) (A)
       Virtual   (A) (A) (A) (A) (A) (A) (A) (A) (A) (A) (A) (A)
                 (A) (A) (A) (A) (A) (A) (A) (A) (A) (A) (A) (A)
                 (A) (A) (A) (A) (A) (A) (A) (A) (A) (A) (A) (A)
                 (A) (A) (A) (A) (A) (A) (A) (A) (A) (A) (A) (A)
                 (A) (A) (A) (A) (A) (A) (A) (A) (A) (A) (A) (A)
                 (A) (A) (A) (A) (A) (A) (A) (A) (A) (A) (A) (A)
                 (A) (A) (A) (A) (A) (A) (A) (A) (A) (A) (A) (A)
                 (A) (A) (A) (A) (A) (A) (A) (A) (A) (A) (A) (A)
                 (A) (A) (A) (A) (A) (A) (A) (A) (A) (A) (A) (A)
                 (A) (A) (A) (A) (A) (A) (A) (A) (A) (A) (A) (A)
                 (A) (A) (A) (A) (A) (A) (A) (A) (A) (A) (A) (A)
                 (A) (A) (A) (A) (A) (A) (A) (A) (A) (A) (A) (A)
                 (A) (A) (A) (A) (A) (A) (A) (A) (A) (A) (A) (A)
                 (A) (A) (A) (A) (A) (A) (A) (A) (A) (A) (A) (A)
                 (A) (A) (A)
 Beta  Orbitals:
       Occupied  (A) (A) (A) (A) (A) (A) (A) (A) (A) (A) (A) (A)
                 (A) (A) (A) (A) (A) (A) (A) (A) (A) (A) (A) (A)
                 (A) (A) (A) (A) (A) (A) (A) (A) (A) (A) (A) (A)
                 (A) (A)
       Virtual   (A) (A) (A) (A) (A) (A) (A) (A) (A) (A) (A) (A)
                 (A) (A) (A) (A) (A) (A) (A) (A) (A) (A) (A) (A)
                 (A) (A) (A) (A) (A) (A) (A) (A) (A) (A) (A) (A)
                 (A) (A) (A) (A) (A) (A) (A) (A) (A) (A) (A) (A)
                 (A) (A) (A) (A) (A) (A) (A) (A) (A) (A) (A) (A)
                 (A) (A) (A) (A) (A) (A) (A) (A) (A) (A) (A) (A)
                 (A) (A) (A) (A) (A) (A) (A) (A) (A) (A) (A) (A)
                 (A) (A) (A) (A) (A) (A) (A) (A) (A) (A) (A) (A)
                 (A) (A) (A) (A) (A) (A) (A) (A) (A) (A) (A) (A)
                 (A) (A) (A) (A) (A) (A) (A) (A) (A) (A) (A) (A)
                 (A) (A) (A) (A) (A) (A) (A) (A) (A) (A) (A) (A)
                 (A) (A) (A) (A) (A) (A) (A) (A) (A) (A) (A) (A)
                 (A) (A) (A) (A) (A) (A) (A) (A) (A) (A) (A) (A)
                 (A) (A) (A) (A) (A) (A) (A) (A) (A) (A) (A) (A)
                 (A) (A) (A) (A)
 The electronic state is 2-A.
 Alpha  occ. eigenvalues --  -38.44463 -38.44413 -38.44035 -38.43924 -38.43750
 Alpha  occ. eigenvalues --  -38.43559 -38.43497  -2.20279  -2.20232  -2.19923
 Alpha  occ. eigenvalues --   -2.19762  -2.19591  -2.19372  -2.19311  -1.13965
 Alpha  occ. eigenvalues --   -1.13952  -1.13924  -1.13916  -1.13915  -1.13847
 Alpha  occ. eigenvalues --   -1.13648  -1.13593  -1.13560  -1.13417  -1.13400
 Alpha  occ. eigenvalues --   -1.13383  -1.13243  -1.13225  -1.13224  -1.13039
 Alpha  occ. eigenvalues --   -1.13031  -1.13019  -1.12982  -1.12958  -1.12930
 Alpha  occ. eigenvalues --   -0.17075  -0.13779  -0.13301  -0.09862
 Alpha virt. eigenvalues --   -0.06640  -0.05665  -0.04150  -0.03489  -0.02874
 Alpha virt. eigenvalues --   -0.02082  -0.02001  -0.01755  -0.01396  -0.00265
 Alpha virt. eigenvalues --   -0.00080   0.00314   0.00416   0.00609   0.00758
 Alpha virt. eigenvalues --    0.00807   0.00838   0.00991   0.01341   0.01449
 Alpha virt. eigenvalues --    0.01560   0.01614   0.01731   0.01853   0.01903
 Alpha virt. eigenvalues --    0.02029   0.02102   0.02311   0.02462   0.02632
 Alpha virt. eigenvalues --    0.02683   0.02877   0.02920   0.03075   0.03184
 Alpha virt. eigenvalues --    0.03315   0.03367   0.03432   0.03463   0.03557
 Alpha virt. eigenvalues --    0.03675   0.03856   0.03888   0.04135   0.04245
 Alpha virt. eigenvalues --    0.04280   0.04928   0.05276   0.05613   0.05791
 Alpha virt. eigenvalues --    0.06249   0.06523   0.06671   0.07250   0.07417
 Alpha virt. eigenvalues --    0.07506   0.07676   0.07884   0.08312   0.08433
 Alpha virt. eigenvalues --    0.08511   0.09058   0.09547   0.09976   0.10299
 Alpha virt. eigenvalues --    0.10679   0.10753   0.11116   0.11527   0.11931
 Alpha virt. eigenvalues --    0.12292   0.13118   0.13202   0.13598   0.13801
 Alpha virt. eigenvalues --    0.15081   0.15294   0.15660   0.16002   0.17896
 Alpha virt. eigenvalues --    0.25883   0.27292   0.28099   0.28487   0.29680
 Alpha virt. eigenvalues --    0.30384   0.30851   0.31746   0.32120   0.32636
 Alpha virt. eigenvalues --    0.32786   0.33300   0.34456   0.36211   0.36856
 Alpha virt. eigenvalues --    0.37872   0.39046   0.39875   0.40423   0.40926
 Alpha virt. eigenvalues --    0.41724   0.42965   0.43391   0.43686   0.44002
 Alpha virt. eigenvalues --    0.44448   0.44569   0.44766   0.45257   0.45338
 Alpha virt. eigenvalues --    0.45391   0.45777   0.45922   0.46623   0.46787
 Alpha virt. eigenvalues --    0.47230   0.47479   0.48171   0.48698   0.49430
 Alpha virt. eigenvalues --    0.49676   0.50067   0.50876   0.51028   0.52058
 Alpha virt. eigenvalues --    0.53292   0.54638   0.55574   0.56030   0.57168
 Alpha virt. eigenvalues --    0.58599   0.59117   0.61299   0.62378   0.63825
 Alpha virt. eigenvalues --    0.66594   2.01022   2.09545   2.10635   2.14495
 Alpha virt. eigenvalues --    2.16161   2.18121   2.21409   4.43537   4.44435
 Alpha virt. eigenvalues --    4.44789   4.44916   4.45053   4.45211   4.45599
 Alpha virt. eigenvalues --    4.45824   4.45885   4.46023   4.46578   4.46688
 Alpha virt. eigenvalues --    4.47444   4.48291   4.49687   4.50886   4.52220
 Alpha virt. eigenvalues --    4.53850   4.54330   4.56226   4.60128  96.19867
 Alpha virt. eigenvalues --   96.30300  96.31612  96.36050  96.38441  96.40728
 Alpha virt. eigenvalues --   96.44363
  Beta  occ. eigenvalues --  -38.44453 -38.44393 -38.44034 -38.43895 -38.43692
  Beta  occ. eigenvalues --  -38.43516 -38.43462  -2.20268  -2.20200  -2.19921
  Beta  occ. eigenvalues --   -2.19707  -2.19483  -2.19295  -2.19248  -1.13964
  Beta  occ. eigenvalues --   -1.13954  -1.13909  -1.13899  -1.13854  -1.13783
  Beta  occ. eigenvalues --   -1.13644  -1.13588  -1.13563  -1.13380  -1.13365
  Beta  occ. eigenvalues --   -1.13349  -1.13170  -1.13158  -1.13141  -1.12988
  Beta  occ. eigenvalues --   -1.12980  -1.12958  -1.12939  -1.12913  -1.12878
  Beta  occ. eigenvalues --   -0.16745  -0.13012  -0.12855
  Beta virt. eigenvalues --   -0.06656  -0.06527  -0.05457  -0.04010  -0.02844
  Beta virt. eigenvalues --   -0.02355  -0.01938  -0.01807  -0.01397  -0.01323
  Beta virt. eigenvalues --   -0.00100   0.00240   0.00422   0.00549   0.00672
  Beta virt. eigenvalues --    0.00826   0.00904   0.00927   0.01068   0.01408
  Beta virt. eigenvalues --    0.01548   0.01691   0.01745   0.01813   0.01906
  Beta virt. eigenvalues --    0.02009   0.02059   0.02216   0.02478   0.02575
  Beta virt. eigenvalues --    0.02671   0.02724   0.02905   0.02979   0.03134
  Beta virt. eigenvalues --    0.03211   0.03393   0.03430   0.03471   0.03549
  Beta virt. eigenvalues --    0.03581   0.03809   0.03955   0.04030   0.04250
  Beta virt. eigenvalues --    0.04271   0.04350   0.05062   0.05349   0.05712
  Beta virt. eigenvalues --    0.05921   0.06348   0.06518   0.06746   0.07316
  Beta virt. eigenvalues --    0.07488   0.07673   0.07793   0.07963   0.08395
  Beta virt. eigenvalues --    0.08527   0.08628   0.09182   0.09666   0.10089
  Beta virt. eigenvalues --    0.10541   0.10900   0.10961   0.11232   0.11662
  Beta virt. eigenvalues --    0.12074   0.12469   0.13244   0.13361   0.13710
  Beta virt. eigenvalues --    0.14036   0.15210   0.15507   0.15754   0.16320
  Beta virt. eigenvalues --    0.18102   0.26122   0.27540   0.28331   0.28684
  Beta virt. eigenvalues --    0.30009   0.30606   0.31154   0.31922   0.32417
  Beta virt. eigenvalues --    0.32908   0.33041   0.33515   0.34765   0.36478
  Beta virt. eigenvalues --    0.37145   0.38103   0.39363   0.39936   0.40649
  Beta virt. eigenvalues --    0.41024   0.41944   0.43183   0.43573   0.43760
  Beta virt. eigenvalues --    0.44164   0.44565   0.44828   0.44871   0.45326
  Beta virt. eigenvalues --    0.45404   0.45525   0.45926   0.46094   0.46732
  Beta virt. eigenvalues --    0.46908   0.47364   0.47650   0.48314   0.48860
  Beta virt. eigenvalues --    0.49504   0.49845   0.50241   0.51022   0.51268
  Beta virt. eigenvalues --    0.52194   0.53465   0.54774   0.55690   0.56064
  Beta virt. eigenvalues --    0.57133   0.58721   0.59201   0.61381   0.62556
  Beta virt. eigenvalues --    0.64027   0.66760   2.01120   2.09674   2.10755
  Beta virt. eigenvalues --    2.14656   2.16264   2.18230   2.21454   4.43606
  Beta virt. eigenvalues --    4.44494   4.44841   4.44929   4.45083   4.45238
  Beta virt. eigenvalues --    4.45652   4.45853   4.45915   4.46086   4.46635
  Beta virt. eigenvalues --    4.46740   4.47468   4.48311   4.49741   4.50955
  Beta virt. eigenvalues --    4.52269   4.53864   4.54364   4.56292   4.60161
  Beta virt. eigenvalues --   96.19903  96.30347  96.31653  96.36098  96.38480
  Beta virt. eigenvalues --   96.40765  96.44381
          Condensed to atoms (all electrons):
               1          2          3          4          5          6
     1  Na  11.244547  -0.458490   1.209976   0.328468  -1.128545  -0.318785
     2  Na  -0.458490  11.271462  -1.992338  -0.506879   1.290590   0.535468
     3  Na   1.209976  -1.992338  17.325480   1.537199  -3.378934  -1.855623
     4  Na   0.328468  -0.506879   1.537199  11.230105  -1.001253  -0.283336
     5  Na  -1.128545   1.290590  -3.378934  -1.001253  13.270627   1.060377
     6  Na  -0.318785   0.535468  -1.855623  -0.283336   1.060377  11.105750
     7  Na   0.377679   0.195501  -2.707380  -0.604661  -0.272411   0.221538
               7
     1  Na   0.377679
     2  Na   0.195501
     3  Na  -2.707380
     4  Na  -0.604661
     5  Na  -0.272411
     6  Na   0.221538
     7  Na  17.055711
          Atomic-Atomic Spin Densities.
               1          2          3          4          5          6
     1  Na   0.348976  -0.019118   0.002341   0.049243  -0.203282   0.149755
     2  Na  -0.019118   0.031753  -0.122802   0.095596   0.121871  -0.006147
     3  Na   0.002341  -0.122802   0.664627  -0.048467  -0.226756  -0.019020
     4  Na   0.049243   0.095596  -0.048467   0.354727  -0.112086   0.033417
     5  Na  -0.203282   0.121871  -0.226756  -0.112086   0.478984  -0.016508
     6  Na   0.149755  -0.006147  -0.019020   0.033417  -0.016508   0.009349
     7  Na  -0.043817  -0.069976  -0.115326  -0.027228   0.022243  -0.014506
               7
     1  Na  -0.043817
     2  Na  -0.069976
     3  Na  -0.115326
     4  Na  -0.027228
     5  Na   0.022243
     6  Na  -0.014506
     7  Na   0.252733
 Mulliken charges and spin densities:
               1          2
     1  Na  -0.254849   0.284099
     2  Na   0.664688   0.031178
     3  Na   0.861620   0.134597
     4  Na   0.300358   0.345201
     5  Na   1.159550   0.064464
     6  Na   0.534610   0.136339
     7  Na  -3.265976   0.004122
 Sum of Mulliken charges =  -0.00000   1.00000
 Mulliken charges and spin densities with hydrogens summed into heavy atoms:
               1          2
     1  Na  -0.254849   0.284099
     2  Na   0.664688   0.031178
     3  Na   0.861620   0.134597
     4  Na   0.300358   0.345201
     5  Na   1.159550   0.064464
     6  Na   0.534610   0.136339
     7  Na  -3.265976   0.004122
 Electronic spatial extent (au):  <R**2>=           3230.1196
 Charge=             -0.0000 electrons
 Dipole moment (field-independent basis, Debye):
    X=              0.7862    Y=              0.5321    Z=             -0.1179  Tot=              0.9566
 Quadrupole moment (field-independent basis, Debye-Ang):
   XX=            -68.0189   YY=            -57.1872   ZZ=            -72.3457
   XY=              3.7862   XZ=             -0.0381   YZ=              0.3846
 Traceless Quadrupole moment (field-independent basis, Debye-Ang):
   XX=             -2.1683   YY=              8.6634   ZZ=             -6.4951
   XY=              3.7862   XZ=             -0.0381   YZ=              0.3846
 Octapole moment (field-independent basis, Debye-Ang**2):
  XXX=              7.7203  YYY=              9.9834  ZZZ=              0.5441  XYY=             15.1402
  XXY=              5.1210  XXZ=              2.9714  XZZ=              1.7907  YZZ=              1.4437
  YYZ=             -7.3330  XYZ=              8.5141
 Hexadecapole moment (field-independent basis, Debye-Ang**3):
 XXXX=          -2947.0720 YYYY=          -2095.4102 ZZZZ=           -338.9457 XXXY=            156.7134
 XXXZ=             -4.1221 YYYX=            -21.3529 YYYZ=             16.1694 ZZZX=             -0.0691
 ZZZY=              2.1234 XXYY=           -770.9633 XXZZ=           -567.8906 YYZZ=           -442.7610
 XXYZ=              0.4308 YYXZ=             -1.2423 ZZXY=              3.9541
 N-N= 3.006414166104D+02 E-N=-3.330565974689D+03  KE= 1.132874499474D+03
                          Isotropic Fermi Contact Couplings
        Atom                 a.u.       MegaHertz       Gauss      10(-4) cm-1
     1  Na(23)             0.16581     196.15229      69.99201      65.42936
     2  Na(23)            -0.03248     -38.42277     -13.71020     -12.81646
     3  Na(23)             0.13039     154.24926      55.03997      51.45201
     4  Na(23)             0.24709     292.30996     104.30346      97.50411
     5  Na(23)             0.14063     166.37361      59.36624      55.49626
     6  Na(23)             0.02581      30.53322      10.89501      10.18479
     7  Na(23)             0.00947      11.20889       3.99961       3.73888
 --------------------------------------------------------
       Center         ----  Spin Dipole Couplings  ----
                      3XX-RR        3YY-RR        3ZZ-RR
 --------------------------------------------------------
     1   Atom       -0.009164      0.015691     -0.006527
     2   Atom        0.041747     -0.016116     -0.025631
     3   Atom       -0.000992      0.000220      0.000771
     4   Atom       -0.006985      0.008237     -0.001252
     5   Atom        0.010713     -0.007155     -0.003558
     6   Atom        0.028640     -0.007411     -0.021229
     7   Atom       -0.008285      0.005341      0.002944
 --------------------------------------------------------
                        XY            XZ            YZ
 --------------------------------------------------------
     1   Atom       -0.001320     -0.000084     -0.005211
     2   Atom        0.032021     -0.014322     -0.007020
     3   Atom       -0.000222     -0.002888     -0.001073
     4   Atom       -0.008153     -0.000115      0.004121
     5   Atom        0.001034      0.000746      0.000356
     6   Atom        0.029151      0.010040      0.005381
     7   Atom        0.009306     -0.001742      0.001193
 --------------------------------------------------------


 ---------------------------------------------------------------------------------
              Anisotropic Spin Dipole Couplings in Principal Axis System
 ---------------------------------------------------------------------------------

       Atom             a.u.   MegaHertz   Gauss  10(-4) cm-1        Axes

              Baa    -0.0093    -1.315    -0.469    -0.439  0.9739  0.0944  0.2064
     1 Na(23) Bbb    -0.0076    -1.074    -0.383    -0.358 -0.2217  0.2009  0.9542
              Bcc     0.0169     2.389     0.852     0.797 -0.0487  0.9750 -0.2166
 
              Baa    -0.0305    -4.311    -1.538    -1.438 -0.3381  0.8942  0.2934
     2 Na(23) Bbb    -0.0284    -4.017    -1.434    -1.340  0.2829 -0.2008  0.9379
              Bcc     0.0590     8.328     2.972     2.778  0.8976  0.4001 -0.1851
 
              Baa    -0.0033    -0.469    -0.167    -0.157  0.7659  0.2298  0.6005
     3 Na(23) Bbb     0.0002     0.031     0.011     0.010 -0.3359  0.9394  0.0689
              Bcc     0.0031     0.438     0.156     0.146 -0.5483 -0.2545  0.7966
 
              Baa    -0.0108    -1.524    -0.544    -0.508  0.8919  0.4190 -0.1703
     4 Na(23) Bbb    -0.0020    -0.287    -0.102    -0.096  0.2624 -0.1727  0.9494
              Bcc     0.0128     1.811     0.646     0.604 -0.3684  0.8914  0.2640
 
              Baa    -0.0072    -1.023    -0.365    -0.341 -0.0538  0.9949 -0.0853
     5 Na(23) Bbb    -0.0036    -0.504    -0.180    -0.168 -0.0579  0.0821  0.9949
              Bcc     0.0108     1.527     0.545     0.509  0.9969  0.0584  0.0532
 
              Baa    -0.0237    -3.349    -1.195    -1.117 -0.5073  0.8078  0.3001
     6 Na(23) Bbb    -0.0231    -3.259    -1.163    -1.087  0.0106 -0.3423  0.9395
              Bcc     0.0468     6.608     2.358     2.204  0.8617  0.4798  0.1651
 
              Baa    -0.0133    -1.875    -0.669    -0.625  0.8838 -0.4500  0.1280
     7 Na(23) Bbb     0.0032     0.452     0.161     0.151 -0.1322  0.0223  0.9910
              Bcc     0.0101     1.422     0.508     0.474  0.4488  0.8928  0.0397
 

 ---------------------------------------------------------------------------------

 No NMR shielding tensors so no spin-rotation constants.
 Leave Link  601 at Wed Nov 29 15:39:54 2023, MaxMem=  1879048192 cpu:               2.2 elap:               0.2
 (Enter /home/sekinelabo/g16/l701.exe)
 ... and contract with generalized density number  0.
 Compute integral first derivatives.
 Leave Link  701 at Wed Nov 29 15:39:54 2023, MaxMem=  1879048192 cpu:               1.5 elap:               0.1
 (Enter /home/sekinelabo/g16/l702.exe)
 L702 exits ... SP integral derivatives will be done elsewhere.
 Leave Link  702 at Wed Nov 29 15:39:55 2023, MaxMem=  1879048192 cpu:               0.5 elap:               0.0
 (Enter /home/sekinelabo/g16/l703.exe)
 Integral derivatives from FoFJK, PRISM(SPDF).
 Compute integral first derivatives, UseDBF=F ICtDFT=           0.
 Calling FoFJK, ICntrl=      2127 FMM=F ISym2X=0 I1Cent= 0 IOpClX= 1 NMat=1 NMatS=1 NMatT=0.
 FoFJK:  IHMeth= 1 ICntrl=    2127 DoSepK=F KAlg= 0 I1Cent=           0 FoldK=F
 IRaf=         0 NMat=       1 IRICut=       1 DoRegI=T DoRafI=F ISym2E= 0 IDoP0=0 IntGTp=1.
 FoFCou: FMM=F IPFlag=           0 FMFlag=      100000 FMFlg1=         800
         NFxFlg=           0 DoJE=F BraDBF=F KetDBF=F FulRan=T
         wScrn=  0.000000 ICntrl=      2127 IOpCl=  1 I1Cent=           0 NGrid=           0
         NMat0=    1 NMatS0=      1 NMatT0=    0 NMatD0=    1 NMtDS0=    0 NMtDT0=    0
 Symmetry not used in FoFCou.
 Leave Link  703 at Wed Nov 29 15:39:57 2023, MaxMem=  1879048192 cpu:              30.6 elap:               2.0
 (Enter /home/sekinelabo/g16/l716.exe)
 Dipole        = 3.09305085D-01 2.09334223D-01-4.63810460D-02
 ***** Axes restored to original set *****
 -------------------------------------------------------------------
 Center     Atomic                   Forces (Hartrees/Bohr)
 Number     Number              X              Y              Z
 -------------------------------------------------------------------
      1       11           0.001324408   -0.001537553    0.002055074
      2       11          -0.001728040   -0.001598124   -0.000465108
      3       11           0.000149130   -0.000801952    0.000935392
      4       11           0.000674300    0.000351036    0.000280534
      5       11           0.002967321    0.000247113    0.000749036
      6       11          -0.000851334    0.000748601   -0.001749382
      7       11          -0.002535785    0.002590879   -0.001805546
 -------------------------------------------------------------------
 Cartesian Forces:  Max     0.002967321 RMS     0.001487572
 Z-matrix is all fixed cartesians, so copy forces.
 Force constants in Cartesian coordinates: 
                1             2             3             4             5 
      1  0.423441D-01
      2  0.232575D-02  0.143202D-01
      3  0.380460D-03 -0.135986D-01  0.219828D-01
      4 -0.328172D-03 -0.247849D-03 -0.566374D-03  0.482709D-01
      5 -0.187010D-02  0.421966D-03 -0.154098D-02  0.434980D-02  0.556876D-01
      6  0.341223D-02  0.238072D-03  0.377585D-02  0.795650D-02 -0.171994D-01
      7  0.453542D-03  0.259515D-03 -0.217706D-03  0.418871D-02 -0.696808D-03
      8  0.238403D-02  0.133723D-02 -0.118666D-02  0.238549D-02  0.526370D-03
      9 -0.381802D-02 -0.515672D-03  0.318077D-02  0.340114D-03  0.893676D-03
     10 -0.109499D-04 -0.123459D-04 -0.190681D-04 -0.171834D-01 -0.560348D-02
     11  0.137826D-04  0.432182D-04  0.459419D-04  0.114015D-01 -0.191533D-01
     12  0.264170D-04 -0.767220D-05  0.175420D-04 -0.114676D-01  0.640516D-02
     13 -0.182317D-01 -0.633134D-02  0.411868D-02 -0.138938D-01  0.415780D-02
     14  0.250295D-02 -0.949432D-02  0.966802D-02 -0.125064D-01 -0.128733D-01
     15 -0.795554D-02  0.770944D-02 -0.170280D-01  0.210480D-02  0.927826D-02
     16 -0.174564D-01  0.354836D-02 -0.398096D-02  0.167669D-02 -0.942420D-03
     17 -0.543966D-02 -0.919183D-02  0.794454D-02 -0.366471D-02  0.278057D-02
     18  0.819402D-02  0.739086D-02 -0.152293D-01 -0.925180D-03  0.106245D-02
     19 -0.677038D-02  0.457906D-03  0.284962D-03 -0.227310D-01  0.605206D-03
     20  0.832484D-04  0.256350D-02 -0.133222D-02 -0.171788D-02 -0.273899D-01
     21 -0.239570D-03 -0.121639D-02  0.330036D-02  0.255772D-02  0.110087D-02
                6             7             8             9            10 
      6  0.340454D-01
      7  0.223800D-02  0.478964D-01
      8  0.370544D-02 -0.300959D-02  0.265757D-01
      9  0.268384D-02  0.402773D-02 -0.135701D-01  0.254654D-01
     10 -0.322184D-02  0.115208D-02  0.755762D-04 -0.504004D-03  0.386640D-01
     11  0.129438D-01 -0.434277D-02 -0.156034D-02  0.587005D-03 -0.581112D-03
     12 -0.912656D-02  0.302039D-02  0.309473D-02  0.166014D-02  0.122360D-01
     13 -0.927968D-02  0.438730D-02  0.924315D-03 -0.126510D-02 -0.985825D-03
     14  0.111485D-02  0.229029D-02  0.255023D-02  0.148243D-02  0.200466D-02
     15 -0.119436D-01 -0.270269D-02  0.148698D-02  0.290770D-02 -0.267741D-02
     16 -0.855572D-03 -0.236222D-01 -0.362101D-02  0.967978D-02 -0.220253D-03
     17  0.382342D-02  0.893364D-02 -0.603695D-02  0.398570D-02 -0.408912D-03
     18  0.195507D-02 -0.548731D-02  0.680455D-02 -0.964554D-02 -0.554905D-03
     19 -0.249653D-03 -0.344559D-01  0.861186D-03 -0.846050D-02 -0.214157D-01
     20 -0.462613D-02 -0.343427D-02 -0.233922D-01  0.713698D-02  0.452561D-02
     21 -0.213900D-01 -0.878410D-03 -0.334915D-03 -0.262523D-01 -0.525874D-02
               11            12            13            14            15 
     11  0.296046D-01
     12 -0.139454D-01  0.231409D-01
     13  0.195366D-02 -0.296144D-02  0.448268D-01
     14  0.734560D-02 -0.770354D-03  0.696762D-02  0.350786D-01
     15 -0.903314D-03  0.298235D-02  0.523489D-02 -0.207744D-01  0.434801D-01
     16 -0.105465D-02  0.370321D-02  0.677366D-02 -0.278536D-03  0.150691D-03
     17  0.570680D-03  0.113247D-02 -0.527999D-04 -0.707961D-03  0.351447D-02
     18 -0.734702D-03  0.496406D-02 -0.341857D-04  0.260467D-02 -0.167957D-02
     19 -0.739042D-02 -0.455695D-02 -0.228765D-01 -0.980609D-03  0.584527D-02
     20 -0.168505D-01  0.409109D-02 -0.761925D-02 -0.218988D-01 -0.311468D-03
     21  0.200672D-02 -0.236384D-01  0.418683D-02  0.667476D-02 -0.187190D-01
               16            17            18            19            20 
     16  0.548884D-01
     17 -0.117508D-02  0.338756D-01
     18 -0.511096D-02 -0.193158D-01  0.466566D-01
     19 -0.220399D-01  0.180752D-02  0.391851D-02  0.130289D+00
     20  0.352333D-02 -0.212901D-01  0.218797D-02  0.463921D-02  0.108258D+00
     21 -0.358619D-02 -0.108481D-02 -0.270213D-01  0.321836D-02 -0.714623D-02
               21 
     21  0.113721D+00
 Leave Link  716 at Wed Nov 29 15:39:57 2023, MaxMem=  1879048192 cpu:               0.4 elap:               0.0
 (Enter /home/sekinelabo/g16/l103.exe)

 GradGradGradGradGradGradGradGradGradGradGradGradGradGradGradGradGradGrad
 Berny optimization.
 Search for a local minimum.
 Step number   1 out of a maximum of    2
 All quantities printed in internal units (Hartrees-Bohrs-Radians)
 Second derivative matrix not updated -- first step.
 ITU=  0
     Eigenvalues ---    0.00659   0.01751   0.02291   0.02477   0.02951
     Eigenvalues ---    0.03268   0.04771   0.05559   0.07585   0.08111
     Eigenvalues ---    0.08556   0.09763   0.12559   0.15007   0.15952
 Angle between quadratic step and forces=  34.69 degrees.
 Linear search not attempted -- first point.
 B after Tr=    -0.000000    0.000000    0.000000
         Rot=    1.000000    0.000000   -0.000000    0.000000 Ang=   0.00 deg.
 Variable       Old X    -DE/DX   Delta X   Delta X   Delta X     New X
                                 (Linear)    (Quad)   (Total)
    X1       21.61318   0.00132   0.00000   0.06258   0.06258  21.67576
    Y1       28.62463  -0.00154   0.00000  -0.02365  -0.02365  28.60098
    Z1       28.40050   0.00206   0.00000   0.06165   0.06165  28.46215
    X2       32.17977  -0.00173   0.00000  -0.02975  -0.02975  32.15002
    Y2       34.14244  -0.00160   0.00000  -0.02266  -0.02266  34.11978
    Z2       26.38587  -0.00047   0.00000  -0.02110  -0.02110  26.36477
    X3       32.03142   0.00015   0.00000  -0.03253  -0.03253  31.99890
    Y3       24.07908  -0.00080   0.00000  -0.00050  -0.00050  24.07858
    Z3       32.66297   0.00094   0.00000  -0.00446  -0.00446  32.65851
    X4       36.09547   0.00067   0.00000  -0.01779  -0.01779  36.07768
    Y4       30.56065   0.00035   0.00000   0.02347   0.02347  30.58412
    Z4       29.65906   0.00028   0.00000   0.00440   0.00440  29.66346
    X5       25.49448   0.00297   0.00000   0.07083   0.07083  25.56532
    Y5       32.16125   0.00025   0.00000  -0.01310  -0.01310  32.14814
    Z5       24.66017   0.00075   0.00000   0.02907   0.02907  24.68924
    X6       25.59464  -0.00085   0.00000  -0.02868  -0.02868  25.56596
    Y6       25.20838   0.00075   0.00000   0.00963   0.00963  25.21801
    Z6       32.60420  -0.00175   0.00000  -0.04172  -0.04172  32.56248
    X7       29.99581  -0.00254   0.00000  -0.02466  -0.02466  29.97115
    Y7       28.22816   0.00259   0.00000   0.02681   0.02681  28.25497
    Z7       28.63200  -0.00181   0.00000  -0.02784  -0.02784  28.60416
         Item               Value     Threshold  Converged?
 Maximum Force            0.002967     0.000450     NO 
 RMS     Force            0.001488     0.000300     NO 
 Maximum Displacement     0.070832     0.001800     NO 
 RMS     Displacement     0.033005     0.001200     NO 
 Predicted change in Energy=-4.238988D-04
 GradGradGradGradGradGradGradGradGradGradGradGradGradGradGradGradGradGrad

 Leave Link  103 at Wed Nov 29 15:39:57 2023, MaxMem=  1879048192 cpu:               0.2 elap:               0.0
 (Enter /home/sekinelabo/g16/l9999.exe)
 1\1\GINC-SEKINELABO-XA7R-R37\Force\UB3LYP\6-311+G(d)\Na7(2)\SEKINELABO
 \29-Nov-2023\0\\#P B3LYP/6-311+g(d) force\\DPGEN\\0,2\Na,11.4372,15.14
 75,15.0289\Na,17.0288,18.0674,13.9628\Na,16.9503,12.7421,17.2845\Na,19
 .1009,16.172,15.6949\Na,13.4911,17.019,13.0496\Na,13.5441,13.3397,17.2
 534\Na,15.8731,14.9377,15.1514\\Version=ES64L-G16RevB.01\State=2-A\HF=
 -1136.1278301\S2=0.785703\S2-1=0.\S2A=0.750632\RMSD=4.267e-09\RMSF=1.4
 88e-03\Dipole=0.3228052,-0.0713368,0.1798597\Quadrupole=-0.8659104,1.2
 41766,-0.3758556,-2.5339149,2.8021853,-5.1204262\PG=C01 [X(Na7)]\\@


      HUMANKIND PERIODICALLY GOES THROUGH A SPEEDUP OF ITS AFFAIRS, 
      THEREBY EXPERIENCING THE RACE BETWEEN THE RENEWABLE VITALITY
      OF THE LIVING, AND THE BECKONING VITIATION OF DECADENCE.
      IN THIS PERIODIC RACE, ANY PAUSE BECOMES A LUXURY.
      ONLY THEN CAN ONE REFLECT THAT ALL IS PERMITTED;
      ALL IS POSSIBLE.

                              -- THE APOCRYPHA OF MUAD'DIB
                                 CHILDREN OF DUNE, BY FRANK HERBERT
 Job cpu time:       0 days  0 hours  4 minutes  6.5 seconds.
 Elapsed time:       0 days  0 hours  0 minutes 21.0 seconds.
 File lengths (MBytes):  RWF=     32 Int=      0 D2E=      0 Chk=      4 Scr=      1
 Normal termination of Gaussian 16 at Wed Nov 29 15:39:57 2023.
