ITEM: TIMESTEP
3930
ITEM: NUMBER OF ATOMS
7
ITEM: BOX BOUNDS xy xz yz ff ff ff
0.0000000000000000e+00 2.5399129207900000e+01 0.0000000000000000e+00
0.0000000000000000e+00 2.5399129207900000e+01 0.0000000000000000e+00
0.0000000000000000e+00 2.5399129207900000e+01 0.0000000000000000e+00
ITEM: ATOMS id type x y z fx fy fz
7 1 16.0848 11.4011 13.3345 -0.142578 0.0852128 0.0656163
4 1 9.06794 11.1758 9.01018 0.024524 0.00210904 0.0265635
6 1 12.6145 11.6621 15.2552 0.0560307 0.126419 -0.180608
3 1 11.1859 11.5874 11.3613 0.0159669 0.0375381 0.060741
2 1 14.1367 13.7209 11.678 -0.0414535 -0.0884382 -0.180609
1 1 11.2642 14.6762 13.6451 0.0146039 -0.126984 0.0113095
5 1 14.543 14.6734 14.6126 0.0729057 -0.0358558 0.196987
