 Set GAUSS_MDEF to "14GB".
 Entering Gaussian System, Link 0=g16
 Initial command:
 /home/sekinelabo/g16/l1.exe "/home/sekinelabo/g16temp/Gau-462619.inp" -scrdir="/home/sekinelabo/g16temp/"
 Entering Link 1 = /home/sekinelabo/g16/l1.exe PID=    462621.
  
 Copyright (c) 1988-2017, Gaussian, Inc.  All Rights Reserved.
  
 This is part of the Gaussian(R) 16 program.  It is based on
 the Gaussian(R) 09 system (copyright 2009, Gaussian, Inc.),
 the Gaussian(R) 03 system (copyright 2003, Gaussian, Inc.),
 the Gaussian(R) 98 system (copyright 1998, Gaussian, Inc.),
 the Gaussian(R) 94 system (copyright 1995, Gaussian, Inc.),
 the Gaussian 92(TM) system (copyright 1992, Gaussian, Inc.),
 the Gaussian 90(TM) system (copyright 1990, Gaussian, Inc.),
 the Gaussian 88(TM) system (copyright 1988, Gaussian, Inc.),
 the Gaussian 86(TM) system (copyright 1986, Carnegie Mellon
 University), and the Gaussian 82(TM) system (copyright 1983,
 Carnegie Mellon University). Gaussian is a federally registered
 trademark of Gaussian, Inc.
  
 This software contains proprietary and confidential information,
 including trade secrets, belonging to Gaussian, Inc.
  
 This software is provided under written license and may be
 used, copied, transmitted, or stored only in accord with that
 written license.
  
 The following legend is applicable only to US Government
 contracts under FAR:
  
                    RESTRICTED RIGHTS LEGEND
  
 Use, reproduction and disclosure by the US Government is
 subject to restrictions as set forth in subparagraphs (a)
 and (c) of the Commercial Computer Software - Restricted
 Rights clause in FAR 52.227-19.
  
 Gaussian, Inc.
 340 Quinnipiac St., Bldg. 40, Wallingford CT 06492
  
  
 ---------------------------------------------------------------
 Warning -- This program may not be used in any manner that
 competes with the business of Gaussian, Inc. or will provide
 assistance to any competitor of Gaussian, Inc.  The licensee
 of this program is prohibited from giving any competitor of
 Gaussian, Inc. access to this program.  By using this program,
 the user acknowledges that Gaussian, Inc. is engaged in the
 business of creating and licensing software in the field of
 computational chemistry and represents and warrants to the
 licensee that it is not a competitor of Gaussian, Inc. and that
 it will not use this program in any manner prohibited above.
 ---------------------------------------------------------------
  

 Cite this work as:
 Gaussian 16, Revision B.01,
 M. J. Frisch, G. W. Trucks, H. B. Schlegel, G. E. Scuseria, 
 M. A. Robb, J. R. Cheeseman, G. Scalmani, V. Barone, 
 G. A. Petersson, H. Nakatsuji, X. Li, M. Caricato, A. V. Marenich, 
 J. Bloino, B. G. Janesko, R. Gomperts, B. Mennucci, H. P. Hratchian, 
 J. V. Ortiz, A. F. Izmaylov, J. L. Sonnenberg, D. Williams-Young, 
 F. Ding, F. Lipparini, F. Egidi, J. Goings, B. Peng, A. Petrone, 
 T. Henderson, D. Ranasinghe, V. G. Zakrzewski, J. Gao, N. Rega, 
 G. Zheng, W. Liang, M. Hada, M. Ehara, K. Toyota, R. Fukuda, 
 J. Hasegawa, M. Ishida, T. Nakajima, Y. Honda, O. Kitao, H. Nakai, 
 T. Vreven, K. Throssell, J. A. Montgomery, Jr., J. E. Peralta, 
 F. Ogliaro, M. J. Bearpark, J. J. Heyd, E. N. Brothers, K. N. Kudin, 
 V. N. Staroverov, T. A. Keith, R. Kobayashi, J. Normand, 
 K. Raghavachari, A. P. Rendell, J. C. Burant, S. S. Iyengar, 
 J. Tomasi, M. Cossi, J. M. Millam, M. Klene, C. Adamo, R. Cammi, 
 J. W. Ochterski, R. L. Martin, K. Morokuma, O. Farkas, 
 J. B. Foresman, and D. J. Fox, Gaussian, Inc., Wallingford CT, 2016.
 
 ******************************************
 Gaussian 16:  ES64L-G16RevB.01 20-Dec-2017
                 7-Dec-2023 
 ******************************************
 %nproc=15
 Will use up to   15 processors via shared memory.
 -------------------------
 #P B3LYP/6-311+g(d) force
 -------------------------
 1/10=7,30=1,38=1/1,3;
 2/12=2,17=6,18=5,40=1/2;
 3/5=4,6=6,7=11,11=2,25=1,30=1,71=1,74=-5/1,2,3;
 4//1;
 5/5=2,38=5/2;
 6/7=2,8=2,9=2,10=2,28=1/1;
 7/29=1/1,2,3,16;
 1/10=7,30=1/3;
 99//99;
 Leave Link    1 at Thu Dec  7 01:49:44 2023, MaxMem=           0 cpu:               0.3 elap:               0.0
 (Enter /home/sekinelabo/g16/l101.exe)
 -----
 DPGEN
 -----
 Symbolic Z-matrix:
 Charge =  0 Multiplicity = 2
 Na                    12.0411   12.9941   13.9378 
 Na                    13.887    14.6613   11.7099 
 Na                    9.69395   13.9728   11.0647 
 Na                    9.79071   10.6533   12.3816 
 Na                    12.9303   9.75401   13.0302 
 Na                    14.9235   12.0254   13.0941 
 Na                    12.4442   11.6498   10.4924 
 
 ITRead=  0  0  0  0  0  0  0
 MicOpt= -1 -1 -1 -1 -1 -1 -1
 NAtoms=      7 NQM=        7 NQMF=       0 NMMI=      0 NMMIF=      0
                NMic=       0 NMicF=      0.
                    Isotopes and Nuclear Properties:
 (Nuclear quadrupole moments (NQMom) in fm**2, nuclear magnetic moments (NMagM)
  in nuclear magnetons)

  Atom         1           2           3           4           5           6           7
 IAtWgt=          23          23          23          23          23          23          23
 AtmWgt=  22.9897697  22.9897697  22.9897697  22.9897697  22.9897697  22.9897697  22.9897697
 NucSpn=           3           3           3           3           3           3           3
 AtZEff=  -0.0000000  -0.0000000  -0.0000000  -0.0000000  -0.0000000  -0.0000000  -0.0000000
 NQMom=   10.4000000  10.4000000  10.4000000  10.4000000  10.4000000  10.4000000  10.4000000
 NMagM=    2.2175200   2.2175200   2.2175200   2.2175200   2.2175200   2.2175200   2.2175200
 AtZNuc=  11.0000000  11.0000000  11.0000000  11.0000000  11.0000000  11.0000000  11.0000000
 Leave Link  101 at Thu Dec  7 01:49:44 2023, MaxMem=  1879048192 cpu:               2.5 elap:               0.2
 (Enter /home/sekinelabo/g16/l103.exe)

 GradGradGradGradGradGradGradGradGradGradGradGradGradGradGradGradGradGrad
 Berny optimization.
 Initialization pass.
 Trust Radius=3.00D-01 FncErr=1.00D-07 GrdErr=1.00D-07 EigMax=2.50D+02 EigMin=1.00D-04
 Number of steps in this run=      2 maximum allowed number of steps=      2.
 GradGradGradGradGradGradGradGradGradGradGradGradGradGradGradGradGradGrad

 Leave Link  103 at Thu Dec  7 01:49:44 2023, MaxMem=  1879048192 cpu:               0.2 elap:               0.0
 (Enter /home/sekinelabo/g16/l202.exe)
                          Input orientation:                          
 ---------------------------------------------------------------------
 Center     Atomic      Atomic             Coordinates (Angstroms)
 Number     Number       Type             X           Y           Z
 ---------------------------------------------------------------------
      1         11           0       12.041100   12.994100   13.937800
      2         11           0       13.887000   14.661300   11.709900
      3         11           0        9.693950   13.972800   11.064700
      4         11           0        9.790710   10.653300   12.381600
      5         11           0       12.930300    9.754010   13.030200
      6         11           0       14.923500   12.025400   13.094100
      7         11           0       12.444200   11.649800   10.492400
 ---------------------------------------------------------------------
                    Distance matrix (angstroms):
                    1          2          3          4          5
     1  Na   0.000000
     2  Na   3.339228   0.000000
     3  Na   3.836883   4.297905   0.000000
     4  Na   3.600744   5.770168   3.572488   0.000000
     5  Na   3.480316   5.171070   5.668804   3.329629   0.000000
     6  Na   3.155699   3.152509   5.937931   5.360583   3.022605
     7  Na   3.720271   3.554309   3.645234   3.406332   3.204800
                    6          7
     6  Na   0.000000
     7  Na   3.613426   0.000000
 Stoichiometry    Na7(2)
 Framework group  C1[X(Na7)]
 Deg. of freedom    15
 Full point group                 C1      NOp   1
 Largest Abelian subgroup         C1      NOp   1
 Largest concise Abelian subgroup C1      NOp   1
                         Standard orientation:                         
 ---------------------------------------------------------------------
 Center     Atomic      Atomic             Coordinates (Angstroms)
 Number     Number       Type             X           Y           Z
 ---------------------------------------------------------------------
      1         11           0       -0.232293    0.230183   -1.834150
      2         11           0       -1.463814    2.577583    0.196493
      3         11           0        2.759059    1.808569   -0.022471
      4         11           0        2.345809   -1.731794   -0.262720
      5         11           0       -0.852689   -2.557084    0.155536
      6         11           0       -2.805930   -0.261962   -0.075564
      7         11           0        0.249858   -0.065495    1.842876
 ---------------------------------------------------------------------
 Rotational constants (GHZ):           0.8302631           0.7120384           0.5047335
 Leave Link  202 at Thu Dec  7 01:49:44 2023, MaxMem=  1879048192 cpu:               0.0 elap:               0.0
 (Enter /home/sekinelabo/g16/l301.exe)
 Standard basis: 6-311+G(d) (5D, 7F)
 Ernie: Thresh=  0.10000D-02 Tol=  0.10000D-05 Strict=F.
 There are   217 symmetry adapted cartesian basis functions of A   symmetry.
 There are   210 symmetry adapted basis functions of A   symmetry.
   210 basis functions,   350 primitive gaussians,   217 cartesian basis functions
    39 alpha electrons       38 beta electrons
       nuclear repulsion energy       352.6720490670 Hartrees.
 IExCor=  402 DFT=T Ex+Corr=B3LYP ExCW=0 ScaHFX=  0.200000
 ScaDFX=  0.800000  0.720000  1.000000  0.810000 ScalE2=  1.000000  1.000000
 IRadAn=      5 IRanWt=     -1 IRanGd=            0 ICorTp=0 IEmpDi=  4
 NAtoms=    7 NActive=    7 NUniq=    7 SFac= 1.00D+00 NAtFMM=   60 NAOKFM=F Big=F
 Integral buffers will be    131072 words long.
 Raffenetti 2 integral format.
 Two-electron integral symmetry is turned on.
 Leave Link  301 at Thu Dec  7 01:49:44 2023, MaxMem=  1879048192 cpu:               0.5 elap:               0.0
 (Enter /home/sekinelabo/g16/l302.exe)
 NPDir=0 NMtPBC=     1 NCelOv=     1 NCel=       1 NClECP=     1 NCelD=      1
         NCelK=      1 NCelE2=     1 NClLst=     1 CellRange=     0.0.
 One-electron integrals computed using PRISM.
 One-electron integral symmetry used in STVInt
 NBasis=   210 RedAO= T EigKep=  3.37D-06  NBF=   210
 NBsUse=   210 1.00D-06 EigRej= -1.00D+00 NBFU=   210
 Precomputing XC quadrature grid using
 IXCGrd= 4 IRadAn=           5 IRanWt=          -1 IRanGd=           0 AccXCQ= 0.00D+00.
 Generated NRdTot=       0 NPtTot=           0 NUsed=           0 NTot=          32
 NSgBfM=   211   211   211   211   211 MxSgAt=     7 MxSgA2=     7.
 Leave Link  302 at Thu Dec  7 01:49:44 2023, MaxMem=  1879048192 cpu:               2.0 elap:               0.1
 (Enter /home/sekinelabo/g16/l303.exe)
 DipDrv:  MaxL=1.
 Leave Link  303 at Thu Dec  7 01:49:44 2023, MaxMem=  1879048192 cpu:               0.5 elap:               0.0
 (Enter /home/sekinelabo/g16/l401.exe)
 ExpMin= 7.60D-03 ExpMax= 3.62D+04 ExpMxC= 1.21D+03 IAcc=3 IRadAn=         5 AccDes= 0.00D+00
 Harris functional with IExCor=  402 and IRadAn=       5 diagonalized for initial guess.
 HarFok:  IExCor=  402 AccDes= 0.00D+00 IRadAn=         5 IDoV= 1 UseB2=F ITyADJ=14
 ICtDFT=  3500011 ScaDFX=  1.000000  1.000000  1.000000  1.000000
 FoFCou: FMM=F IPFlag=           0 FMFlag=      100000 FMFlg1=           0
         NFxFlg=           0 DoJE=T BraDBF=F KetDBF=T FulRan=T
         wScrn=  0.000000 ICntrl=       500 IOpCl=  0 I1Cent=   200000004 NGrid=           0
         NMat0=    1 NMatS0=      1 NMatT0=    0 NMatD0=    1 NMtDS0=    0 NMtDT0=    0
 Petite list used in FoFCou.
 Harris En= -1135.90489012898    
 JPrj=0 DoOrth=F DoCkMO=F.
 Initial guess <Sx>= 0.0000 <Sy>= 0.0000 <Sz>= 0.5000 <S**2>= 0.7500 S= 0.5000
 Leave Link  401 at Thu Dec  7 01:49:45 2023, MaxMem=  1879048192 cpu:               4.4 elap:               0.3
 (Enter /home/sekinelabo/g16/l502.exe)
 Keep R1 and R2 ints in memory in canonical form, NReq=506573335.
 FoFCou: FMM=F IPFlag=           0 FMFlag=           0 FMFlg1=           0
         NFxFlg=           0 DoJE=F BraDBF=F KetDBF=F FulRan=T
         wScrn=  0.000000 ICntrl=       600 IOpCl=  0 I1Cent=           0 NGrid=           0
         NMat0=    1 NMatS0=  22155 NMatT0=    0 NMatD0=    1 NMtDS0=    0 NMtDT0=    0
 Symmetry not used in FoFCou.
 Two-electron integral symmetry not used.
 UHF open shell SCF:
 Using DIIS extrapolation, IDIIS=  1040.
 NGot=  1879048192 LenX=  1388082565 LenY=  1388035035
 Requested convergence on RMS density matrix=1.00D-08 within 128 cycles.
 Requested convergence on MAX density matrix=1.00D-06.
 Requested convergence on             energy=1.00D-06.
 No special actions if energy rises.

 Cycle   1  Pass 1  IDiag  1:
 E= -1136.09485221129    
 DIIS: error= 1.27D-02 at cycle   1 NSaved=   1.
 NSaved= 1 IEnMin= 1 EnMin= -1136.09485221129     IErMin= 1 ErrMin= 1.27D-02
 ErrMax= 1.27D-02  0.00D+00 EMaxC= 1.00D-01 BMatC= 1.96D-01 BMatP= 1.96D-01
 IDIUse=3 WtCom= 8.73D-01 WtEn= 1.27D-01
 Coeff-Com:  0.100D+01
 Coeff-En:   0.100D+01
 Coeff:      0.100D+01
 Gap=     0.038 Goal=   None    Shift=    0.000
 Gap=     0.054 Goal=   None    Shift=    0.000
 GapD=    0.038 DampG=0.250 DampE=0.500 DampFc=0.2500 IDamp=-1.
 Damping current iteration by 2.50D-01
 RMSDP=3.36D-02 MaxDP=2.56D+00              OVMax= 2.49D-01

 Cycle   2  Pass 1  IDiag  1:
 E= -1136.10878791415     Delta-E=       -0.013935702861 Rises=F Damp=T
 DIIS: error= 8.22D-03 at cycle   2 NSaved=   2.
 NSaved= 2 IEnMin= 2 EnMin= -1136.10878791415     IErMin= 2 ErrMin= 8.22D-03
 ErrMax= 8.22D-03  0.00D+00 EMaxC= 1.00D-01 BMatC= 7.42D-02 BMatP= 1.96D-01
 IDIUse=3 WtCom= 9.18D-01 WtEn= 8.22D-02
 Coeff-Com: -0.126D+01 0.226D+01
 Coeff-En:   0.000D+00 0.100D+01
 Coeff:     -0.115D+01 0.215D+01
 Gap=     0.056 Goal=   None    Shift=    0.000
 Gap=     0.053 Goal=   None    Shift=    0.000
 RMSDP=1.81D-02 MaxDP=1.49D+00 DE=-1.39D-02 OVMax= 1.99D-01

 Cycle   3  Pass 1  IDiag  1:
 E= -1136.12938011616     Delta-E=       -0.020592202012 Rises=F Damp=F
 DIIS: error= 3.65D-03 at cycle   3 NSaved=   3.
 NSaved= 3 IEnMin= 3 EnMin= -1136.12938011616     IErMin= 3 ErrMin= 3.65D-03
 ErrMax= 3.65D-03  0.00D+00 EMaxC= 1.00D-01 BMatC= 5.12D-03 BMatP= 7.42D-02
 IDIUse=3 WtCom= 9.64D-01 WtEn= 3.65D-02
 Coeff-Com: -0.320D+00 0.570D+00 0.750D+00
 Coeff-En:   0.000D+00 0.000D+00 0.100D+01
 Coeff:     -0.309D+00 0.549D+00 0.760D+00
 Gap=     0.049 Goal=   None    Shift=    0.000
 Gap=     0.054 Goal=   None    Shift=    0.000
 RMSDP=8.12D-03 MaxDP=1.07D+00 DE=-2.06D-02 OVMax= 1.45D-01

 Cycle   4  Pass 1  IDiag  1:
 E= -1136.12551701278     Delta-E=        0.003863103380 Rises=F Damp=F
 DIIS: error= 5.52D-03 at cycle   4 NSaved=   4.
 NSaved= 4 IEnMin= 3 EnMin= -1136.12938011616     IErMin= 3 ErrMin= 3.65D-03
 ErrMax= 5.52D-03  0.00D+00 EMaxC= 1.00D-01 BMatC= 7.77D-03 BMatP= 5.12D-03
 IDIUse=3 WtCom= 1.19D-01 WtEn= 8.81D-01
 Coeff-Com: -0.974D-02 0.201D-01 0.550D+00 0.440D+00
 Coeff-En:   0.000D+00 0.000D+00 0.603D+00 0.397D+00
 Coeff:     -0.116D-02 0.238D-02 0.597D+00 0.402D+00
 Gap=     0.051 Goal=   None    Shift=    0.000
 Gap=     0.053 Goal=   None    Shift=    0.000
 RMSDP=1.90D-03 MaxDP=1.16D-01 DE= 3.86D-03 OVMax= 8.75D-02

 Cycle   5  Pass 1  IDiag  1:
 E= -1136.13444349964     Delta-E=       -0.008926486863 Rises=F Damp=F
 DIIS: error= 1.07D-03 at cycle   5 NSaved=   5.
 NSaved= 5 IEnMin= 5 EnMin= -1136.13444349964     IErMin= 5 ErrMin= 1.07D-03
 ErrMax= 1.07D-03  0.00D+00 EMaxC= 1.00D-01 BMatC= 2.80D-04 BMatP= 5.12D-03
 IDIUse=3 WtCom= 9.89D-01 WtEn= 1.07D-02
 Coeff-Com:  0.725D-03-0.162D-02 0.308D+00 0.200D+00 0.493D+00
 Coeff-En:   0.000D+00 0.000D+00 0.000D+00 0.000D+00 0.100D+01
 Coeff:      0.717D-03-0.160D-02 0.305D+00 0.198D+00 0.498D+00
 Gap=     0.052 Goal=   None    Shift=    0.000
 Gap=     0.052 Goal=   None    Shift=    0.000
 RMSDP=9.49D-04 MaxDP=8.45D-02 DE=-8.93D-03 OVMax= 1.19D-02

 Cycle   6  Pass 1  IDiag  1:
 E= -1136.13463667245     Delta-E=       -0.000193172807 Rises=F Damp=F
 DIIS: error= 1.65D-04 at cycle   6 NSaved=   6.
 NSaved= 6 IEnMin= 6 EnMin= -1136.13463667245     IErMin= 6 ErrMin= 1.65D-04
 ErrMax= 1.65D-04  0.00D+00 EMaxC= 1.00D-01 BMatC= 9.77D-06 BMatP= 2.80D-04
 IDIUse=3 WtCom= 9.98D-01 WtEn= 1.65D-03
 Coeff-Com: -0.238D-02 0.274D-02 0.512D-01 0.198D-01 0.182D+00 0.746D+00
 Coeff-En:   0.000D+00 0.000D+00 0.000D+00 0.000D+00 0.000D+00 0.100D+01
 Coeff:     -0.238D-02 0.274D-02 0.511D-01 0.198D-01 0.182D+00 0.747D+00
 Gap=     0.052 Goal=   None    Shift=    0.000
 Gap=     0.052 Goal=   None    Shift=    0.000
 RMSDP=3.44D-04 MaxDP=4.10D-02 DE=-1.93D-04 OVMax= 5.52D-03

 Cycle   7  Pass 1  IDiag  1:
 E= -1136.13463968802     Delta-E=       -0.000003015572 Rises=F Damp=F
 DIIS: error= 1.87D-04 at cycle   7 NSaved=   7.
 NSaved= 7 IEnMin= 7 EnMin= -1136.13463968802     IErMin= 6 ErrMin= 1.65D-04
 ErrMax= 1.87D-04  0.00D+00 EMaxC= 1.00D-01 BMatC= 7.90D-06 BMatP= 9.77D-06
 IDIUse=3 WtCom= 9.98D-01 WtEn= 1.65D-03
 Coeff-Com: -0.197D-02 0.241D-02-0.156D-01-0.207D-01 0.496D-01 0.549D+00
 Coeff-Com:  0.438D+00
 Coeff-En:   0.000D+00 0.000D+00 0.000D+00 0.000D+00 0.000D+00 0.438D+00
 Coeff-En:   0.562D+00
 Coeff:     -0.197D-02 0.241D-02-0.156D-01-0.207D-01 0.495D-01 0.548D+00
 Coeff:      0.438D+00
 Gap=     0.052 Goal=   None    Shift=    0.000
 Gap=     0.052 Goal=   None    Shift=    0.000
 RMSDP=1.52D-04 MaxDP=2.11D-02 DE=-3.02D-06 OVMax= 3.09D-03

 Cycle   8  Pass 1  IDiag  1:
 E= -1136.13464953825     Delta-E=       -0.000009850222 Rises=F Damp=F
 DIIS: error= 1.04D-05 at cycle   8 NSaved=   8.
 NSaved= 8 IEnMin= 8 EnMin= -1136.13464953825     IErMin= 8 ErrMin= 1.04D-05
 ErrMax= 1.04D-05  0.00D+00 EMaxC= 1.00D-01 BMatC= 5.30D-08 BMatP= 7.90D-06
 IDIUse=1 WtCom= 1.00D+00 WtEn= 0.00D+00
 Coeff-Com:  0.363D-03-0.504D-03-0.430D-02-0.184D-02-0.109D-01-0.377D-01
 Coeff-Com:  0.110D-01 0.104D+01
 Coeff:      0.363D-03-0.504D-03-0.430D-02-0.184D-02-0.109D-01-0.377D-01
 Coeff:      0.110D-01 0.104D+01
 Gap=     0.052 Goal=   None    Shift=    0.000
 Gap=     0.052 Goal=   None    Shift=    0.000
 RMSDP=7.25D-05 MaxDP=9.45D-03 DE=-9.85D-06 OVMax= 5.61D-04

 Cycle   9  Pass 1  IDiag  1:
 E= -1136.13464971983     Delta-E=       -0.000000181585 Rises=F Damp=F
 DIIS: error= 5.86D-06 at cycle   9 NSaved=   9.
 NSaved= 9 IEnMin= 9 EnMin= -1136.13464971983     IErMin= 9 ErrMin= 5.86D-06
 ErrMax= 5.86D-06  0.00D+00 EMaxC= 1.00D-01 BMatC= 1.17D-08 BMatP= 5.30D-08
 IDIUse=1 WtCom= 1.00D+00 WtEn= 0.00D+00
 Coeff-Com:  0.241D-03-0.309D-03 0.902D-04 0.168D-02-0.764D-02-0.601D-01
 Coeff-Com: -0.420D-01 0.192D+00 0.916D+00
 Coeff:      0.241D-03-0.309D-03 0.902D-04 0.168D-02-0.764D-02-0.601D-01
 Coeff:     -0.420D-01 0.192D+00 0.916D+00
 Gap=     0.052 Goal=   None    Shift=    0.000
 Gap=     0.052 Goal=   None    Shift=    0.000
 RMSDP=2.86D-05 MaxDP=3.89D-03 DE=-1.82D-07 OVMax= 3.44D-04

 Cycle  10  Pass 1  IDiag  1:
 E= -1136.13464976818     Delta-E=       -0.000000048347 Rises=F Damp=F
 DIIS: error= 3.45D-06 at cycle  10 NSaved=  10.
 NSaved=10 IEnMin=10 EnMin= -1136.13464976818     IErMin=10 ErrMin= 3.45D-06
 ErrMax= 3.45D-06  0.00D+00 EMaxC= 1.00D-01 BMatC= 3.10D-09 BMatP= 1.17D-08
 IDIUse=1 WtCom= 1.00D+00 WtEn= 0.00D+00
 Coeff-Com:  0.372D-04-0.413D-04 0.539D-03 0.771D-03-0.158D-02-0.156D-01
 Coeff-Com: -0.132D-01-0.491D-01 0.189D+00 0.889D+00
 Coeff:      0.372D-04-0.413D-04 0.539D-03 0.771D-03-0.158D-02-0.156D-01
 Coeff:     -0.132D-01-0.491D-01 0.189D+00 0.889D+00
 Gap=     0.052 Goal=   None    Shift=    0.000
 Gap=     0.052 Goal=   None    Shift=    0.000
 RMSDP=8.60D-06 MaxDP=1.10D-03 DE=-4.83D-08 OVMax= 1.79D-04

 Cycle  11  Pass 1  IDiag  1:
 E= -1136.13464978247     Delta-E=       -0.000000014292 Rises=F Damp=F
 DIIS: error= 2.94D-06 at cycle  11 NSaved=  11.
 NSaved=11 IEnMin=11 EnMin= -1136.13464978247     IErMin=11 ErrMin= 2.94D-06
 ErrMax= 2.94D-06  0.00D+00 EMaxC= 1.00D-01 BMatC= 2.05D-09 BMatP= 3.10D-09
 IDIUse=1 WtCom= 1.00D+00 WtEn= 0.00D+00
 Coeff-Com: -0.731D-04 0.991D-04 0.430D-03-0.135D-03 0.214D-02 0.141D-01
 Coeff-Com:  0.831D-02-0.118D+00-0.253D+00 0.560D+00 0.786D+00
 Coeff:     -0.731D-04 0.991D-04 0.430D-03-0.135D-03 0.214D-02 0.141D-01
 Coeff:      0.831D-02-0.118D+00-0.253D+00 0.560D+00 0.786D+00
 Gap=     0.052 Goal=   None    Shift=    0.000
 Gap=     0.052 Goal=   None    Shift=    0.000
 RMSDP=7.68D-06 MaxDP=8.21D-04 DE=-1.43D-08 OVMax= 1.68D-04

 Cycle  12  Pass 1  IDiag  1:
 E= -1136.13464979084     Delta-E=       -0.000000008366 Rises=F Damp=F
 DIIS: error= 1.27D-06 at cycle  12 NSaved=  12.
 NSaved=12 IEnMin=12 EnMin= -1136.13464979084     IErMin=12 ErrMin= 1.27D-06
 ErrMax= 1.27D-06  0.00D+00 EMaxC= 1.00D-01 BMatC= 3.89D-10 BMatP= 2.05D-09
 IDIUse=1 WtCom= 1.00D+00 WtEn= 0.00D+00
 Coeff-Com: -0.404D-04 0.528D-04 0.127D-03-0.224D-03 0.147D-02 0.100D-01
 Coeff-Com:  0.611D-02-0.484D-01-0.124D+00 0.194D-01 0.288D+00 0.848D+00
 Coeff:     -0.404D-04 0.528D-04 0.127D-03-0.224D-03 0.147D-02 0.100D-01
 Coeff:      0.611D-02-0.484D-01-0.124D+00 0.194D-01 0.288D+00 0.848D+00
 Gap=     0.052 Goal=   None    Shift=    0.000
 Gap=     0.052 Goal=   None    Shift=    0.000
 RMSDP=2.75D-06 MaxDP=1.94D-04 DE=-8.37D-09 OVMax= 8.35D-05

 Cycle  13  Pass 1  IDiag  1:
 E= -1136.13464979286     Delta-E=       -0.000000002024 Rises=F Damp=F
 DIIS: error= 6.97D-07 at cycle  13 NSaved=  13.
 NSaved=13 IEnMin=13 EnMin= -1136.13464979286     IErMin=13 ErrMin= 6.97D-07
 ErrMax= 6.97D-07  0.00D+00 EMaxC= 1.00D-01 BMatC= 1.05D-10 BMatP= 3.89D-10
 IDIUse=1 WtCom= 1.00D+00 WtEn= 0.00D+00
 Coeff-Com:  0.105D-04-0.151D-04-0.110D-03-0.649D-04-0.138D-03-0.866D-03
 Coeff-Com: -0.446D-03 0.258D-01 0.335D-01-0.191D+00-0.177D+00 0.304D+00
 Coeff-Com:  0.101D+01
 Coeff:      0.105D-04-0.151D-04-0.110D-03-0.649D-04-0.138D-03-0.866D-03
 Coeff:     -0.446D-03 0.258D-01 0.335D-01-0.191D+00-0.177D+00 0.304D+00
 Coeff:      0.101D+01
 Gap=     0.052 Goal=   None    Shift=    0.000
 Gap=     0.052 Goal=   None    Shift=    0.000
 RMSDP=2.28D-06 MaxDP=3.14D-04 DE=-2.02D-09 OVMax= 6.28D-05

 Cycle  14  Pass 1  IDiag  1:
 E= -1136.13464979356     Delta-E=       -0.000000000698 Rises=F Damp=F
 DIIS: error= 3.13D-07 at cycle  14 NSaved=  14.
 NSaved=14 IEnMin=14 EnMin= -1136.13464979356     IErMin=14 ErrMin= 3.13D-07
 ErrMax= 3.13D-07  0.00D+00 EMaxC= 1.00D-01 BMatC= 1.32D-11 BMatP= 1.05D-10
 IDIUse=1 WtCom= 1.00D+00 WtEn= 0.00D+00
 Coeff-Com:  0.302D-05-0.380D-05-0.449D-04 0.328D-04-0.241D-03-0.156D-02
 Coeff-Com: -0.881D-03 0.597D-02 0.173D-01 0.266D-01-0.143D-01-0.206D+00
 Coeff-Com: -0.239D+00 0.141D+01
 Coeff:      0.302D-05-0.380D-05-0.449D-04 0.328D-04-0.241D-03-0.156D-02
 Coeff:     -0.881D-03 0.597D-02 0.173D-01 0.266D-01-0.143D-01-0.206D+00
 Coeff:     -0.239D+00 0.141D+01
 Gap=     0.052 Goal=   None    Shift=    0.000
 Gap=     0.052 Goal=   None    Shift=    0.000
 RMSDP=1.02D-06 MaxDP=5.67D-05 DE=-6.98D-10 OVMax= 2.96D-05

 Cycle  15  Pass 1  IDiag  1:
 E= -1136.13464979367     Delta-E=       -0.000000000115 Rises=F Damp=F
 DIIS: error= 1.27D-07 at cycle  15 NSaved=  15.
 NSaved=15 IEnMin=15 EnMin= -1136.13464979367     IErMin=15 ErrMin= 1.27D-07
 ErrMax= 1.27D-07  0.00D+00 EMaxC= 1.00D-01 BMatC= 1.64D-12 BMatP= 1.32D-11
 IDIUse=1 WtCom= 1.00D+00 WtEn= 0.00D+00
 Coeff-Com:  0.233D-06-0.122D-06 0.324D-04 0.966D-05 0.375D-04 0.184D-03
 Coeff-Com:  0.149D-03-0.400D-02-0.108D-01 0.270D-01 0.317D-01-0.207D-01
 Coeff-Com: -0.104D+00-0.235D+00 0.132D+01
 Coeff:      0.233D-06-0.122D-06 0.324D-04 0.966D-05 0.375D-04 0.184D-03
 Coeff:      0.149D-03-0.400D-02-0.108D-01 0.270D-01 0.317D-01-0.207D-01
 Coeff:     -0.104D+00-0.235D+00 0.132D+01
 Gap=     0.052 Goal=   None    Shift=    0.000
 Gap=     0.052 Goal=   None    Shift=    0.000
 RMSDP=4.21D-07 MaxDP=2.10D-05 DE=-1.15D-10 OVMax= 1.09D-05

 Cycle  16  Pass 1  IDiag  1:
 E= -1136.13464979370     Delta-E=       -0.000000000029 Rises=F Damp=F
 DIIS: error= 4.08D-08 at cycle  16 NSaved=  16.
 NSaved=16 IEnMin=16 EnMin= -1136.13464979370     IErMin=16 ErrMin= 4.08D-08
 ErrMax= 4.08D-08  0.00D+00 EMaxC= 1.00D-01 BMatC= 2.08D-13 BMatP= 1.64D-12
 IDIUse=1 WtCom= 1.00D+00 WtEn= 0.00D+00
 Coeff-Com: -0.890D-06 0.113D-05-0.161D-05-0.247D-05 0.110D-04 0.105D-03
 Coeff-Com:  0.434D-04 0.275D-03 0.219D-02-0.883D-02-0.808D-02 0.218D-01
 Coeff-Com:  0.507D-01-0.752D-01-0.331D+00 0.135D+01
 Coeff:     -0.890D-06 0.113D-05-0.161D-05-0.247D-05 0.110D-04 0.105D-03
 Coeff:      0.434D-04 0.275D-03 0.219D-02-0.883D-02-0.808D-02 0.218D-01
 Coeff:      0.507D-01-0.752D-01-0.331D+00 0.135D+01
 Gap=     0.052 Goal=   None    Shift=    0.000
 Gap=     0.052 Goal=   None    Shift=    0.000
 RMSDP=1.12D-07 MaxDP=5.87D-06 DE=-2.91D-11 OVMax= 3.80D-06

 Cycle  17  Pass 1  IDiag  1:
 E= -1136.13464979371     Delta-E=       -0.000000000006 Rises=F Damp=F
 DIIS: error= 1.57D-08 at cycle  17 NSaved=  17.
 NSaved=17 IEnMin=17 EnMin= -1136.13464979371     IErMin=17 ErrMin= 1.57D-08
 ErrMax= 1.57D-08  0.00D+00 EMaxC= 1.00D-01 BMatC= 5.55D-14 BMatP= 2.08D-13
 IDIUse=1 WtCom= 1.00D+00 WtEn= 0.00D+00
 Coeff-Com: -0.267D-06 0.305D-06-0.496D-05-0.338D-05 0.312D-05 0.233D-04
 Coeff-Com:  0.930D-05 0.518D-03 0.149D-02-0.567D-02-0.508D-02 0.916D-02
 Coeff-Com:  0.233D-01 0.162D-01-0.269D+00 0.288D+00 0.942D+00
 Coeff:     -0.267D-06 0.305D-06-0.496D-05-0.338D-05 0.312D-05 0.233D-04
 Coeff:      0.930D-05 0.518D-03 0.149D-02-0.567D-02-0.508D-02 0.916D-02
 Coeff:      0.233D-01 0.162D-01-0.269D+00 0.288D+00 0.942D+00
 Gap=     0.052 Goal=   None    Shift=    0.000
 Gap=     0.052 Goal=   None    Shift=    0.000
 RMSDP=2.98D-08 MaxDP=1.52D-06 DE=-6.37D-12 OVMax= 1.31D-06

 Cycle  18  Pass 1  IDiag  1:
 E= -1136.13464979370     Delta-E=        0.000000000008 Rises=F Damp=F
 DIIS: error= 6.53D-09 at cycle  18 NSaved=  18.
 NSaved=18 IEnMin=17 EnMin= -1136.13464979371     IErMin=18 ErrMin= 6.53D-09
 ErrMax= 6.53D-09  0.00D+00 EMaxC= 1.00D-01 BMatC= 1.17D-14 BMatP= 5.55D-14
 IDIUse=1 WtCom= 1.00D+00 WtEn= 0.00D+00
 Coeff-Com:  0.232D-06-0.302D-06-0.159D-05 0.386D-06-0.568D-05-0.427D-04
 Coeff-Com: -0.266D-04 0.849D-04 0.173D-03 0.119D-02 0.462D-03-0.593D-02
 Coeff-Com: -0.104D-01 0.427D-01 0.176D-02-0.319D+00 0.179D+00 0.111D+01
 Coeff:      0.232D-06-0.302D-06-0.159D-05 0.386D-06-0.568D-05-0.427D-04
 Coeff:     -0.266D-04 0.849D-04 0.173D-03 0.119D-02 0.462D-03-0.593D-02
 Coeff:     -0.104D-01 0.427D-01 0.176D-02-0.319D+00 0.179D+00 0.111D+01
 Gap=     0.052 Goal=   None    Shift=    0.000
 Gap=     0.052 Goal=   None    Shift=    0.000
 RMSDP=2.22D-08 MaxDP=1.55D-06 DE= 7.73D-12 OVMax= 9.20D-07

 Cycle  19  Pass 1  IDiag  1:
 E= -1136.13464979371     Delta-E=       -0.000000000012 Rises=F Damp=F
 DIIS: error= 2.08D-09 at cycle  19 NSaved=  19.
 NSaved=19 IEnMin=19 EnMin= -1136.13464979371     IErMin=19 ErrMin= 2.08D-09
 ErrMax= 2.08D-09  0.00D+00 EMaxC= 1.00D-01 BMatC= 9.65D-16 BMatP= 1.17D-14
 IDIUse=1 WtCom= 1.00D+00 WtEn= 0.00D+00
 Large coefficients: NSaved= 19 BigCof=    0.00 CofMax=   10.00 Det=-1.76D-15
 Inversion failed.  Reducing to 18 matrices.
 Large coefficients: NSaved= 18 BigCof=    0.00 CofMax=   10.00 Det=-1.98D-15
 Inversion failed.  Reducing to 17 matrices.
 Large coefficients: NSaved= 17 BigCof=    0.00 CofMax=   10.00 Det=-2.05D-15
 Inversion failed.  Reducing to 16 matrices.
 Large coefficients: NSaved= 16 BigCof=    0.00 CofMax=   10.00 Det=-2.06D-15
 Inversion failed.  Reducing to 15 matrices.
 Coeff-Com: -0.578D-06 0.179D-05 0.283D-05 0.859D-05-0.114D-03 0.170D-03
 Coeff-Com:  0.770D-04 0.311D-04 0.483D-03-0.650D-02 0.170D-01 0.331D-01
 Coeff-Com: -0.130D+00-0.169D+00 0.125D+01
 Coeff:     -0.578D-06 0.179D-05 0.283D-05 0.859D-05-0.114D-03 0.170D-03
 Coeff:      0.770D-04 0.311D-04 0.483D-03-0.650D-02 0.170D-01 0.331D-01
 Coeff:     -0.130D+00-0.169D+00 0.125D+01
 Gap=     0.052 Goal=   None    Shift=    0.000
 Gap=     0.052 Goal=   None    Shift=    0.000
 RMSDP=1.24D-08 MaxDP=1.50D-06 DE=-1.23D-11 OVMax= 2.13D-07

 Cycle  20  Pass 1  IDiag  1:
 E= -1136.13464979371     Delta-E=        0.000000000004 Rises=F Damp=F
 DIIS: error= 8.82D-10 at cycle  20 NSaved=  16.
 NSaved=16 IEnMin=15 EnMin= -1136.13464979371     IErMin=16 ErrMin= 8.82D-10
 ErrMax= 8.82D-10  0.00D+00 EMaxC= 1.00D-01 BMatC= 1.55D-16 BMatP= 9.65D-16
 IDIUse=1 WtCom= 1.00D+00 WtEn= 0.00D+00
 Large coefficients: NSaved= 16 BigCof=    0.00 CofMax=   10.00 Det=-1.35D-16
 Inversion failed.  Reducing to 15 matrices.
 Coeff-Com: -0.185D-05-0.124D-05 0.149D-04 0.843D-04-0.263D-03-0.213D-03
 Coeff-Com:  0.552D-03 0.113D-02-0.118D-02-0.832D-02 0.192D-01 0.389D-01
 Coeff-Com: -0.651D-01-0.485D+00 0.150D+01
 Coeff:     -0.185D-05-0.124D-05 0.149D-04 0.843D-04-0.263D-03-0.213D-03
 Coeff:      0.552D-03 0.113D-02-0.118D-02-0.832D-02 0.192D-01 0.389D-01
 Coeff:     -0.651D-01-0.485D+00 0.150D+01
 Gap=     0.052 Goal=   None    Shift=    0.000
 Gap=     0.052 Goal=   None    Shift=    0.000
 RMSDP=6.23D-09 MaxDP=7.03D-07 DE= 4.09D-12 OVMax= 8.57D-08

 SCF Done:  E(UB3LYP) =  -1136.13464979     A.U. after   20 cycles
            NFock= 20  Conv=0.62D-08     -V/T= 2.0028
 <Sx>= 0.0000 <Sy>= 0.0000 <Sz>= 0.5000 <S**2>= 0.7587 S= 0.5043
 <L.S>= 0.000000000000E+00
 KE= 1.132995392987D+03 PE=-3.434952194546D+03 EE= 8.131501026981D+02
 Annihilation of the first spin contaminant:
 S**2 before annihilation     0.7587,   after     0.7500
 Leave Link  502 at Thu Dec  7 01:50:01 2023, MaxMem=  1879048192 cpu:             185.5 elap:              16.4
 (Enter /home/sekinelabo/g16/l601.exe)
 Copying SCF densities to generalized density rwf, IOpCl= 1 IROHF=0.

 **********************************************************************

            Population analysis using the SCF Density.

 **********************************************************************

 Orbital symmetries:
 Alpha Orbitals:
       Occupied  (A) (A) (A) (A) (A) (A) (A) (A) (A) (A) (A) (A)
                 (A) (A) (A) (A) (A) (A) (A) (A) (A) (A) (A) (A)
                 (A) (A) (A) (A) (A) (A) (A) (A) (A) (A) (A) (A)
                 (A) (A) (A)
       Virtual   (A) (A) (A) (A) (A) (A) (A) (A) (A) (A) (A) (A)
                 (A) (A) (A) (A) (A) (A) (A) (A) (A) (A) (A) (A)
                 (A) (A) (A) (A) (A) (A) (A) (A) (A) (A) (A) (A)
                 (A) (A) (A) (A) (A) (A) (A) (A) (A) (A) (A) (A)
                 (A) (A) (A) (A) (A) (A) (A) (A) (A) (A) (A) (A)
                 (A) (A) (A) (A) (A) (A) (A) (A) (A) (A) (A) (A)
                 (A) (A) (A) (A) (A) (A) (A) (A) (A) (A) (A) (A)
                 (A) (A) (A) (A) (A) (A) (A) (A) (A) (A) (A) (A)
                 (A) (A) (A) (A) (A) (A) (A) (A) (A) (A) (A) (A)
                 (A) (A) (A) (A) (A) (A) (A) (A) (A) (A) (A) (A)
                 (A) (A) (A) (A) (A) (A) (A) (A) (A) (A) (A) (A)
                 (A) (A) (A) (A) (A) (A) (A) (A) (A) (A) (A) (A)
                 (A) (A) (A) (A) (A) (A) (A) (A) (A) (A) (A) (A)
                 (A) (A) (A) (A) (A) (A) (A) (A) (A) (A) (A) (A)
                 (A) (A) (A)
 Beta  Orbitals:
       Occupied  (A) (A) (A) (A) (A) (A) (A) (A) (A) (A) (A) (A)
                 (A) (A) (A) (A) (A) (A) (A) (A) (A) (A) (A) (A)
                 (A) (A) (A) (A) (A) (A) (A) (A) (A) (A) (A) (A)
                 (A) (A)
       Virtual   (A) (A) (A) (A) (A) (A) (A) (A) (A) (A) (A) (A)
                 (A) (A) (A) (A) (A) (A) (A) (A) (A) (A) (A) (A)
                 (A) (A) (A) (A) (A) (A) (A) (A) (A) (A) (A) (A)
                 (A) (A) (A) (A) (A) (A) (A) (A) (A) (A) (A) (A)
                 (A) (A) (A) (A) (A) (A) (A) (A) (A) (A) (A) (A)
                 (A) (A) (A) (A) (A) (A) (A) (A) (A) (A) (A) (A)
                 (A) (A) (A) (A) (A) (A) (A) (A) (A) (A) (A) (A)
                 (A) (A) (A) (A) (A) (A) (A) (A) (A) (A) (A) (A)
                 (A) (A) (A) (A) (A) (A) (A) (A) (A) (A) (A) (A)
                 (A) (A) (A) (A) (A) (A) (A) (A) (A) (A) (A) (A)
                 (A) (A) (A) (A) (A) (A) (A) (A) (A) (A) (A) (A)
                 (A) (A) (A) (A) (A) (A) (A) (A) (A) (A) (A) (A)
                 (A) (A) (A) (A) (A) (A) (A) (A) (A) (A) (A) (A)
                 (A) (A) (A) (A) (A) (A) (A) (A) (A) (A) (A) (A)
                 (A) (A) (A) (A)
 The electronic state is 2-A.
 Alpha  occ. eigenvalues --  -38.44125 -38.43774 -38.43654 -38.43575 -38.43414
 Alpha  occ. eigenvalues --  -38.43354 -38.42914  -2.19910  -2.19639  -2.19618
 Alpha  occ. eigenvalues --   -2.19442  -2.19378  -2.19312  -2.18866  -1.13587
 Alpha  occ. eigenvalues --   -1.13565  -1.13557  -1.13349  -1.13324  -1.13320
 Alpha  occ. eigenvalues --   -1.13311  -1.13267  -1.13265  -1.13121  -1.13103
 Alpha  occ. eigenvalues --   -1.13066  -1.13048  -1.13000  -1.12991  -1.12987
 Alpha  occ. eigenvalues --   -1.12941  -1.12927  -1.12543  -1.12509  -1.12501
 Alpha  occ. eigenvalues --   -0.19133  -0.13248  -0.12426  -0.10913
 Alpha virt. eigenvalues --   -0.05673  -0.05203  -0.04366  -0.03344  -0.02889
 Alpha virt. eigenvalues --   -0.02549  -0.01435  -0.01123  -0.00266  -0.00077
 Alpha virt. eigenvalues --    0.00022   0.00368   0.00817   0.00890   0.00946
 Alpha virt. eigenvalues --    0.01029   0.01098   0.01191   0.01227   0.01302
 Alpha virt. eigenvalues --    0.01353   0.01579   0.01776   0.01853   0.02173
 Alpha virt. eigenvalues --    0.02279   0.02348   0.02625   0.02662   0.02886
 Alpha virt. eigenvalues --    0.02948   0.03031   0.03046   0.03080   0.03203
 Alpha virt. eigenvalues --    0.03244   0.03317   0.03375   0.03431   0.03605
 Alpha virt. eigenvalues --    0.04208   0.04568   0.04688   0.04793   0.04972
 Alpha virt. eigenvalues --    0.05076   0.05173   0.05217   0.05343   0.05421
 Alpha virt. eigenvalues --    0.05823   0.07270   0.07375   0.07457   0.07544
 Alpha virt. eigenvalues --    0.07592   0.07668   0.08034   0.08398   0.09115
 Alpha virt. eigenvalues --    0.09278   0.10125   0.10632   0.11236   0.11557
 Alpha virt. eigenvalues --    0.12359   0.12624   0.12719   0.13064   0.13438
 Alpha virt. eigenvalues --    0.13844   0.14231   0.14635   0.14852   0.15282
 Alpha virt. eigenvalues --    0.15655   0.15881   0.16093   0.16286   0.16793
 Alpha virt. eigenvalues --    0.25792   0.26886   0.27014   0.28243   0.28459
 Alpha virt. eigenvalues --    0.29538   0.29617   0.30874   0.31122   0.33450
 Alpha virt. eigenvalues --    0.35099   0.35645   0.37098   0.37842   0.39219
 Alpha virt. eigenvalues --    0.40058   0.40628   0.41263   0.41718   0.42959
 Alpha virt. eigenvalues --    0.43792   0.44312   0.44622   0.44971   0.45159
 Alpha virt. eigenvalues --    0.45421   0.45458   0.46077   0.46921   0.46989
 Alpha virt. eigenvalues --    0.47021   0.48122   0.49102   0.49396   0.50187
 Alpha virt. eigenvalues --    0.50364   0.51049   0.51815   0.52921   0.53284
 Alpha virt. eigenvalues --    0.53950   0.55232   0.56420   0.56788   0.57484
 Alpha virt. eigenvalues --    0.57824   0.58432   0.59156   0.62560   0.63282
 Alpha virt. eigenvalues --    0.64121   0.65460   0.66229   0.68445   0.68861
 Alpha virt. eigenvalues --    0.75181   2.04190   2.14749   2.18264   2.21986
 Alpha virt. eigenvalues --    2.24710   2.25739   2.26738   4.41877   4.43343
 Alpha virt. eigenvalues --    4.44191   4.44685   4.45072   4.45597   4.45870
 Alpha virt. eigenvalues --    4.46202   4.47811   4.48538   4.48782   4.50129
 Alpha virt. eigenvalues --    4.51203   4.51510   4.53690   4.55258   4.57478
 Alpha virt. eigenvalues --    4.60568   4.63677   4.65416   4.70928  96.23651
 Alpha virt. eigenvalues --   96.35930  96.40661  96.45608  96.49112  96.50475
 Alpha virt. eigenvalues --   96.51596
  Beta  occ. eigenvalues --  -38.44126 -38.43767 -38.43645 -38.43570 -38.43335
  Beta  occ. eigenvalues --  -38.43272 -38.42904  -2.19915  -2.19629  -2.19606
  Beta  occ. eigenvalues --   -2.19435  -2.19234  -2.19163  -2.18853  -1.13575
  Beta  occ. eigenvalues --   -1.13568  -1.13562  -1.13336  -1.13319  -1.13317
  Beta  occ. eigenvalues --   -1.13279  -1.13264  -1.13219  -1.13108  -1.13075
  Beta  occ. eigenvalues --   -1.13061  -1.12960  -1.12902  -1.12888  -1.12887
  Beta  occ. eigenvalues --   -1.12834  -1.12819  -1.12536  -1.12504  -1.12455
  Beta  occ. eigenvalues --   -0.18360  -0.13005  -0.12174
  Beta virt. eigenvalues --   -0.06960  -0.05677  -0.05137  -0.04368  -0.02521
  Beta virt. eigenvalues --   -0.02105  -0.01532  -0.01330  -0.01041  -0.00313
  Beta virt. eigenvalues --   -0.00100   0.00133   0.00387   0.00842   0.00925
  Beta virt. eigenvalues --    0.00950   0.01093   0.01207   0.01319   0.01416
  Beta virt. eigenvalues --    0.01445   0.01476   0.01632   0.01811   0.01871
  Beta virt. eigenvalues --    0.02263   0.02303   0.02377   0.02599   0.02644
  Beta virt. eigenvalues --    0.02914   0.03043   0.03073   0.03087   0.03232
  Beta virt. eigenvalues --    0.03306   0.03316   0.03338   0.03402   0.03517
  Beta virt. eigenvalues --    0.03734   0.04269   0.04635   0.04747   0.04973
  Beta virt. eigenvalues --    0.05075   0.05167   0.05271   0.05395   0.05487
  Beta virt. eigenvalues --    0.05596   0.06164   0.07297   0.07457   0.07498
  Beta virt. eigenvalues --    0.07656   0.07725   0.07844   0.08129   0.08468
  Beta virt. eigenvalues --    0.09390   0.09551   0.10367   0.10679   0.11463
  Beta virt. eigenvalues --    0.11735   0.12565   0.12830   0.13175   0.13453
  Beta virt. eigenvalues --    0.13608   0.13978   0.14433   0.14961   0.15010
  Beta virt. eigenvalues --    0.15546   0.15791   0.16128   0.16396   0.16632
  Beta virt. eigenvalues --    0.17008   0.26064   0.27137   0.27257   0.28364
  Beta virt. eigenvalues --    0.28885   0.29644   0.30030   0.31072   0.31730
  Beta virt. eigenvalues --    0.33801   0.35299   0.35778   0.37287   0.38025
  Beta virt. eigenvalues --    0.39546   0.40170   0.40789   0.41694   0.41769
  Beta virt. eigenvalues --    0.43165   0.43999   0.44535   0.44921   0.45066
  Beta virt. eigenvalues --    0.45186   0.45605   0.45738   0.46084   0.47023
  Beta virt. eigenvalues --    0.47087   0.47110   0.48386   0.49194   0.49576
  Beta virt. eigenvalues --    0.50171   0.50454   0.51056   0.51911   0.53192
  Beta virt. eigenvalues --    0.53562   0.54252   0.55476   0.56620   0.56950
  Beta virt. eigenvalues --    0.57812   0.58168   0.58705   0.59635   0.62586
  Beta virt. eigenvalues --    0.63578   0.64283   0.65663   0.66366   0.68732
  Beta virt. eigenvalues --    0.69135   0.75128   2.04299   2.14761   2.18270
  Beta virt. eigenvalues --    2.22017   2.24820   2.26027   2.26947   4.41872
  Beta virt. eigenvalues --    4.43426   4.44286   4.44710   4.45097   4.45626
  Beta virt. eigenvalues --    4.45892   4.46274   4.47827   4.48611   4.48799
  Beta virt. eigenvalues --    4.50229   4.51239   4.51594   4.53770   4.55313
  Beta virt. eigenvalues --    4.57522   4.60630   4.63760   4.65470   4.70945
  Beta virt. eigenvalues --   96.23689  96.35935  96.40665  96.45623  96.49219
  Beta virt. eigenvalues --   96.50494  96.51656
          Condensed to atoms (all electrons):
               1          2          3          4          5          6
     1  Na  15.838206  -0.693508   0.100500   0.729943  -0.291657  -0.824749
     2  Na  -0.693508  11.158811   0.410003  -0.076873  -0.120910   0.040094
     3  Na   0.100500   0.410003  10.807832   0.264682  -0.112408  -0.238187
     4  Na   0.729943  -0.076873   0.264682  11.039462   0.316481  -0.325891
     5  Na  -0.291657  -0.120910  -0.112408   0.316481  11.185757   0.396618
     6  Na  -0.824749   0.040094  -0.238187  -0.325891   0.396618  11.646017
     7  Na  -3.440391   0.226014  -0.143409  -1.034242  -0.692345  -0.144691
               7
     1  Na  -3.440391
     2  Na   0.226014
     3  Na  -0.143409
     4  Na  -1.034242
     5  Na  -0.692345
     6  Na  -0.144691
     7  Na  16.633766
          Atomic-Atomic Spin Densities.
               1          2          3          4          5          6
     1  Na   3.977982  -0.301474   0.130366   0.607513   0.101114  -0.057197
     2  Na  -0.301474  -0.136853  -0.127032  -0.058746   0.084043   0.062474
     3  Na   0.130366  -0.127032  -0.175954  -0.059356   0.064144   0.095237
     4  Na   0.607513  -0.058746  -0.059356   0.005787   0.023939   0.132886
     5  Na   0.101114   0.084043   0.064144   0.023939  -0.066540  -0.027866
     6  Na  -0.057197   0.062474   0.095237   0.132886  -0.027866  -0.273230
     7  Na  -3.898454   0.345485  -0.084446  -0.689440  -0.137398   0.176252
               7
     1  Na  -3.898454
     2  Na   0.345485
     3  Na  -0.084446
     4  Na  -0.689440
     5  Na  -0.137398
     6  Na   0.176252
     7  Na   4.904717
 Mulliken charges and spin densities:
               1          2
     1  Na  -0.418344   0.559850
     2  Na   0.056369  -0.132103
     3  Na  -0.089014  -0.157041
     4  Na   0.086437  -0.037415
     5  Na   0.318464   0.041437
     6  Na   0.450789   0.108555
     7  Na  -0.404702   0.616717
 Sum of Mulliken charges =  -0.00000   1.00000
 Mulliken charges and spin densities with hydrogens summed into heavy atoms:
               1          2
     1  Na  -0.418344   0.559850
     2  Na   0.056369  -0.132103
     3  Na  -0.089014  -0.157041
     4  Na   0.086437  -0.037415
     5  Na   0.318464   0.041437
     6  Na   0.450789   0.108555
     7  Na  -0.404702   0.616717
 Electronic spatial extent (au):  <R**2>=           2126.0697
 Charge=             -0.0000 electrons
 Dipole moment (field-independent basis, Debye):
    X=              0.4416    Y=              0.3622    Z=             -0.0252  Tot=              0.5717
 Quadrupole moment (field-independent basis, Debye-Ang):
   XX=            -57.8045   YY=            -62.7369   ZZ=            -73.4738
   XY=              0.1606   XZ=             -0.9958   YZ=              0.8057
 Traceless Quadrupole moment (field-independent basis, Debye-Ang):
   XX=              6.8672   YY=              1.9348   ZZ=             -8.8020
   XY=              0.1606   XZ=             -0.9958   YZ=              0.8057
 Octapole moment (field-independent basis, Debye-Ang**2):
  XXX=              6.0386  YYY=              7.4044  ZZZ=             -0.3598  XYY=              6.2310
  XXY=              2.9195  XXZ=             -1.2409  XZZ=              2.3208  YZZ=              1.5183
  YYZ=              1.1711  XYZ=              0.3683
 Hexadecapole moment (field-independent basis, Debye-Ang**3):
 XXXX=          -1445.9652 YYYY=          -1309.0468 ZZZZ=           -718.8659 XXXY=             30.7758
 XXXZ=            -14.2167 YYYX=            -19.6281 YYYZ=             11.2943 ZZZX=              4.8815
 ZZZY=             -2.3600 XXYY=           -418.4388 XXZZ=           -432.8284 YYZZ=           -394.2880
 XXYZ=             11.2516 YYXZ=            -16.1136 ZZXY=             -2.2653
 N-N= 3.526720490670D+02 E-N=-3.434952194523D+03  KE= 1.132995392987D+03
                          Isotropic Fermi Contact Couplings
        Atom                 a.u.       MegaHertz       Gauss      10(-4) cm-1
     1  Na(23)             0.31748     375.58377     134.01763     125.28126
     2  Na(23)            -0.01382     -16.34775      -5.83328      -5.45302
     3  Na(23)            -0.02839     -33.58867     -11.98527     -11.20397
     4  Na(23)            -0.00632      -7.47310      -2.66659      -2.49276
     5  Na(23)            -0.01613     -19.08697      -6.81071      -6.36673
     6  Na(23)            -0.01638     -19.37872      -6.91481      -6.46404
     7  Na(23)             0.32764     387.60599     138.30746     129.29144
 --------------------------------------------------------
       Center         ----  Spin Dipole Couplings  ----
                      3XX-RR        3YY-RR        3ZZ-RR
 --------------------------------------------------------
     1   Atom        0.003162      0.000943     -0.004105
     2   Atom       -0.015153     -0.012736      0.027890
     3   Atom       -0.006778     -0.009249      0.016026
     4   Atom       -0.012512     -0.014421      0.026933
     5   Atom       -0.023025     -0.018705      0.041729
     6   Atom       -0.018518     -0.024859      0.043377
     7   Atom        0.001051      0.003732     -0.004783
 --------------------------------------------------------
                        XY            XZ            YZ
 --------------------------------------------------------
     1   Atom        0.000133      0.001983      0.004003
     2   Atom       -0.002704      0.003369     -0.004157
     3   Atom        0.002277     -0.001822      0.002755
     4   Atom       -0.003632      0.003297     -0.004570
     5   Atom        0.001182      0.000498      0.005451
     6   Atom        0.000218     -0.002042      0.000156
     7   Atom        0.001434     -0.004750     -0.001288
 --------------------------------------------------------


 ---------------------------------------------------------------------------------
              Anisotropic Spin Dipole Couplings in Principal Axis System
 ---------------------------------------------------------------------------------

       Atom             a.u.   MegaHertz   Gauss  10(-4) cm-1        Axes

              Baa    -0.0066    -0.932    -0.333    -0.311 -0.1707 -0.4594  0.8717
     1 Na(23) Bbb     0.0022     0.315     0.112     0.105 -0.6448  0.7210  0.2537
              Bcc     0.0044     0.617     0.220     0.206  0.7450  0.5188  0.4193
 
              Baa    -0.0169    -2.389    -0.852    -0.797  0.8458  0.5333 -0.0141
     2 Na(23) Bbb    -0.0117    -1.652    -0.589    -0.551 -0.5271  0.8394  0.1330
              Bcc     0.0286     4.040     1.442     1.348  0.0828 -0.1050  0.9910
 
              Baa    -0.0110    -1.554    -0.555    -0.518 -0.5106  0.8513 -0.1212
     3 Na(23) Bbb    -0.0054    -0.766    -0.273    -0.255  0.8571  0.5150  0.0067
              Bcc     0.0164     2.320     0.828     0.774 -0.0681  0.1005  0.9926
 
              Baa    -0.0173    -2.441    -0.871    -0.814  0.5875  0.8082  0.0397
     4 Na(23) Bbb    -0.0105    -1.480    -0.528    -0.494  0.8040 -0.5775 -0.1414
              Bcc     0.0278     3.921     1.399     1.308  0.0913 -0.1150  0.9892
 
              Baa    -0.0233    -3.296    -1.176    -1.099  0.9646 -0.2633  0.0147
     5 Na(23) Bbb    -0.0189    -2.667    -0.951    -0.889  0.2635  0.9606 -0.0886
              Bcc     0.0422     5.962     2.128     1.989  0.0092  0.0893  0.9960
 
              Baa    -0.0249    -3.512    -1.253    -1.171 -0.0353  0.9994 -0.0033
     6 Na(23) Bbb    -0.0186    -2.623    -0.936    -0.875  0.9988  0.0354  0.0328
              Bcc     0.0434     6.135     2.189     2.046 -0.0329  0.0022  0.9995
 
              Baa    -0.0075    -1.053    -0.376    -0.351  0.4821  0.0389  0.8752
     7 Na(23) Bbb     0.0018     0.261     0.093     0.087 -0.6359  0.7027  0.3190
              Bcc     0.0056     0.792     0.283     0.264  0.6026  0.7104 -0.3636
 

 ---------------------------------------------------------------------------------

 No NMR shielding tensors so no spin-rotation constants.
 Leave Link  601 at Thu Dec  7 01:50:01 2023, MaxMem=  1879048192 cpu:               2.3 elap:               0.2
 (Enter /home/sekinelabo/g16/l701.exe)
 ... and contract with generalized density number  0.
 Compute integral first derivatives.
 Leave Link  701 at Thu Dec  7 01:50:01 2023, MaxMem=  1879048192 cpu:               1.6 elap:               0.1
 (Enter /home/sekinelabo/g16/l702.exe)
 L702 exits ... SP integral derivatives will be done elsewhere.
 Leave Link  702 at Thu Dec  7 01:50:02 2023, MaxMem=  1879048192 cpu:               0.4 elap:               0.0
 (Enter /home/sekinelabo/g16/l703.exe)
 Integral derivatives from FoFJK, PRISM(SPDF).
 Compute integral first derivatives, UseDBF=F ICtDFT=           0.
 Calling FoFJK, ICntrl=      2127 FMM=F ISym2X=0 I1Cent= 0 IOpClX= 1 NMat=1 NMatS=1 NMatT=0.
 FoFJK:  IHMeth= 1 ICntrl=    2127 DoSepK=F KAlg= 0 I1Cent=           0 FoldK=F
 IRaf=         0 NMat=       1 IRICut=       1 DoRegI=T DoRafI=F ISym2E= 0 IDoP0=0 IntGTp=1.
 FoFCou: FMM=F IPFlag=           0 FMFlag=      100000 FMFlg1=         800
         NFxFlg=           0 DoJE=F BraDBF=F KetDBF=F FulRan=T
         wScrn=  0.000000 ICntrl=      2127 IOpCl=  1 I1Cent=           0 NGrid=           0
         NMat0=    1 NMatS0=      1 NMatT0=    0 NMatD0=    1 NMtDS0=    0 NMtDT0=    0
 Symmetry not used in FoFCou.
 Leave Link  703 at Thu Dec  7 01:50:04 2023, MaxMem=  1879048192 cpu:              33.8 elap:               2.3
 (Enter /home/sekinelabo/g16/l716.exe)
 Dipole        = 1.73756324D-01 1.42506497D-01-9.91682504D-03
 ***** Axes restored to original set *****
 -------------------------------------------------------------------
 Center     Atomic                   Forces (Hartrees/Bohr)
 Number     Number              X              Y              Z
 -------------------------------------------------------------------
      1       11          -0.005012523    0.001325604    0.001024512
      2       11          -0.002672935    0.003682843   -0.002830339
      3       11           0.003864964   -0.001204435    0.001582026
      4       11          -0.001263505    0.001201034   -0.000006174
      5       11          -0.002278701   -0.008125756    0.002586803
      6       11           0.007611676    0.000675224    0.000360988
      7       11          -0.000248976    0.002445486   -0.002717816
 -------------------------------------------------------------------
 Cartesian Forces:  Max     0.008125756 RMS     0.003298239
 Z-matrix is all fixed cartesians, so copy forces.
 Force constants in Cartesian coordinates: 
                1             2             3             4             5 
      1  0.111526D+00
      2 -0.720540D-02  0.116803D+00
      3 -0.152868D-01  0.238142D-01  0.162457D+00
      4 -0.170621D-01 -0.126903D-01  0.366489D-02  0.520775D-01
      5  0.657332D-02 -0.183337D-01 -0.127643D-01  0.588570D-02  0.756047D-01
      6  0.998203D-02  0.173781D-01 -0.321356D-01  0.945885D-03 -0.123382D-01
      7 -0.103667D-01  0.707250D-02  0.777273D-02 -0.681928D-02  0.190372D-02
      8 -0.505303D-02 -0.114108D-01 -0.119682D-01 -0.557134D-02  0.198753D-02
      9 -0.112685D-01  0.114593D-01 -0.248622D-01  0.513947D-03  0.484333D-03
     10 -0.177659D-01  0.299121D-02  0.121316D-01 -0.508796D-03 -0.162974D-02
     11 -0.125803D-01 -0.211517D-01  0.212209D-02 -0.537425D-02  0.962395D-04
     12 -0.163573D-01 -0.159419D-01 -0.226819D-01  0.664207D-03  0.251346D-02
     13 -0.143863D-01  0.780098D-02 -0.220554D-02  0.755915D-02 -0.268042D-02
     14  0.305903D-02 -0.287938D-01  0.105847D-01 -0.251059D-02 -0.632371D-02
     15  0.548462D-02 -0.231141D-01 -0.211900D-01  0.171470D-02  0.459143D-02
     16 -0.384062D-01 -0.461719D-03 -0.124306D-01 -0.225567D-01 -0.848416D-02
     17  0.136108D-01 -0.219258D-01 -0.208963D-02  0.216328D-01 -0.293963D-01
     18  0.256759D-01 -0.102402D-01 -0.291914D-01 -0.150787D-01  0.720912D-02
     19 -0.135388D-01  0.249274D-02  0.635381D-02 -0.126898D-01 -0.156842D-02
     20  0.159563D-02 -0.151869D-01 -0.969889D-02 -0.137206D-02 -0.236347D-01
     21  0.177007D-02 -0.335540D-02 -0.323958D-01  0.757510D-02  0.103042D-01
                6             7             8             9            10 
      6  0.514896D-01
      7 -0.231280D-02  0.452256D-01
      8 -0.113261D-02 -0.740079D-02  0.489725D-01
      9  0.187716D-02  0.417923D-02 -0.592151D-02  0.390902D-01
     10 -0.692966D-03 -0.136428D-01  0.926585D-02 -0.535925D-02  0.927432D-01
     11  0.189414D-02 -0.175182D-01 -0.229007D-01  0.508506D-02  0.178756D-01
     12  0.699144D-02  0.500048D-02  0.873818D-02 -0.676472D-02 -0.131234D-02
     13  0.149093D-02  0.288972D-02  0.548795D-02 -0.307994D-02 -0.309293D-01
     14  0.310860D-02  0.573105D-02 -0.778656D-03  0.334122D-02 -0.156773D-01
     15  0.629814D-02 -0.308236D-02  0.320944D-02  0.546753D-02  0.239755D-02
     16 -0.209745D-02 -0.228403D-02 -0.395479D-03 -0.175192D-02 -0.614288D-02
     17  0.138154D-01  0.345098D-02  0.251455D-02  0.247885D-02 -0.372937D-02
     18 -0.133233D-01 -0.356057D-02  0.170817D-02  0.612576D-02 -0.104564D-02
     19 -0.731563D-02 -0.150024D-01  0.366684D-02  0.167665D-01 -0.237535D-01
     20 -0.227254D-01  0.676077D-02 -0.183844D-01 -0.169273D-01 -0.909631D-02
     21 -0.211975D-01 -0.799672D-02  0.536655D-02 -0.209337D-01 -0.611891D-02
               11            12            13            14            15 
     11  0.795448D-01
     12 -0.724080D-02  0.537197D-01
     13  0.200424D-01 -0.939787D-02  0.912653D-01
     14 -0.258738D-01  0.277202D-02 -0.407976D-02  0.127460D+00
     15  0.712446D-02 -0.812917D-02  0.961499D-02 -0.190625D-01  0.687537D-01
     16 -0.416793D-02 -0.200383D-02 -0.372097D-01  0.115349D-01 -0.103595D-01
     17  0.756938D-02 -0.159463D-03 -0.275560D-01 -0.390271D-01 -0.112404D-03
     18  0.144906D-04  0.682780D-02 -0.142521D-02  0.108553D-01 -0.125517D-01
     19  0.172269D-02  0.234066D-01 -0.191889D-01  0.194261D-02 -0.576996D-02
     20 -0.172843D-01  0.931853D-02  0.984818D-03 -0.266630D-01  0.273637D-01
     21 -0.899945D-02 -0.299631D-01  0.500265D-02 -0.115993D-01 -0.386484D-01
               16            17            18            19            20 
     16  0.126875D+00
     17 -0.374645D-02  0.915362D-01
     18  0.180915D-01 -0.815830D-02  0.690023D-01
     19 -0.202758D-01 -0.366282D-02 -0.226572D-01  0.104449D+00
     20  0.572080D-02 -0.112708D-01 -0.138858D-02 -0.459364D-02  0.112424D+00
     21  0.105519D-01 -0.577447D-02 -0.268895D-01 -0.107841D-01  0.140579D-01
               21 
     21  0.170028D+00
 Leave Link  716 at Thu Dec  7 01:50:04 2023, MaxMem=  1879048192 cpu:               0.4 elap:               0.0
 (Enter /home/sekinelabo/g16/l103.exe)

 GradGradGradGradGradGradGradGradGradGradGradGradGradGradGradGradGradGrad
 Berny optimization.
 Search for a local minimum.
 Step number   1 out of a maximum of    2
 All quantities printed in internal units (Hartrees-Bohrs-Radians)
 Second derivative matrix not updated -- first step.
 ITU=  0
     Eigenvalues ---    0.04490   0.05222   0.06529   0.07377   0.08360
     Eigenvalues ---    0.09813   0.11148   0.13783   0.14152   0.14437
     Eigenvalues ---    0.14819   0.16785   0.18670   0.19997   0.22048
 Angle between quadratic step and forces=  23.09 degrees.
 Linear search not attempted -- first point.
 B after Tr=     0.000000    0.000000    0.000000
         Rot=    1.000000   -0.000000   -0.000000   -0.000000 Ang=   0.00 deg.
 Variable       Old X    -DE/DX   Delta X   Delta X   Delta X     New X
                                 (Linear)    (Quad)   (Total)
    X1       22.75438  -0.00501   0.00000  -0.03141  -0.03141  22.72297
    Y1       24.55529   0.00133   0.00000   0.00128   0.00128  24.55657
    Z1       26.33862   0.00102   0.00000   0.01059   0.01059  26.34921
    X2       26.24263  -0.00267   0.00000  -0.04050  -0.04050  26.20212
    Y2       27.70584   0.00368   0.00000   0.05464   0.05464  27.76049
    Z2       22.12850  -0.00283   0.00000  -0.03062  -0.03062  22.09789
    X3       18.31891   0.00386   0.00000   0.06709   0.06709  18.38600
    Y3       26.40477  -0.00120   0.00000  -0.00781  -0.00781  26.39695
    Z3       20.90925   0.00158   0.00000   0.02140   0.02140  20.93065
    X4       18.50176  -0.00126   0.00000  -0.02556  -0.02556  18.47620
    Y4       20.13182   0.00120   0.00000   0.00605   0.00605  20.13787
    Z4       23.39783  -0.00001   0.00000  -0.00791  -0.00791  23.38992
    X5       24.43473  -0.00228   0.00000  -0.01808  -0.01808  24.41664
    Y5       18.43241  -0.00813   0.00000  -0.06587  -0.06587  18.36653
    Z5       24.62351   0.00259   0.00000   0.02538   0.02538  24.64889
    X6       28.20133   0.00761   0.00000   0.05170   0.05170  28.25303
    Y6       22.72471   0.00068   0.00000   0.00771   0.00771  22.73242
    Z6       24.74426   0.00036   0.00000  -0.00196  -0.00196  24.74231
    X7       23.51613  -0.00025   0.00000  -0.00323  -0.00323  23.51290
    Y7       22.01493   0.00245   0.00000   0.00400   0.00400  22.01894
    Z7       19.82776  -0.00272   0.00000  -0.01688  -0.01688  19.81089
         Item               Value     Threshold  Converged?
 Maximum Force            0.008126     0.000450     NO 
 RMS     Force            0.003298     0.000300     NO 
 Maximum Displacement     0.067092     0.001800     NO 
 RMS     Displacement     0.031468     0.001200     NO 
 Predicted change in Energy=-1.002469D-03
 GradGradGradGradGradGradGradGradGradGradGradGradGradGradGradGradGradGrad

 Leave Link  103 at Thu Dec  7 01:50:04 2023, MaxMem=  1879048192 cpu:               0.2 elap:               0.0
 (Enter /home/sekinelabo/g16/l9999.exe)
 1\1\GINC-SEKINELABO-XA7R-R37\Force\UB3LYP\6-311+G(d)\Na7(2)\SEKINELABO
 \07-Dec-2023\0\\#P B3LYP/6-311+g(d) force\\DPGEN\\0,2\Na,12.0411,12.99
 41,13.9378\Na,13.887,14.6613,11.7099\Na,9.69395,13.9728,11.0647\Na,9.7
 9071,10.6533,12.3816\Na,12.9303,9.75401,13.0302\Na,14.9235,12.0254,13.
 0941\Na,12.4442,11.6498,10.4924\\Version=ES64L-G16RevB.01\State=2-A\HF
 =-1136.1346498\S2=0.758671\S2-1=0.\S2A=0.75005\RMSD=6.233e-09\RMSF=3.2
 98e-03\Dipole=-0.1606967,0.1386946,-0.0744181\Quadrupole=4.7562653,0.4
 429639,-5.1992292,0.3800207,2.0164999,-2.6955812\PG=C01 [X(Na7)]\\@


 THE POLHOLDE ROLLS WITHOUT SLIPPING ON THE HERPOLHOLDE LYING IN
 THE INVARIABLE PLANE.
 H.GOLDSTEIN, "CLASSICAL MECHANICS", PG 161
 Job cpu time:       0 days  0 hours  3 minutes 55.3 seconds.
 Elapsed time:       0 days  0 hours  0 minutes 19.7 seconds.
 File lengths (MBytes):  RWF=     32 Int=      0 D2E=      0 Chk=      4 Scr=      1
 Normal termination of Gaussian 16 at Thu Dec  7 01:50:04 2023.
