 Set GAUSS_MDEF to "14GB".
 Entering Gaussian System, Link 0=g16
 Initial command:
 /home/sekinelabo/g16/l1.exe "/home/sekinelabo/g16temp/Gau-709757.inp" -scrdir="/home/sekinelabo/g16temp/"
 Entering Link 1 = /home/sekinelabo/g16/l1.exe PID=    709759.
  
 Copyright (c) 1988-2017, Gaussian, Inc.  All Rights Reserved.
  
 This is part of the Gaussian(R) 16 program.  It is based on
 the Gaussian(R) 09 system (copyright 2009, Gaussian, Inc.),
 the Gaussian(R) 03 system (copyright 2003, Gaussian, Inc.),
 the Gaussian(R) 98 system (copyright 1998, Gaussian, Inc.),
 the Gaussian(R) 94 system (copyright 1995, Gaussian, Inc.),
 the Gaussian 92(TM) system (copyright 1992, Gaussian, Inc.),
 the Gaussian 90(TM) system (copyright 1990, Gaussian, Inc.),
 the Gaussian 88(TM) system (copyright 1988, Gaussian, Inc.),
 the Gaussian 86(TM) system (copyright 1986, Carnegie Mellon
 University), and the Gaussian 82(TM) system (copyright 1983,
 Carnegie Mellon University). Gaussian is a federally registered
 trademark of Gaussian, Inc.
  
 This software contains proprietary and confidential information,
 including trade secrets, belonging to Gaussian, Inc.
  
 This software is provided under written license and may be
 used, copied, transmitted, or stored only in accord with that
 written license.
  
 The following legend is applicable only to US Government
 contracts under FAR:
  
                    RESTRICTED RIGHTS LEGEND
  
 Use, reproduction and disclosure by the US Government is
 subject to restrictions as set forth in subparagraphs (a)
 and (c) of the Commercial Computer Software - Restricted
 Rights clause in FAR 52.227-19.
  
 Gaussian, Inc.
 340 Quinnipiac St., Bldg. 40, Wallingford CT 06492
  
  
 ---------------------------------------------------------------
 Warning -- This program may not be used in any manner that
 competes with the business of Gaussian, Inc. or will provide
 assistance to any competitor of Gaussian, Inc.  The licensee
 of this program is prohibited from giving any competitor of
 Gaussian, Inc. access to this program.  By using this program,
 the user acknowledges that Gaussian, Inc. is engaged in the
 business of creating and licensing software in the field of
 computational chemistry and represents and warrants to the
 licensee that it is not a competitor of Gaussian, Inc. and that
 it will not use this program in any manner prohibited above.
 ---------------------------------------------------------------
  

 Cite this work as:
 Gaussian 16, Revision B.01,
 M. J. Frisch, G. W. Trucks, H. B. Schlegel, G. E. Scuseria, 
 M. A. Robb, J. R. Cheeseman, G. Scalmani, V. Barone, 
 G. A. Petersson, H. Nakatsuji, X. Li, M. Caricato, A. V. Marenich, 
 J. Bloino, B. G. Janesko, R. Gomperts, B. Mennucci, H. P. Hratchian, 
 J. V. Ortiz, A. F. Izmaylov, J. L. Sonnenberg, D. Williams-Young, 
 F. Ding, F. Lipparini, F. Egidi, J. Goings, B. Peng, A. Petrone, 
 T. Henderson, D. Ranasinghe, V. G. Zakrzewski, J. Gao, N. Rega, 
 G. Zheng, W. Liang, M. Hada, M. Ehara, K. Toyota, R. Fukuda, 
 J. Hasegawa, M. Ishida, T. Nakajima, Y. Honda, O. Kitao, H. Nakai, 
 T. Vreven, K. Throssell, J. A. Montgomery, Jr., J. E. Peralta, 
 F. Ogliaro, M. J. Bearpark, J. J. Heyd, E. N. Brothers, K. N. Kudin, 
 V. N. Staroverov, T. A. Keith, R. Kobayashi, J. Normand, 
 K. Raghavachari, A. P. Rendell, J. C. Burant, S. S. Iyengar, 
 J. Tomasi, M. Cossi, J. M. Millam, M. Klene, C. Adamo, R. Cammi, 
 J. W. Ochterski, R. L. Martin, K. Morokuma, O. Farkas, 
 J. B. Foresman, and D. J. Fox, Gaussian, Inc., Wallingford CT, 2016.
 
 ******************************************
 Gaussian 16:  ES64L-G16RevB.01 20-Dec-2017
                29-Nov-2023 
 ******************************************
 %nproc=15
 Will use up to   15 processors via shared memory.
 -------------------------
 #P B3LYP/6-311+g(d) force
 -------------------------
 1/10=7,30=1,38=1/1,3;
 2/12=2,17=6,18=5,40=1/2;
 3/5=4,6=6,7=11,11=2,25=1,30=1,71=1,74=-5/1,2,3;
 4//1;
 5/5=2,38=5/2;
 6/7=2,8=2,9=2,10=2,28=1/1;
 7/29=1/1,2,3,16;
 1/10=7,30=1/3;
 99//99;
 Leave Link    1 at Wed Nov 29 16:37:15 2023, MaxMem=           0 cpu:               0.3 elap:               0.0
 (Enter /home/sekinelabo/g16/l101.exe)
 -----
 DPGEN
 -----
 Symbolic Z-matrix:
 Charge =  0 Multiplicity = 2
 Na                    14.4261   15.6687   15.0899 
 Na                    17.2259   13.2541   15.8829 
 Na                    16.8142   14.837    12.695 
 Na                    14.8356   18.1165   17.0553 
 Na                    14.3476   12.7148   14.2306 
 Na                    12.3614   15.614    17.6472 
 Na                    17.4146   17.2204   14.8247 
 
 ITRead=  0  0  0  0  0  0  0
 MicOpt= -1 -1 -1 -1 -1 -1 -1
 NAtoms=      7 NQM=        7 NQMF=       0 NMMI=      0 NMMIF=      0
                NMic=       0 NMicF=      0.
                    Isotopes and Nuclear Properties:
 (Nuclear quadrupole moments (NQMom) in fm**2, nuclear magnetic moments (NMagM)
  in nuclear magnetons)

  Atom         1           2           3           4           5           6           7
 IAtWgt=          23          23          23          23          23          23          23
 AtmWgt=  22.9897697  22.9897697  22.9897697  22.9897697  22.9897697  22.9897697  22.9897697
 NucSpn=           3           3           3           3           3           3           3
 AtZEff=  -0.0000000  -0.0000000  -0.0000000  -0.0000000  -0.0000000  -0.0000000  -0.0000000
 NQMom=   10.4000000  10.4000000  10.4000000  10.4000000  10.4000000  10.4000000  10.4000000
 NMagM=    2.2175200   2.2175200   2.2175200   2.2175200   2.2175200   2.2175200   2.2175200
 AtZNuc=  11.0000000  11.0000000  11.0000000  11.0000000  11.0000000  11.0000000  11.0000000
 Leave Link  101 at Wed Nov 29 16:37:15 2023, MaxMem=  1879048192 cpu:               2.5 elap:               0.2
 (Enter /home/sekinelabo/g16/l103.exe)

 GradGradGradGradGradGradGradGradGradGradGradGradGradGradGradGradGradGrad
 Berny optimization.
 Initialization pass.
 Trust Radius=3.00D-01 FncErr=1.00D-07 GrdErr=1.00D-07 EigMax=2.50D+02 EigMin=1.00D-04
 Number of steps in this run=      2 maximum allowed number of steps=      2.
 GradGradGradGradGradGradGradGradGradGradGradGradGradGradGradGradGradGrad

 Leave Link  103 at Wed Nov 29 16:37:15 2023, MaxMem=  1879048192 cpu:               0.2 elap:               0.0
 (Enter /home/sekinelabo/g16/l202.exe)
                          Input orientation:                          
 ---------------------------------------------------------------------
 Center     Atomic      Atomic             Coordinates (Angstroms)
 Number     Number       Type             X           Y           Z
 ---------------------------------------------------------------------
      1         11           0       14.426100   15.668700   15.089900
      2         11           0       17.225900   13.254100   15.882900
      3         11           0       16.814200   14.837000   12.695000
      4         11           0       14.835600   18.116500   17.055300
      5         11           0       14.347600   12.714800   14.230600
      6         11           0       12.361400   15.614000   17.647200
      7         11           0       17.414600   17.220400   14.824700
 ---------------------------------------------------------------------
                    Distance matrix (angstroms):
                    1          2          3          4          5
     1  Na   0.000000
     2  Na   3.781273   0.000000
     3  Na   3.482857   3.582984   0.000000
     4  Na   3.165788   5.543554   5.803636   0.000000
     5  Na   3.077350   3.362373   3.598043   6.115181   0.000000
     6  Na   3.287212   5.687288   6.704882   3.568546   4.901378
     7  Na   3.377756   4.109371   3.252184   3.525594   5.482689
                    6          7
     6  Na   0.000000
     7  Na   6.006818   0.000000
 Stoichiometry    Na7(2)
 Framework group  C1[X(Na7)]
 Deg. of freedom    15
 Full point group                 C1      NOp   1
 Largest Abelian subgroup         C1      NOp   1
 Largest concise Abelian subgroup C1      NOp   1
                         Standard orientation:                         
 ---------------------------------------------------------------------
 Center     Atomic      Atomic             Coordinates (Angstroms)
 Number     Number       Type             X           Y           Z
 ---------------------------------------------------------------------
      1         11           0       -0.539889   -0.281243   -0.803863
      2         11           0        1.834434   -0.560399    2.125759
      3         11           0        2.784585    0.718771   -1.083402
      4         11           0       -2.800800    1.730169    0.126036
      5         11           0        1.478524   -2.588292   -0.532535
      6         11           0       -3.321364   -1.799756    0.069794
      7         11           0        0.564510    2.780750    0.098212
 ---------------------------------------------------------------------
 Rotational constants (GHZ):           0.7787852           0.5573164           0.4043524
 Leave Link  202 at Wed Nov 29 16:37:15 2023, MaxMem=  1879048192 cpu:               0.0 elap:               0.0
 (Enter /home/sekinelabo/g16/l301.exe)
 Standard basis: 6-311+G(d) (5D, 7F)
 Ernie: Thresh=  0.10000D-02 Tol=  0.10000D-05 Strict=F.
 There are   217 symmetry adapted cartesian basis functions of A   symmetry.
 There are   210 symmetry adapted basis functions of A   symmetry.
   210 basis functions,   350 primitive gaussians,   217 cartesian basis functions
    39 alpha electrons       38 beta electrons
       nuclear repulsion energy       330.1347809305 Hartrees.
 IExCor=  402 DFT=T Ex+Corr=B3LYP ExCW=0 ScaHFX=  0.200000
 ScaDFX=  0.800000  0.720000  1.000000  0.810000 ScalE2=  1.000000  1.000000
 IRadAn=      5 IRanWt=     -1 IRanGd=            0 ICorTp=0 IEmpDi=  4
 NAtoms=    7 NActive=    7 NUniq=    7 SFac= 1.00D+00 NAtFMM=   60 NAOKFM=F Big=F
 Integral buffers will be    131072 words long.
 Raffenetti 2 integral format.
 Two-electron integral symmetry is turned on.
 Leave Link  301 at Wed Nov 29 16:37:15 2023, MaxMem=  1879048192 cpu:               0.5 elap:               0.0
 (Enter /home/sekinelabo/g16/l302.exe)
 NPDir=0 NMtPBC=     1 NCelOv=     1 NCel=       1 NClECP=     1 NCelD=      1
         NCelK=      1 NCelE2=     1 NClLst=     1 CellRange=     0.0.
 One-electron integrals computed using PRISM.
 One-electron integral symmetry used in STVInt
 NBasis=   210 RedAO= T EigKep=  5.49D-06  NBF=   210
 NBsUse=   210 1.00D-06 EigRej= -1.00D+00 NBFU=   210
 Precomputing XC quadrature grid using
 IXCGrd= 4 IRadAn=           5 IRanWt=          -1 IRanGd=           0 AccXCQ= 0.00D+00.
 Generated NRdTot=       0 NPtTot=           0 NUsed=           0 NTot=          32
 NSgBfM=   211   211   211   211   211 MxSgAt=     7 MxSgA2=     7.
 Leave Link  302 at Wed Nov 29 16:37:15 2023, MaxMem=  1879048192 cpu:               2.0 elap:               0.1
 (Enter /home/sekinelabo/g16/l303.exe)
 DipDrv:  MaxL=1.
 Leave Link  303 at Wed Nov 29 16:37:15 2023, MaxMem=  1879048192 cpu:               0.5 elap:               0.0
 (Enter /home/sekinelabo/g16/l401.exe)
 ExpMin= 7.60D-03 ExpMax= 3.62D+04 ExpMxC= 1.21D+03 IAcc=3 IRadAn=         5 AccDes= 0.00D+00
 Harris functional with IExCor=  402 and IRadAn=       5 diagonalized for initial guess.
 HarFok:  IExCor=  402 AccDes= 0.00D+00 IRadAn=         5 IDoV= 1 UseB2=F ITyADJ=14
 ICtDFT=  3500011 ScaDFX=  1.000000  1.000000  1.000000  1.000000
 FoFCou: FMM=F IPFlag=           0 FMFlag=      100000 FMFlg1=           0
         NFxFlg=           0 DoJE=T BraDBF=F KetDBF=T FulRan=T
         wScrn=  0.000000 ICntrl=       500 IOpCl=  0 I1Cent=   200000004 NGrid=           0
         NMat0=    1 NMatS0=      1 NMatT0=    0 NMatD0=    1 NMtDS0=    0 NMtDT0=    0
 Petite list used in FoFCou.
 Harris En= -1135.89708210075    
 JPrj=0 DoOrth=F DoCkMO=F.
 Initial guess <Sx>= 0.0000 <Sy>= 0.0000 <Sz>= 0.5000 <S**2>= 0.7500 S= 0.5000
 Leave Link  401 at Wed Nov 29 16:37:16 2023, MaxMem=  1879048192 cpu:               4.4 elap:               0.3
 (Enter /home/sekinelabo/g16/l502.exe)
 Keep R1 and R2 ints in memory in canonical form, NReq=506573335.
 FoFCou: FMM=F IPFlag=           0 FMFlag=           0 FMFlg1=           0
         NFxFlg=           0 DoJE=F BraDBF=F KetDBF=F FulRan=T
         wScrn=  0.000000 ICntrl=       600 IOpCl=  0 I1Cent=           0 NGrid=           0
         NMat0=    1 NMatS0=  22155 NMatT0=    0 NMatD0=    1 NMtDS0=    0 NMtDT0=    0
 Symmetry not used in FoFCou.
 Two-electron integral symmetry not used.
 UHF open shell SCF:
 Using DIIS extrapolation, IDIIS=  1040.
 NGot=  1879048192 LenX=  1388082565 LenY=  1388035035
 Requested convergence on RMS density matrix=1.00D-08 within 128 cycles.
 Requested convergence on MAX density matrix=1.00D-06.
 Requested convergence on             energy=1.00D-06.
 No special actions if energy rises.

 Cycle   1  Pass 1  IDiag  1:
 E= -1136.08850210487    
 DIIS: error= 1.30D-02 at cycle   1 NSaved=   1.
 NSaved= 1 IEnMin= 1 EnMin= -1136.08850210487     IErMin= 1 ErrMin= 1.30D-02
 ErrMax= 1.30D-02  0.00D+00 EMaxC= 1.00D-01 BMatC= 1.93D-01 BMatP= 1.93D-01
 IDIUse=3 WtCom= 8.70D-01 WtEn= 1.30D-01
 Coeff-Com:  0.100D+01
 Coeff-En:   0.100D+01
 Coeff:      0.100D+01
 Gap=     0.025 Goal=   None    Shift=    0.000
 Gap=     0.056 Goal=   None    Shift=    0.000
 GapD=    0.025 DampG=0.250 DampE=0.500 DampFc=0.2500 IDamp=-1.
 Damping current iteration by 2.50D-01
 RMSDP=4.89D-02 MaxDP=4.75D+00              OVMax= 2.54D-01

 Cycle   2  Pass 1  IDiag  1:
 E= -1136.10190088548     Delta-E=       -0.013398780605 Rises=F Damp=T
 DIIS: error= 9.16D-03 at cycle   2 NSaved=   2.
 NSaved= 2 IEnMin= 2 EnMin= -1136.10190088548     IErMin= 2 ErrMin= 9.16D-03
 ErrMax= 9.16D-03  0.00D+00 EMaxC= 1.00D-01 BMatC= 7.30D-02 BMatP= 1.93D-01
 IDIUse=3 WtCom= 9.08D-01 WtEn= 9.16D-02
 Coeff-Com: -0.125D+01 0.225D+01
 Coeff-En:   0.000D+00 0.100D+01
 Coeff:     -0.113D+01 0.213D+01
 Gap=     0.041 Goal=   None    Shift=    0.000
 Gap=     0.059 Goal=   None    Shift=    0.000
 RMSDP=1.82D-02 MaxDP=2.08D+00 DE=-1.34D-02 OVMax= 1.99D-01

 Cycle   3  Pass 1  IDiag  1:
 E= -1136.12281390241     Delta-E=       -0.020913016928 Rises=F Damp=F
 DIIS: error= 2.78D-03 at cycle   3 NSaved=   3.
 NSaved= 3 IEnMin= 3 EnMin= -1136.12281390241     IErMin= 3 ErrMin= 2.78D-03
 ErrMax= 2.78D-03  0.00D+00 EMaxC= 1.00D-01 BMatC= 4.22D-03 BMatP= 7.30D-02
 IDIUse=3 WtCom= 9.72D-01 WtEn= 2.78D-02
 Coeff-Com: -0.275D+00 0.494D+00 0.781D+00
 Coeff-En:   0.000D+00 0.000D+00 0.100D+01
 Coeff:     -0.267D+00 0.480D+00 0.787D+00
 Gap=     0.033 Goal=   None    Shift=    0.000
 Gap=     0.058 Goal=   None    Shift=    0.000
 RMSDP=9.96D-03 MaxDP=7.45D-01 DE=-2.09D-02 OVMax= 1.35D-01

 Cycle   4  Pass 1  IDiag  1:
 E= -1136.12083818219     Delta-E=        0.001975720221 Rises=F Damp=F
 DIIS: error= 3.96D-03 at cycle   4 NSaved=   4.
 NSaved= 4 IEnMin= 3 EnMin= -1136.12281390241     IErMin= 3 ErrMin= 2.78D-03
 ErrMax= 3.96D-03  0.00D+00 EMaxC= 1.00D-01 BMatC= 5.17D-03 BMatP= 4.22D-03
 IDIUse=3 WtCom= 1.37D-01 WtEn= 8.63D-01
 Coeff-Com: -0.459D-02 0.118D-01 0.524D+00 0.469D+00
 Coeff-En:   0.000D+00 0.000D+00 0.579D+00 0.421D+00
 Coeff:     -0.629D-03 0.162D-02 0.572D+00 0.428D+00
 Gap=     0.037 Goal=   None    Shift=    0.000
 Gap=     0.055 Goal=   None    Shift=    0.000
 RMSDP=2.93D-03 MaxDP=1.54D-01 DE= 1.98D-03 OVMax= 8.72D-02

 Cycle   5  Pass 1  IDiag  1:
 E= -1136.12656286872     Delta-E=       -0.005724686536 Rises=F Damp=F
 DIIS: error= 8.53D-04 at cycle   5 NSaved=   5.
 NSaved= 5 IEnMin= 5 EnMin= -1136.12656286872     IErMin= 5 ErrMin= 8.53D-04
 ErrMax= 8.53D-04  0.00D+00 EMaxC= 1.00D-01 BMatC= 2.90D-04 BMatP= 4.22D-03
 IDIUse=3 WtCom= 9.91D-01 WtEn= 8.53D-03
 Coeff-Com:  0.379D-02-0.601D-02 0.319D+00 0.254D+00 0.430D+00
 Coeff-En:   0.000D+00 0.000D+00 0.000D+00 0.000D+00 0.100D+01
 Coeff:      0.376D-02-0.596D-02 0.316D+00 0.252D+00 0.434D+00
 Gap=     0.037 Goal=   None    Shift=    0.000
 Gap=     0.056 Goal=   None    Shift=    0.000
 RMSDP=1.59D-03 MaxDP=1.53D-01 DE=-5.72D-03 OVMax= 1.64D-02

 Cycle   6  Pass 1  IDiag  1:
 E= -1136.12681715377     Delta-E=       -0.000254285046 Rises=F Damp=F
 DIIS: error= 1.27D-04 at cycle   6 NSaved=   6.
 NSaved= 6 IEnMin= 6 EnMin= -1136.12681715377     IErMin= 6 ErrMin= 1.27D-04
 ErrMax= 1.27D-04  0.00D+00 EMaxC= 1.00D-01 BMatC= 5.20D-06 BMatP= 2.90D-04
 IDIUse=3 WtCom= 9.99D-01 WtEn= 1.27D-03
 Coeff-Com: -0.339D-02 0.412D-02-0.653D-02-0.159D-01 0.932D-01 0.928D+00
 Coeff-En:   0.000D+00 0.000D+00 0.000D+00 0.000D+00 0.000D+00 0.100D+01
 Coeff:     -0.338D-02 0.411D-02-0.652D-02-0.158D-01 0.930D-01 0.929D+00
 Gap=     0.038 Goal=   None    Shift=    0.000
 Gap=     0.056 Goal=   None    Shift=    0.000
 RMSDP=3.21D-04 MaxDP=3.01D-02 DE=-2.54D-04 OVMax= 5.08D-03

 Cycle   7  Pass 1  IDiag  1:
 E= -1136.12682422973     Delta-E=       -0.000007075959 Rises=F Damp=F
 DIIS: error= 8.42D-05 at cycle   7 NSaved=   7.
 NSaved= 7 IEnMin= 7 EnMin= -1136.12682422973     IErMin= 7 ErrMin= 8.42D-05
 ErrMax= 8.42D-05  0.00D+00 EMaxC= 1.00D-01 BMatC= 1.64D-06 BMatP= 5.20D-06
 IDIUse=1 WtCom= 1.00D+00 WtEn= 0.00D+00
 Coeff-Com: -0.197D-02 0.245D-02-0.262D-01-0.271D-01 0.232D-01 0.514D+00
 Coeff-Com:  0.515D+00
 Coeff:     -0.197D-02 0.245D-02-0.262D-01-0.271D-01 0.232D-01 0.514D+00
 Coeff:      0.515D+00
 Gap=     0.038 Goal=   None    Shift=    0.000
 Gap=     0.056 Goal=   None    Shift=    0.000
 RMSDP=1.07D-04 MaxDP=5.90D-03 DE=-7.08D-06 OVMax= 2.36D-03

 Cycle   8  Pass 1  IDiag  1:
 E= -1136.12682640999     Delta-E=       -0.000002180263 Rises=F Damp=F
 DIIS: error= 4.20D-05 at cycle   8 NSaved=   8.
 NSaved= 8 IEnMin= 8 EnMin= -1136.12682640999     IErMin= 8 ErrMin= 4.20D-05
 ErrMax= 4.20D-05  0.00D+00 EMaxC= 1.00D-01 BMatC= 2.38D-07 BMatP= 1.64D-06
 IDIUse=1 WtCom= 1.00D+00 WtEn= 0.00D+00
 Coeff-Com:  0.543D-05-0.263D-04-0.108D-01-0.939D-02-0.662D-02 0.579D-01
 Coeff-Com:  0.240D+00 0.729D+00
 Coeff:      0.543D-05-0.263D-04-0.108D-01-0.939D-02-0.662D-02 0.579D-01
 Coeff:      0.240D+00 0.729D+00
 Gap=     0.038 Goal=   None    Shift=    0.000
 Gap=     0.056 Goal=   None    Shift=    0.000
 RMSDP=4.92D-05 MaxDP=3.28D-03 DE=-2.18D-06 OVMax= 1.57D-03

 Cycle   9  Pass 1  IDiag  1:
 E= -1136.12682710317     Delta-E=       -0.000000693176 Rises=F Damp=F
 DIIS: error= 2.80D-05 at cycle   9 NSaved=   9.
 NSaved= 9 IEnMin= 9 EnMin= -1136.12682710317     IErMin= 9 ErrMin= 2.80D-05
 ErrMax= 2.80D-05  0.00D+00 EMaxC= 1.00D-01 BMatC= 1.07D-07 BMatP= 2.38D-07
 IDIUse=1 WtCom= 1.00D+00 WtEn= 0.00D+00
 Coeff-Com:  0.699D-03-0.889D-03 0.705D-03 0.217D-02-0.125D-01-0.122D+00
 Coeff-Com: -0.152D-01 0.448D+00 0.699D+00
 Coeff:      0.699D-03-0.889D-03 0.705D-03 0.217D-02-0.125D-01-0.122D+00
 Coeff:     -0.152D-01 0.448D+00 0.699D+00
 Gap=     0.038 Goal=   None    Shift=    0.000
 Gap=     0.056 Goal=   None    Shift=    0.000
 RMSDP=3.30D-05 MaxDP=2.24D-03 DE=-6.93D-07 OVMax= 1.40D-03

 Cycle  10  Pass 1  IDiag  1:
 E= -1136.12682754927     Delta-E=       -0.000000446109 Rises=F Damp=F
 DIIS: error= 1.40D-05 at cycle  10 NSaved=  10.
 NSaved=10 IEnMin=10 EnMin= -1136.12682754927     IErMin=10 ErrMin= 1.40D-05
 ErrMax= 1.40D-05  0.00D+00 EMaxC= 1.00D-01 BMatC= 2.46D-08 BMatP= 1.07D-07
 IDIUse=1 WtCom= 1.00D+00 WtEn= 0.00D+00
 Coeff-Com: -0.148D-05 0.141D-04 0.255D-02 0.209D-02 0.135D-02-0.643D-02
 Coeff-Com: -0.668D-01-0.229D+00 0.364D-01 0.126D+01
 Coeff:     -0.148D-05 0.141D-04 0.255D-02 0.209D-02 0.135D-02-0.643D-02
 Coeff:     -0.668D-01-0.229D+00 0.364D-01 0.126D+01
 Gap=     0.038 Goal=   None    Shift=    0.000
 Gap=     0.056 Goal=   None    Shift=    0.000
 RMSDP=3.20D-05 MaxDP=3.58D-03 DE=-4.46D-07 OVMax= 1.47D-03

 Cycle  11  Pass 1  IDiag  1:
 E= -1136.12682784694     Delta-E=       -0.000000297664 Rises=F Damp=F
 DIIS: error= 9.43D-06 at cycle  11 NSaved=  11.
 NSaved=11 IEnMin=11 EnMin= -1136.12682784694     IErMin=11 ErrMin= 9.43D-06
 ErrMax= 9.43D-06  0.00D+00 EMaxC= 1.00D-01 BMatC= 9.74D-09 BMatP= 2.46D-08
 IDIUse=1 WtCom= 1.00D+00 WtEn= 0.00D+00
 Coeff-Com: -0.320D-03 0.412D-03 0.910D-03-0.328D-03 0.681D-02 0.451D-01
 Coeff-Com:  0.386D-02-0.213D+00-0.344D+00 0.201D-01 0.148D+01
 Coeff:     -0.320D-03 0.412D-03 0.910D-03-0.328D-03 0.681D-02 0.451D-01
 Coeff:      0.386D-02-0.213D+00-0.344D+00 0.201D-01 0.148D+01
 Gap=     0.038 Goal=   None    Shift=    0.000
 Gap=     0.056 Goal=   None    Shift=    0.000
 RMSDP=3.22D-05 MaxDP=3.02D-03 DE=-2.98D-07 OVMax= 1.49D-03

 Cycle  12  Pass 1  IDiag  1:
 E= -1136.12682801713     Delta-E=       -0.000000170189 Rises=F Damp=F
 DIIS: error= 2.93D-06 at cycle  12 NSaved=  12.
 NSaved=12 IEnMin=12 EnMin= -1136.12682801713     IErMin=12 ErrMin= 2.93D-06
 ErrMax= 2.93D-06  0.00D+00 EMaxC= 1.00D-01 BMatC= 1.93D-09 BMatP= 9.74D-09
 IDIUse=1 WtCom= 1.00D+00 WtEn= 0.00D+00
 Coeff-Com: -0.952D-04 0.119D-03-0.527D-03-0.582D-03 0.138D-02 0.136D-01
 Coeff-Com:  0.149D-01 0.163D-01-0.741D-01-0.307D+00 0.214D+00 0.112D+01
 Coeff:     -0.952D-04 0.119D-03-0.527D-03-0.582D-03 0.138D-02 0.136D-01
 Coeff:      0.149D-01 0.163D-01-0.741D-01-0.307D+00 0.214D+00 0.112D+01
 Gap=     0.038 Goal=   None    Shift=    0.000
 Gap=     0.056 Goal=   None    Shift=    0.000
 RMSDP=1.42D-05 MaxDP=1.11D-03 DE=-1.70D-07 OVMax= 6.42D-04

 Cycle  13  Pass 1  IDiag  1:
 E= -1136.12682804425     Delta-E=       -0.000000027127 Rises=F Damp=F
 DIIS: error= 8.19D-07 at cycle  13 NSaved=  13.
 NSaved=13 IEnMin=13 EnMin= -1136.12682804425     IErMin=13 ErrMin= 8.19D-07
 ErrMax= 8.19D-07  0.00D+00 EMaxC= 1.00D-01 BMatC= 3.78D-10 BMatP= 1.93D-09
 IDIUse=1 WtCom= 1.00D+00 WtEn= 0.00D+00
 Coeff-Com:  0.500D-04-0.670D-04-0.363D-03-0.726D-05-0.116D-02-0.741D-02
 Coeff-Com:  0.147D-02 0.513D-01 0.666D-01-0.578D-01-0.310D+00 0.199D+00
 Coeff-Com:  0.106D+01
 Coeff:      0.500D-04-0.670D-04-0.363D-03-0.726D-05-0.116D-02-0.741D-02
 Coeff:      0.147D-02 0.513D-01 0.666D-01-0.578D-01-0.310D+00 0.199D+00
 Coeff:      0.106D+01
 Gap=     0.038 Goal=   None    Shift=    0.000
 Gap=     0.056 Goal=   None    Shift=    0.000
 RMSDP=5.69D-06 MaxDP=4.79D-04 DE=-2.71D-08 OVMax= 2.20D-04

 Cycle  14  Pass 1  IDiag  1:
 E= -1136.12682804750     Delta-E=       -0.000000003246 Rises=F Damp=F
 DIIS: error= 3.32D-07 at cycle  14 NSaved=  14.
 NSaved=14 IEnMin=14 EnMin= -1136.12682804750     IErMin=14 ErrMin= 3.32D-07
 ErrMax= 3.32D-07  0.00D+00 EMaxC= 1.00D-01 BMatC= 4.49D-11 BMatP= 3.78D-10
 IDIUse=1 WtCom= 1.00D+00 WtEn= 0.00D+00
 Coeff-Com:  0.914D-05-0.109D-04 0.951D-04 0.708D-04-0.186D-03-0.113D-02
 Coeff-Com: -0.175D-02-0.111D-01-0.101D-02 0.546D-01 0.260D-01-0.220D+00
 Coeff-Com: -0.122D+00 0.128D+01
 Coeff:      0.914D-05-0.109D-04 0.951D-04 0.708D-04-0.186D-03-0.113D-02
 Coeff:     -0.175D-02-0.111D-01-0.101D-02 0.546D-01 0.260D-01-0.220D+00
 Coeff:     -0.122D+00 0.128D+01
 Gap=     0.038 Goal=   None    Shift=    0.000
 Gap=     0.056 Goal=   None    Shift=    0.000
 RMSDP=1.82D-06 MaxDP=8.17D-05 DE=-3.25D-09 OVMax= 4.80D-05

 Cycle  15  Pass 1  IDiag  1:
 E= -1136.12682804784     Delta-E=       -0.000000000342 Rises=F Damp=F
 DIIS: error= 1.56D-07 at cycle  15 NSaved=  15.
 NSaved=15 IEnMin=15 EnMin= -1136.12682804784     IErMin=15 ErrMin= 1.56D-07
 ErrMax= 1.56D-07  0.00D+00 EMaxC= 1.00D-01 BMatC= 7.57D-12 BMatP= 4.49D-11
 IDIUse=1 WtCom= 1.00D+00 WtEn= 0.00D+00
 Coeff-Com: -0.605D-05 0.813D-05 0.841D-04 0.199D-04 0.186D-03 0.773D-03
 Coeff-Com: -0.513D-03-0.656D-02-0.857D-02 0.666D-02 0.416D-01-0.119D-01
 Coeff-Com: -0.181D+00 0.137D-01 0.115D+01
 Coeff:     -0.605D-05 0.813D-05 0.841D-04 0.199D-04 0.186D-03 0.773D-03
 Coeff:     -0.513D-03-0.656D-02-0.857D-02 0.666D-02 0.416D-01-0.119D-01
 Coeff:     -0.181D+00 0.137D-01 0.115D+01
 Gap=     0.038 Goal=   None    Shift=    0.000
 Gap=     0.056 Goal=   None    Shift=    0.000
 RMSDP=6.91D-07 MaxDP=3.62D-05 DE=-3.42D-10 OVMax= 1.75D-05

 Cycle  16  Pass 1  IDiag  1:
 E= -1136.12682804790     Delta-E=       -0.000000000061 Rises=F Damp=F
 DIIS: error= 6.51D-08 at cycle  16 NSaved=  16.
 NSaved=16 IEnMin=16 EnMin= -1136.12682804790     IErMin=16 ErrMin= 6.51D-08
 ErrMax= 6.51D-08  0.00D+00 EMaxC= 1.00D-01 BMatC= 1.29D-12 BMatP= 7.57D-12
 IDIUse=1 WtCom= 1.00D+00 WtEn= 0.00D+00
 Coeff-Com: -0.490D-05 0.629D-05 0.207D-05-0.127D-04 0.102D-03 0.555D-03
 Coeff-Com:  0.329D-03-0.460D-03-0.344D-02-0.590D-02 0.105D-01 0.233D-01
 Coeff-Com: -0.182D-01-0.181D+00 0.137D+00 0.104D+01
 Coeff:     -0.490D-05 0.629D-05 0.207D-05-0.127D-04 0.102D-03 0.555D-03
 Coeff:      0.329D-03-0.460D-03-0.344D-02-0.590D-02 0.105D-01 0.233D-01
 Coeff:     -0.182D-01-0.181D+00 0.137D+00 0.104D+01
 Gap=     0.038 Goal=   None    Shift=    0.000
 Gap=     0.056 Goal=   None    Shift=    0.000
 RMSDP=3.18D-07 MaxDP=2.32D-05 DE=-6.14D-11 OVMax= 8.67D-06

 Cycle  17  Pass 1  IDiag  1:
 E= -1136.12682804791     Delta-E=       -0.000000000009 Rises=F Damp=F
 DIIS: error= 2.60D-08 at cycle  17 NSaved=  17.
 NSaved=17 IEnMin=17 EnMin= -1136.12682804791     IErMin=17 ErrMin= 2.60D-08
 ErrMax= 2.60D-08  0.00D+00 EMaxC= 1.00D-01 BMatC= 2.83D-13 BMatP= 1.29D-12
 IDIUse=1 WtCom= 1.00D+00 WtEn= 0.00D+00
 Coeff-Com:  0.751D-06-0.104D-05-0.133D-04-0.214D-05-0.251D-04-0.951D-04
 Coeff-Com:  0.400D-04 0.114D-02 0.115D-02-0.119D-02-0.699D-02 0.461D-02
 Coeff-Com:  0.334D-01-0.313D-01-0.204D+00 0.224D+00 0.980D+00
 Coeff:      0.751D-06-0.104D-05-0.133D-04-0.214D-05-0.251D-04-0.951D-04
 Coeff:      0.400D-04 0.114D-02 0.115D-02-0.119D-02-0.699D-02 0.461D-02
 Coeff:      0.334D-01-0.313D-01-0.204D+00 0.224D+00 0.980D+00
 Gap=     0.038 Goal=   None    Shift=    0.000
 Gap=     0.056 Goal=   None    Shift=    0.000
 RMSDP=1.24D-07 MaxDP=8.62D-06 DE=-8.64D-12 OVMax= 4.22D-06

 Cycle  18  Pass 1  IDiag  1:
 E= -1136.12682804790     Delta-E=        0.000000000010 Rises=F Damp=F
 DIIS: error= 1.32D-08 at cycle  18 NSaved=  18.
 NSaved=18 IEnMin=17 EnMin= -1136.12682804791     IErMin=18 ErrMin= 1.32D-08
 ErrMax= 1.32D-08  0.00D+00 EMaxC= 1.00D-01 BMatC= 4.43D-14 BMatP= 2.83D-13
 IDIUse=1 WtCom= 1.00D+00 WtEn= 0.00D+00
 Coeff-Com:  0.100D-05-0.130D-05-0.440D-06 0.196D-05-0.170D-04-0.104D-03
 Coeff-Com: -0.918D-04 0.513D-04 0.567D-03 0.133D-02-0.183D-02-0.474D-02
 Coeff-Com:  0.338D-02 0.355D-01-0.398D-01-0.165D+00 0.691D-01 0.110D+01
 Coeff:      0.100D-05-0.130D-05-0.440D-06 0.196D-05-0.170D-04-0.104D-03
 Coeff:     -0.918D-04 0.513D-04 0.567D-03 0.133D-02-0.183D-02-0.474D-02
 Coeff:      0.338D-02 0.355D-01-0.398D-01-0.165D+00 0.691D-01 0.110D+01
 Gap=     0.038 Goal=   None    Shift=    0.000
 Gap=     0.056 Goal=   None    Shift=    0.000
 RMSDP=4.04D-08 MaxDP=2.39D-06 DE= 1.00D-11 OVMax= 2.21D-06

 Cycle  19  Pass 1  IDiag  1:
 E= -1136.12682804791     Delta-E=       -0.000000000010 Rises=F Damp=F
 DIIS: error= 7.43D-09 at cycle  19 NSaved=  19.
 NSaved=19 IEnMin=19 EnMin= -1136.12682804791     IErMin=19 ErrMin= 7.43D-09
 ErrMax= 7.43D-09  0.00D+00 EMaxC= 1.00D-01 BMatC= 9.25D-15 BMatP= 4.43D-14
 IDIUse=1 WtCom= 1.00D+00 WtEn= 0.00D+00
 Coeff-Com: -0.200D-06 0.276D-06 0.190D-05 0.454D-06 0.293D-05 0.172D-04
 Coeff-Com: -0.101D-04-0.175D-03-0.191D-03 0.265D-03 0.113D-02-0.112D-02
 Coeff-Com: -0.555D-02 0.728D-02 0.346D-01-0.533D-01-0.172D+00 0.105D+00
 Coeff-Com:  0.108D+01
 Coeff:     -0.200D-06 0.276D-06 0.190D-05 0.454D-06 0.293D-05 0.172D-04
 Coeff:     -0.101D-04-0.175D-03-0.191D-03 0.265D-03 0.113D-02-0.112D-02
 Coeff:     -0.555D-02 0.728D-02 0.346D-01-0.533D-01-0.172D+00 0.105D+00
 Coeff:      0.108D+01
 Gap=     0.038 Goal=   None    Shift=    0.000
 Gap=     0.056 Goal=   None    Shift=    0.000
 RMSDP=1.89D-08 MaxDP=1.23D-06 DE=-1.05D-11 OVMax= 1.17D-06

 Cycle  20  Pass 1  IDiag  1:
 E= -1136.12682804790     Delta-E=        0.000000000013 Rises=F Damp=F
 DIIS: error= 3.84D-09 at cycle  20 NSaved=  20.
 NSaved=20 IEnMin=19 EnMin= -1136.12682804791     IErMin=20 ErrMin= 3.84D-09
 ErrMax= 3.84D-09  0.00D+00 EMaxC= 1.00D-01 BMatC= 1.84D-15 BMatP= 9.25D-15
 IDIUse=1 WtCom= 1.00D+00 WtEn= 0.00D+00
 Large coefficients: NSaved= 20 BigCof=    0.00 CofMax=   10.00 Det=-2.39D-15
 Inversion failed.  Reducing to 19 matrices.
 Large coefficients: NSaved= 19 BigCof=    0.00 CofMax=   10.00 Det=-2.49D-15
 Inversion failed.  Reducing to 18 matrices.
 Large coefficients: NSaved= 18 BigCof=    0.00 CofMax=   10.00 Det=-2.49D-15
 Inversion failed.  Reducing to 17 matrices.
 Large coefficients: NSaved= 17 BigCof=    0.00 CofMax=   10.00 Det=-2.52D-15
 Inversion failed.  Reducing to 16 matrices.
 Large coefficients: NSaved= 16 BigCof=    0.00 CofMax=   10.00 Det=-2.69D-15
 Inversion failed.  Reducing to 15 matrices.
 Coeff-Com: -0.533D-05 0.845D-05 0.362D-04-0.474D-05-0.711D-04-0.787D-04
 Coeff-Com:  0.461D-03-0.144D-03-0.393D-02 0.343D-02 0.271D-01-0.784D-02
 Coeff-Com: -0.187D+00-0.147D+00 0.132D+01
 Coeff:     -0.533D-05 0.845D-05 0.362D-04-0.474D-05-0.711D-04-0.787D-04
 Coeff:      0.461D-03-0.144D-03-0.393D-02 0.343D-02 0.271D-01-0.784D-02
 Coeff:     -0.187D+00-0.147D+00 0.132D+01
 Gap=     0.038 Goal=   None    Shift=    0.000
 Gap=     0.056 Goal=   None    Shift=    0.000
 RMSDP=1.34D-08 MaxDP=1.27D-06 DE= 1.27D-11 OVMax= 7.30D-07

 Cycle  21  Pass 1  IDiag  1:
 E= -1136.12682804791     Delta-E=       -0.000000000011 Rises=F Damp=F
 DIIS: error= 1.56D-09 at cycle  21 NSaved=  16.
 NSaved=16 IEnMin=14 EnMin= -1136.12682804791     IErMin=16 ErrMin= 1.56D-09
 ErrMax= 1.56D-09  0.00D+00 EMaxC= 1.00D-01 BMatC= 4.51D-16 BMatP= 1.84D-15
 IDIUse=1 WtCom= 1.00D+00 WtEn= 0.00D+00
 Large coefficients: NSaved= 16 BigCof=    0.00 CofMax=   10.00 Det=-4.59D-16
 Inversion failed.  Reducing to 15 matrices.
 Coeff-Com: -0.236D-06 0.942D-05 0.107D-04-0.355D-04-0.774D-04 0.812D-04
 Coeff-Com:  0.955D-03-0.141D-02-0.672D-02 0.117D-01 0.393D-01-0.496D-01
 Coeff-Com: -0.215D+00 0.824D-01 0.114D+01
 Coeff:     -0.236D-06 0.942D-05 0.107D-04-0.355D-04-0.774D-04 0.812D-04
 Coeff:      0.955D-03-0.141D-02-0.672D-02 0.117D-01 0.393D-01-0.496D-01
 Coeff:     -0.215D+00 0.824D-01 0.114D+01
 Gap=     0.038 Goal=   None    Shift=    0.000
 Gap=     0.056 Goal=   None    Shift=    0.000
 RMSDP=7.23D-09 MaxDP=7.13D-07 DE=-1.14D-11 OVMax= 3.06D-07

 SCF Done:  E(UB3LYP) =  -1136.12682805     A.U. after   21 cycles
            NFock= 21  Conv=0.72D-08     -V/T= 2.0028
 <Sx>= 0.0000 <Sy>= 0.0000 <Sz>= 0.5000 <S**2>= 0.7611 S= 0.5055
 <L.S>= 0.000000000000E+00
 KE= 1.132939173150D+03 PE=-3.389684756013D+03 EE= 7.904839738840D+02
 Annihilation of the first spin contaminant:
 S**2 before annihilation     0.7611,   after     0.7501
 Leave Link  502 at Wed Nov 29 16:37:33 2023, MaxMem=  1879048192 cpu:             193.0 elap:              17.2
 (Enter /home/sekinelabo/g16/l601.exe)
 Copying SCF densities to generalized density rwf, IOpCl= 1 IROHF=0.

 **********************************************************************

            Population analysis using the SCF Density.

 **********************************************************************

 Orbital symmetries:
 Alpha Orbitals:
       Occupied  (A) (A) (A) (A) (A) (A) (A) (A) (A) (A) (A) (A)
                 (A) (A) (A) (A) (A) (A) (A) (A) (A) (A) (A) (A)
                 (A) (A) (A) (A) (A) (A) (A) (A) (A) (A) (A) (A)
                 (A) (A) (A)
       Virtual   (A) (A) (A) (A) (A) (A) (A) (A) (A) (A) (A) (A)
                 (A) (A) (A) (A) (A) (A) (A) (A) (A) (A) (A) (A)
                 (A) (A) (A) (A) (A) (A) (A) (A) (A) (A) (A) (A)
                 (A) (A) (A) (A) (A) (A) (A) (A) (A) (A) (A) (A)
                 (A) (A) (A) (A) (A) (A) (A) (A) (A) (A) (A) (A)
                 (A) (A) (A) (A) (A) (A) (A) (A) (A) (A) (A) (A)
                 (A) (A) (A) (A) (A) (A) (A) (A) (A) (A) (A) (A)
                 (A) (A) (A) (A) (A) (A) (A) (A) (A) (A) (A) (A)
                 (A) (A) (A) (A) (A) (A) (A) (A) (A) (A) (A) (A)
                 (A) (A) (A) (A) (A) (A) (A) (A) (A) (A) (A) (A)
                 (A) (A) (A) (A) (A) (A) (A) (A) (A) (A) (A) (A)
                 (A) (A) (A) (A) (A) (A) (A) (A) (A) (A) (A) (A)
                 (A) (A) (A) (A) (A) (A) (A) (A) (A) (A) (A) (A)
                 (A) (A) (A) (A) (A) (A) (A) (A) (A) (A) (A) (A)
                 (A) (A) (A)
 Beta  Orbitals:
       Occupied  (A) (A) (A) (A) (A) (A) (A) (A) (A) (A) (A) (A)
                 (A) (A) (A) (A) (A) (A) (A) (A) (A) (A) (A) (A)
                 (A) (A) (A) (A) (A) (A) (A) (A) (A) (A) (A) (A)
                 (A) (A)
       Virtual   (A) (A) (A) (A) (A) (A) (A) (A) (A) (A) (A) (A)
                 (A) (A) (A) (A) (A) (A) (A) (A) (A) (A) (A) (A)
                 (A) (A) (A) (A) (A) (A) (A) (A) (A) (A) (A) (A)
                 (A) (A) (A) (A) (A) (A) (A) (A) (A) (A) (A) (A)
                 (A) (A) (A) (A) (A) (A) (A) (A) (A) (A) (A) (A)
                 (A) (A) (A) (A) (A) (A) (A) (A) (A) (A) (A) (A)
                 (A) (A) (A) (A) (A) (A) (A) (A) (A) (A) (A) (A)
                 (A) (A) (A) (A) (A) (A) (A) (A) (A) (A) (A) (A)
                 (A) (A) (A) (A) (A) (A) (A) (A) (A) (A) (A) (A)
                 (A) (A) (A) (A) (A) (A) (A) (A) (A) (A) (A) (A)
                 (A) (A) (A) (A) (A) (A) (A) (A) (A) (A) (A) (A)
                 (A) (A) (A) (A) (A) (A) (A) (A) (A) (A) (A) (A)
                 (A) (A) (A) (A) (A) (A) (A) (A) (A) (A) (A) (A)
                 (A) (A) (A) (A) (A) (A) (A) (A) (A) (A) (A) (A)
                 (A) (A) (A) (A)
 The electronic state is 2-A.
 Alpha  occ. eigenvalues --  -38.44752 -38.44333 -38.44197 -38.43819 -38.43440
 Alpha  occ. eigenvalues --  -38.43046 -38.42909  -2.20535  -2.20166  -2.20075
 Alpha  occ. eigenvalues --   -2.19685  -2.19305  -2.18950  -2.18903  -1.14207
 Alpha  occ. eigenvalues --   -1.14200  -1.14172  -1.13872  -1.13833  -1.13771
 Alpha  occ. eigenvalues --   -1.13749  -1.13733  -1.13702  -1.13408  -1.13339
 Alpha  occ. eigenvalues --   -1.13304  -1.12954  -1.12927  -1.12922  -1.12654
 Alpha  occ. eigenvalues --   -1.12632  -1.12602  -1.12563  -1.12550  -1.12541
 Alpha  occ. eigenvalues --   -0.18228  -0.13763  -0.12189  -0.10209
 Alpha virt. eigenvalues --   -0.06450  -0.05558  -0.04491  -0.03240  -0.02442
 Alpha virt. eigenvalues --   -0.02170  -0.01908  -0.01312  -0.00858  -0.00454
 Alpha virt. eigenvalues --   -0.00118   0.00282   0.00609   0.00702   0.00766
 Alpha virt. eigenvalues --    0.00880   0.00937   0.01095   0.01213   0.01287
 Alpha virt. eigenvalues --    0.01481   0.01620   0.01673   0.01814   0.02082
 Alpha virt. eigenvalues --    0.02104   0.02256   0.02409   0.02511   0.02716
 Alpha virt. eigenvalues --    0.02871   0.02916   0.03011   0.03072   0.03211
 Alpha virt. eigenvalues --    0.03248   0.03350   0.03407   0.03484   0.03630
 Alpha virt. eigenvalues --    0.03750   0.03963   0.04325   0.04397   0.04746
 Alpha virt. eigenvalues --    0.04846   0.04973   0.05092   0.05540   0.06023
 Alpha virt. eigenvalues --    0.06280   0.06482   0.06837   0.07061   0.07143
 Alpha virt. eigenvalues --    0.07694   0.07865   0.08139   0.08352   0.08877
 Alpha virt. eigenvalues --    0.09263   0.09605   0.10068   0.10529   0.11038
 Alpha virt. eigenvalues --    0.11510   0.12087   0.12446   0.12748   0.13114
 Alpha virt. eigenvalues --    0.13327   0.14101   0.14173   0.14301   0.14681
 Alpha virt. eigenvalues --    0.14833   0.14991   0.16174   0.17751   0.18260
 Alpha virt. eigenvalues --    0.25871   0.26545   0.27259   0.28068   0.29149
 Alpha virt. eigenvalues --    0.29748   0.31289   0.31957   0.32636   0.33067
 Alpha virt. eigenvalues --    0.34198   0.34599   0.35572   0.37344   0.38664
 Alpha virt. eigenvalues --    0.39139   0.40128   0.40399   0.40892   0.41312
 Alpha virt. eigenvalues --    0.42210   0.42940   0.43763   0.43928   0.44594
 Alpha virt. eigenvalues --    0.44806   0.44955   0.45323   0.45562   0.45737
 Alpha virt. eigenvalues --    0.46264   0.46787   0.47060   0.47548   0.48023
 Alpha virt. eigenvalues --    0.48954   0.49723   0.50019   0.50850   0.51389
 Alpha virt. eigenvalues --    0.51623   0.52606   0.53964   0.54763   0.55260
 Alpha virt. eigenvalues --    0.56594   0.57454   0.58063   0.59716   0.60888
 Alpha virt. eigenvalues --    0.62134   0.63244   0.65584   0.67199   0.67614
 Alpha virt. eigenvalues --    0.75460   2.04871   2.09971   2.15424   2.19041
 Alpha virt. eigenvalues --    2.19276   2.21193   2.28851   4.42487   4.43410
 Alpha virt. eigenvalues --    4.44111   4.44425   4.44830   4.45305   4.45403
 Alpha virt. eigenvalues --    4.46111   4.46807   4.47358   4.47948   4.48306
 Alpha virt. eigenvalues --    4.49376   4.51248   4.52239   4.54135   4.55322
 Alpha virt. eigenvalues --    4.57166   4.58290   4.60313   4.68619  96.24538
 Alpha virt. eigenvalues --   96.31026  96.37519  96.41644  96.42022  96.44617
 Alpha virt. eigenvalues --   96.53843
  Beta  occ. eigenvalues --  -38.44758 -38.44332 -38.44160 -38.43806 -38.43337
  Beta  occ. eigenvalues --  -38.43042 -38.42884  -2.20547  -2.20165  -2.20011
  Beta  occ. eigenvalues --   -2.19665  -2.19113  -2.18908  -2.18899  -1.14212
  Beta  occ. eigenvalues --   -1.14207  -1.14181  -1.13871  -1.13828  -1.13775
  Beta  occ. eigenvalues --   -1.13707  -1.13663  -1.13660  -1.13396  -1.13300
  Beta  occ. eigenvalues --   -1.13285  -1.12822  -1.12801  -1.12788  -1.12630
  Beta  occ. eigenvalues --   -1.12603  -1.12563  -1.12548  -1.12535  -1.12526
  Beta  occ. eigenvalues --   -0.17623  -0.13544  -0.12000
  Beta virt. eigenvalues --   -0.06419  -0.06198  -0.05391  -0.04458  -0.02709
  Beta virt. eigenvalues --   -0.01971  -0.01786  -0.01272  -0.01076  -0.00817
  Beta virt. eigenvalues --   -0.00415   0.00181   0.00373   0.00689   0.00789
  Beta virt. eigenvalues --    0.00817   0.00913   0.01137   0.01183   0.01360
  Beta virt. eigenvalues --    0.01416   0.01616   0.01764   0.01849   0.01907
  Beta virt. eigenvalues --    0.02104   0.02145   0.02388   0.02453   0.02526
  Beta virt. eigenvalues --    0.02850   0.02907   0.02998   0.03069   0.03151
  Beta virt. eigenvalues --    0.03227   0.03320   0.03378   0.03499   0.03567
  Beta virt. eigenvalues --    0.03762   0.03918   0.04216   0.04378   0.04515
  Beta virt. eigenvalues --    0.04866   0.04893   0.05168   0.05285   0.05745
  Beta virt. eigenvalues --    0.06292   0.06428   0.06530   0.06936   0.07113
  Beta virt. eigenvalues --    0.07156   0.07769   0.08069   0.08346   0.08513
  Beta virt. eigenvalues --    0.08967   0.09415   0.09692   0.10304   0.10926
  Beta virt. eigenvalues --    0.11346   0.11615   0.12357   0.12833   0.12973
  Beta virt. eigenvalues --    0.13245   0.13672   0.14197   0.14329   0.14471
  Beta virt. eigenvalues --    0.14795   0.15064   0.15390   0.16408   0.17913
  Beta virt. eigenvalues --    0.18586   0.26164   0.26744   0.27447   0.28474
  Beta virt. eigenvalues --    0.29267   0.29870   0.31679   0.32229   0.32974
  Beta virt. eigenvalues --    0.33173   0.34421   0.34812   0.36084   0.37396
  Beta virt. eigenvalues --    0.38889   0.39551   0.40249   0.40765   0.41123
  Beta virt. eigenvalues --    0.41583   0.42396   0.43323   0.43800   0.44108
  Beta virt. eigenvalues --    0.44790   0.44963   0.45072   0.45482   0.45593
  Beta virt. eigenvalues --    0.45955   0.46410   0.46969   0.47186   0.47802
  Beta virt. eigenvalues --    0.48139   0.49041   0.49826   0.50286   0.51049
  Beta virt. eigenvalues --    0.51490   0.51855   0.52860   0.54092   0.54834
  Beta virt. eigenvalues --    0.55530   0.56682   0.57489   0.58433   0.59825
  Beta virt. eigenvalues --    0.61018   0.62372   0.63498   0.65602   0.67285
  Beta virt. eigenvalues --    0.67673   0.75573   2.04982   2.10059   2.15451
  Beta virt. eigenvalues --    2.19086   2.19560   2.21267   2.28955   4.42534
  Beta virt. eigenvalues --    4.43466   4.44171   4.44446   4.44873   4.45328
  Beta virt. eigenvalues --    4.45426   4.46173   4.46827   4.47380   4.48002
  Beta virt. eigenvalues --    4.48411   4.49422   4.51286   4.52256   4.54217
  Beta virt. eigenvalues --    4.55382   4.57216   4.58311   4.60337   4.68648
  Beta virt. eigenvalues --   96.24573  96.31058  96.37531  96.41657  96.42110
  Beta virt. eigenvalues --   96.44643  96.53873
          Condensed to atoms (all electrons):
               1          2          3          4          5          6
     1  Na  13.733019  -0.149514  -0.141903  -0.214349  -0.217324  -0.742839
     2  Na  -0.149514  12.645834  -1.248959   0.169546  -0.178919   0.439875
     3  Na  -0.141903  -1.248959  14.032947  -0.239999  -0.388208  -1.877462
     4  Na  -0.214349   0.169546  -0.239999  10.675957  -0.231061   0.429932
     5  Na  -0.217324  -0.178919  -0.388208  -0.231061  11.824505   0.193013
     6  Na  -0.742839   0.439875  -1.877462   0.429932   0.193013  12.115593
     7  Na   0.124477   0.142835  -0.089612   0.195005  -0.366894   0.047842
               7
     1  Na   0.124477
     2  Na   0.142835
     3  Na  -0.089612
     4  Na   0.195005
     5  Na  -0.366894
     6  Na   0.047842
     7  Na  10.661183
          Atomic-Atomic Spin Densities.
               1          2          3          4          5          6
     1  Na   0.022697  -0.130618  -0.049453   0.044233   0.291478   0.266236
     2  Na  -0.130618   1.381760  -0.139767  -0.049916  -0.361591  -0.287738
     3  Na  -0.049453  -0.139767  -0.167210   0.088145   0.209159   0.261436
     4  Na   0.044233  -0.049916   0.088145  -0.051782   0.055478  -0.091925
     5  Na   0.291478  -0.361591   0.209159   0.055478  -0.275451   0.022517
     6  Na   0.266236  -0.287738   0.261436  -0.091925   0.022517  -0.245943
     7  Na  -0.116082   0.136046  -0.033879  -0.038773   0.115863  -0.016623
               7
     1  Na  -0.116082
     2  Na   0.136046
     3  Na  -0.033879
     4  Na  -0.038773
     5  Na   0.115863
     6  Na  -0.016623
     7  Na  -0.012521
 Mulliken charges and spin densities:
               1          2
     1  Na  -1.391567   0.328491
     2  Na  -0.820698   0.548177
     3  Na   0.953197   0.168432
     4  Na   0.214969  -0.044541
     5  Na   0.364889   0.057452
     6  Na   0.394046  -0.092041
     7  Na   0.285164   0.034031
 Sum of Mulliken charges =  -0.00000   1.00000
 Mulliken charges and spin densities with hydrogens summed into heavy atoms:
               1          2
     1  Na  -1.391567   0.328491
     2  Na  -0.820698   0.548177
     3  Na   0.953197   0.168432
     4  Na   0.214969  -0.044541
     5  Na   0.364889   0.057452
     6  Na   0.394046  -0.092041
     7  Na   0.285164   0.034031
 Electronic spatial extent (au):  <R**2>=           2539.7595
 Charge=             -0.0000 electrons
 Dipole moment (field-independent basis, Debye):
    X=             -0.8956    Y=             -0.2733    Z=             -0.0603  Tot=              0.9383
 Quadrupole moment (field-independent basis, Debye-Ang):
   XX=            -53.0466   YY=            -62.6317   ZZ=            -76.4737
   XY=              1.2796   XZ=             -4.1744   YZ=              1.0184
 Traceless Quadrupole moment (field-independent basis, Debye-Ang):
   XX=             11.0041   YY=              1.4189   ZZ=            -12.4230
   XY=              1.2796   XZ=             -4.1744   YZ=              1.0184
 Octapole moment (field-independent basis, Debye-Ang**2):
  XXX=            -28.2033  YYY=            -11.0892  ZZZ=             -0.4227  XYY=            -15.0836
  XXY=             -3.5404  XXZ=             -8.2025  XZZ=             -1.3427  YZZ=              1.0375
  YYZ=             -2.6342  XYZ=              2.9504
 Hexadecapole moment (field-independent basis, Debye-Ang**3):
 XXXX=          -1873.9183 YYYY=          -1449.6581 ZZZZ=           -790.9732 XXXY=             69.7537
 XXXZ=            -91.6342 YYYX=            -16.2772 YYYZ=             34.5075 ZZZX=            -14.4083
 ZZZY=             -2.0456 XXYY=           -503.8134 XXZZ=           -489.6696 YYZZ=           -412.4347
 XXYZ=             -7.9645 YYXZ=            -27.4239 ZZXY=              3.4234
 N-N= 3.301347809305D+02 E-N=-3.389684756174D+03  KE= 1.132939173150D+03
                          Isotropic Fermi Contact Couplings
        Atom                 a.u.       MegaHertz       Gauss      10(-4) cm-1
     1  Na(23)             0.05944      70.31846      25.09137      23.45571
     2  Na(23)             0.44083     521.51621     186.08995     173.95908
     3  Na(23)             0.11434     135.26252      48.26503      45.11872
     4  Na(23)             0.00086       1.01600       0.36253       0.33890
     5  Na(23)             0.00179       2.11307       0.75400       0.70485
     6  Na(23)            -0.03111     -36.80780     -13.13394     -12.27776
     7  Na(23)            -0.01496     -17.70355      -6.31707      -5.90527
 --------------------------------------------------------
       Center         ----  Spin Dipole Couplings  ----
                      3XX-RR        3YY-RR        3ZZ-RR
 --------------------------------------------------------
     1   Atom       -0.011666     -0.017261      0.028927
     2   Atom       -0.000550      0.004767     -0.004217
     3   Atom       -0.008098     -0.012733      0.020831
     4   Atom       -0.002398     -0.003752      0.006150
     5   Atom       -0.019598     -0.018117      0.037714
     6   Atom       -0.000346     -0.002325      0.002671
     7   Atom       -0.011936     -0.010438      0.022374
 --------------------------------------------------------
                        XY            XZ            YZ
 --------------------------------------------------------
     1   Atom       -0.000751     -0.021419      0.007652
     2   Atom       -0.000181     -0.000795     -0.000238
     3   Atom        0.000276      0.018324      0.004309
     4   Atom       -0.004008      0.000826      0.001008
     5   Atom       -0.002979      0.009512     -0.013148
     6   Atom        0.001123     -0.001776      0.001463
     7   Atom       -0.000953     -0.008717      0.001321
 --------------------------------------------------------


 ---------------------------------------------------------------------------------
              Anisotropic Spin Dipole Couplings in Principal Axis System
 ---------------------------------------------------------------------------------

       Atom             a.u.   MegaHertz   Gauss  10(-4) cm-1        Axes

              Baa    -0.0222    -3.137    -1.119    -1.046  0.7715 -0.4969  0.3974
     1 Na(23) Bbb    -0.0169    -2.383    -0.850    -0.795  0.5049  0.8582  0.0927
              Bcc     0.0391     5.520     1.970     1.841 -0.3871  0.1291  0.9129
 
              Baa    -0.0044    -0.620    -0.221    -0.207  0.2039  0.0295  0.9786
     2 Na(23) Bbb    -0.0004    -0.055    -0.020    -0.018  0.9785  0.0248 -0.2046
              Bcc     0.0048     0.675     0.241     0.225 -0.0303  0.9993 -0.0238
 
              Baa    -0.0176    -2.481    -0.885    -0.828  0.8331  0.3407 -0.4358
     3 Na(23) Bbb    -0.0125    -1.767    -0.631    -0.589 -0.3463  0.9355  0.0694
              Bcc     0.0301     4.248     1.516     1.417  0.4313  0.0931  0.8974
 
              Baa    -0.0073    -1.026    -0.366    -0.342  0.6424  0.7603 -0.0967
     4 Na(23) Bbb     0.0010     0.140     0.050     0.047  0.7641 -0.6451  0.0038
              Bcc     0.0063     0.886     0.316     0.296  0.0595  0.0763  0.9953
 
              Baa    -0.0219    -3.099    -1.106    -1.034  0.7264  0.6864  0.0354
     5 Na(23) Bbb    -0.0203    -2.867    -1.023    -0.956 -0.6687  0.6939  0.2669
              Bcc     0.0423     5.966     2.129     1.990  0.1586 -0.2176  0.9631
 
              Baa    -0.0035    -0.501    -0.179    -0.167 -0.4687  0.8206 -0.3269
     6 Na(23) Bbb    -0.0001    -0.011    -0.004    -0.004  0.8041  0.5496  0.2267
              Bcc     0.0036     0.512     0.183     0.171 -0.3657  0.1565  0.9175
 
              Baa    -0.0141    -1.995    -0.712    -0.666  0.9602  0.1681  0.2232
     7 Na(23) Bbb    -0.0104    -1.468    -0.524    -0.490 -0.1537  0.9848 -0.0806
              Bcc     0.0245     3.463     1.236     1.155 -0.2334  0.0431  0.9714
 

 ---------------------------------------------------------------------------------

 No NMR shielding tensors so no spin-rotation constants.
 Leave Link  601 at Wed Nov 29 16:37:33 2023, MaxMem=  1879048192 cpu:               2.3 elap:               0.2
 (Enter /home/sekinelabo/g16/l701.exe)
 ... and contract with generalized density number  0.
 Compute integral first derivatives.
 Leave Link  701 at Wed Nov 29 16:37:34 2023, MaxMem=  1879048192 cpu:               1.6 elap:               0.1
 (Enter /home/sekinelabo/g16/l702.exe)
 L702 exits ... SP integral derivatives will be done elsewhere.
 Leave Link  702 at Wed Nov 29 16:37:34 2023, MaxMem=  1879048192 cpu:               0.4 elap:               0.0
 (Enter /home/sekinelabo/g16/l703.exe)
 Integral derivatives from FoFJK, PRISM(SPDF).
 Compute integral first derivatives, UseDBF=F ICtDFT=           0.
 Calling FoFJK, ICntrl=      2127 FMM=F ISym2X=0 I1Cent= 0 IOpClX= 1 NMat=1 NMatS=1 NMatT=0.
 FoFJK:  IHMeth= 1 ICntrl=    2127 DoSepK=F KAlg= 0 I1Cent=           0 FoldK=F
 IRaf=         0 NMat=       1 IRICut=       1 DoRegI=T DoRafI=F ISym2E= 0 IDoP0=0 IntGTp=1.
 FoFCou: FMM=F IPFlag=           0 FMFlag=      100000 FMFlg1=         800
         NFxFlg=           0 DoJE=F BraDBF=F KetDBF=F FulRan=T
         wScrn=  0.000000 ICntrl=      2127 IOpCl=  1 I1Cent=           0 NGrid=           0
         NMat0=    1 NMatS0=      1 NMatT0=    0 NMatD0=    1 NMtDS0=    0 NMtDT0=    0
 Symmetry not used in FoFCou.
 Leave Link  703 at Wed Nov 29 16:37:36 2023, MaxMem=  1879048192 cpu:              32.9 elap:               2.2
 (Enter /home/sekinelabo/g16/l716.exe)
 Dipole        =-3.52361051D-01-1.07517108D-01-2.37252109D-02
 ***** Axes restored to original set *****
 -------------------------------------------------------------------
 Center     Atomic                   Forces (Hartrees/Bohr)
 Number     Number              X              Y              Z
 -------------------------------------------------------------------
      1       11          -0.000536699    0.001164545   -0.002046000
      2       11           0.000741577    0.001144566    0.001776178
      3       11          -0.002259403   -0.000912353   -0.000868988
      4       11           0.000464022    0.000584761    0.001501335
      5       11          -0.001536980   -0.003549680   -0.000934232
      6       11           0.001306172   -0.000452965   -0.001146878
      7       11           0.001821311    0.002021126    0.001718585
 -------------------------------------------------------------------
 Cartesian Forces:  Max     0.003549680 RMS     0.001539424
 Z-matrix is all fixed cartesians, so copy forces.
 Force constants in Cartesian coordinates: 
                1             2             3             4             5 
      1  0.183856D+00
      2 -0.433393D-02  0.187624D+00
      3  0.134146D-01 -0.732953D-02  0.180226D+00
      4 -0.205064D-01  0.770372D-02 -0.100645D-01  0.569176D-01
      5  0.299460D-02 -0.152932D-01  0.849132D-02 -0.641917D-02  0.545432D-01
      6  0.189869D-02 -0.414682D-03 -0.176070D-01  0.159982D-01 -0.138546D-01
      7 -0.312383D-01  0.990636D-03  0.135894D-01 -0.702545D-02  0.569523D-02
      8  0.453774D-02 -0.307138D-01 -0.453147D-02 -0.288609D-02 -0.895811D-02
      9 -0.103674D-01  0.760461D-02 -0.297923D-01  0.842697D-02 -0.128780D-02
     10 -0.351617D-01 -0.820592D-02 -0.106673D-01  0.209886D-02  0.308203D-02
     11  0.402763D-02 -0.343954D-01  0.503535D-02  0.279049D-02 -0.258174D-02
     12 -0.265410D-02 -0.566715D-02 -0.398134D-01 -0.537101D-03  0.166303D-02
     13 -0.351692D-01  0.156961D-01  0.391610D-02 -0.227507D-01 -0.156277D-01
     14 -0.138066D-01 -0.435402D-01 -0.171694D-02  0.933310D-02 -0.141211D-01
     15 -0.359191D-02  0.370596D-02 -0.337406D-01 -0.169134D-01 -0.694718D-02
     16 -0.260202D-01 -0.188255D-02 -0.119052D-01 -0.132632D-02 -0.494776D-03
     17 -0.623546D-03 -0.356332D-01  0.220699D-02  0.206831D-02  0.135563D-02
     18  0.585699D-02  0.593299D-02 -0.357113D-01 -0.103774D-02 -0.373098D-03
     19 -0.357601D-01 -0.996808D-02  0.171694D-02 -0.740764D-02  0.107698D-01
     20  0.720407D-02 -0.280480D-01 -0.215573D-02 -0.125904D-01 -0.149447D-01
     21 -0.455690D-02 -0.383220D-02 -0.235614D-01  0.412750D-02  0.123083D-01
                6             7             8             9            10 
      6  0.588533D-01
      7 -0.137993D-01  0.594709D-01
      8  0.148923D-01  0.938557D-02  0.640765D-01
      9 -0.266431D-01 -0.139805D-01  0.212073D-02  0.961757D-01
     10  0.306744D-02  0.800740D-02  0.349065D-02  0.207188D-02  0.512868D-01
     11 -0.540111D-02  0.332348D-02  0.294259D-02 -0.302487D-02  0.872457D-02
     12  0.327792D-02  0.223958D-02 -0.360544D-02  0.186589D-03 -0.924784D-02
     13 -0.689083D-02 -0.132029D-01 -0.124875D-01 -0.208810D-02  0.306876D-02
     14  0.974860D-02 -0.501698D-02 -0.119478D-01 -0.801153D-02 -0.584437D-03
     15 -0.134007D-01  0.166918D-01  0.132124D-01 -0.136872D-01  0.169760D-02
     16  0.310720D-02  0.311828D-02 -0.125655D-02  0.354242D-02 -0.105544D-01
     17 -0.312963D-02 -0.721652D-04  0.696295D-02 -0.248784D-02 -0.138978D-01
     18  0.242991D-02  0.250820D-02 -0.849772D-03  0.279139D-02 -0.112082D-02
     19 -0.338145D-02 -0.191299D-01 -0.783840D-03  0.123948D-01 -0.187457D-01
     20 -0.184088D-02 -0.143058D-01 -0.223623D-01  0.508672D-02  0.739095D-02
     21 -0.691035D-02 -0.724919D-02 -0.212387D-01 -0.290311D-01  0.141991D-01
               11            12            13            14            15 
     11  0.699433D-01
     12  0.151209D-01  0.471034D-01
     13 -0.177089D-02  0.160075D-02  0.629829D-01
     14  0.172409D-02 -0.204314D-02  0.172619D-01  0.681431D-01
     15 -0.583573D-02  0.686971D-02  0.374416D-02  0.315903D-02  0.469884D-01
     16 -0.183257D-02  0.918621D-02  0.149698D-02 -0.127141D-03  0.300302D-03
     17 -0.172060D-01  0.471057D-02  0.389310D-02  0.157974D-02 -0.578610D-02
     18 -0.949407D-02 -0.426234D-02  0.129189D-02 -0.688603D-04  0.118693D-03
     19 -0.152627D-01 -0.587505D-03  0.357412D-02 -0.705988D-02 -0.192864D-02
     20 -0.204268D-01 -0.101787D-01 -0.696502D-02 -0.183782D-02 -0.150842D-02
     21  0.359954D-02 -0.133619D-01 -0.157398D-02 -0.106716D-02  0.685181D-02
               16            17            18            19            20 
     16  0.338868D-01
     17  0.820327D-02  0.373328D-01
     18 -0.933467D-02  0.174237D-02  0.298287D-01
     19 -0.601124D-03  0.428871D-03  0.183613D-02  0.780703D-01
     20 -0.260969D-02  0.560804D-02  0.311044D-02  0.218758D-01  0.820115D-01
     21  0.510375D-02  0.274365D-02  0.480497D-02 -0.100503D-01  0.748661D-02
               21 
     21  0.612080D-01
 Leave Link  716 at Wed Nov 29 16:37:36 2023, MaxMem=  1879048192 cpu:               0.4 elap:               0.0
 (Enter /home/sekinelabo/g16/l103.exe)

 GradGradGradGradGradGradGradGradGradGradGradGradGradGradGradGradGradGrad
 Berny optimization.
 Search for a local minimum.
 Step number   1 out of a maximum of    2
 All quantities printed in internal units (Hartrees-Bohrs-Radians)
 Second derivative matrix not updated -- first step.
 ITU=  0
     Eigenvalues ---    0.02767   0.03459   0.04410   0.05186   0.06062
     Eigenvalues ---    0.06922   0.08295   0.09503   0.09864   0.10646
     Eigenvalues ---    0.12430   0.14354   0.20280   0.22114   0.23706
 Angle between quadratic step and forces=  22.78 degrees.
 Linear search not attempted -- first point.
 B after Tr=     0.000000    0.000000   -0.000000
         Rot=    1.000000   -0.000000    0.000000    0.000000 Ang=   0.00 deg.
 Variable       Old X    -DE/DX   Delta X   Delta X   Delta X     New X
                                 (Linear)    (Quad)   (Total)
    X1       27.26138  -0.00054   0.00000  -0.00586  -0.00586  27.25552
    Y1       29.60955   0.00116   0.00000   0.00624   0.00624  29.61579
    Z1       28.51578  -0.00205   0.00000  -0.00766  -0.00766  28.50812
    X2       32.55223   0.00074   0.00000   0.00475   0.00475  32.55699
    Y2       25.04662   0.00114   0.00000   0.01332   0.01332  25.05994
    Z2       30.01433   0.00178   0.00000   0.02376   0.02376  30.03809
    X3       31.77423  -0.00226   0.00000  -0.03234  -0.03234  31.74189
    Y3       28.03787  -0.00091   0.00000  -0.00490  -0.00490  28.03296
    Z3       23.99007  -0.00087   0.00000  -0.01413  -0.01413  23.97594
    X4       28.03522   0.00046   0.00000   0.01254   0.01254  28.04776
    Y4       34.23522   0.00058   0.00000   0.01203   0.01203  34.24726
    Z4       32.22985   0.00150   0.00000   0.02711   0.02711  32.25696
    X5       27.11303  -0.00154   0.00000  -0.01492  -0.01492  27.09811
    Y5       24.02749  -0.00355   0.00000  -0.04770  -0.04770  23.97979
    Z5       26.89194  -0.00093   0.00000  -0.00854  -0.00854  26.88340
    X6       23.35966   0.00131   0.00000   0.02142   0.02142  23.38108
    Y6       29.50618  -0.00045   0.00000  -0.00284  -0.00284  29.50334
    Z6       33.34837  -0.00115   0.00000  -0.03690  -0.03690  33.31147
    X7       32.90882   0.00182   0.00000   0.01442   0.01442  32.92324
    Y7       32.54184   0.00202   0.00000   0.02385   0.02385  32.56569
    Z7       28.01462   0.00172   0.00000   0.01636   0.01636  28.03098
         Item               Value     Threshold  Converged?
 Maximum Force            0.003550     0.000450     NO 
 RMS     Force            0.001539     0.000300     NO 
 Maximum Displacement     0.047698     0.001800     NO 
 RMS     Displacement     0.020291     0.001200     NO 
 Predicted change in Energy=-3.024067D-04
 GradGradGradGradGradGradGradGradGradGradGradGradGradGradGradGradGradGrad

 Leave Link  103 at Wed Nov 29 16:37:36 2023, MaxMem=  1879048192 cpu:               0.4 elap:               0.0
 (Enter /home/sekinelabo/g16/l9999.exe)
 1\1\GINC-SEKINELABO-XA7R-R37\Force\UB3LYP\6-311+G(d)\Na7(2)\SEKINELABO
 \29-Nov-2023\0\\#P B3LYP/6-311+g(d) force\\DPGEN\\0,2\Na,14.4261,15.66
 87,15.0899\Na,17.2259,13.2541,15.8829\Na,16.8142,14.837,12.695\Na,14.8
 356,18.1165,17.0553\Na,14.3476,12.7148,14.2306\Na,12.3614,15.614,17.64
 72\Na,17.4146,17.2204,14.8247\\Version=ES64L-G16RevB.01\State=2-A\HF=-
 1136.126828\S2=0.761119\S2-1=0.\S2A=0.750072\RMSD=7.225e-09\RMSF=1.539
 e-03\Dipole=-0.2829692,0.1046028,0.2127624\Quadrupole=-0.349035,-0.407
 6194,0.7566544,1.4867072,-7.3443489,5.5863577\PG=C01 [X(Na7)]\\@


 FLOATING POINT NUMBERS ARE LIKE SANDPILES:
 EVERY TIME THAT YOU MOVE ONE, YOU LOSE A LITTLE SAND 
 AND YOU PICK UP A LITTLE DIRT.
 Job cpu time:       0 days  0 hours  4 minutes  2.2 seconds.
 Elapsed time:       0 days  0 hours  0 minutes 20.5 seconds.
 File lengths (MBytes):  RWF=     32 Int=      0 D2E=      0 Chk=      4 Scr=      1
 Normal termination of Gaussian 16 at Wed Nov 29 16:37:36 2023.
