 Set GAUSS_MDEF to "14GB".
 Entering Gaussian System, Link 0=g16
 Initial command:
 /home/sekinelabo/g16/l1.exe "/home/sekinelabo/g16temp/Gau-128357.inp" -scrdir="/home/sekinelabo/g16temp/"
 Entering Link 1 = /home/sekinelabo/g16/l1.exe PID=    128359.
  
 Copyright (c) 1988-2017, Gaussian, Inc.  All Rights Reserved.
  
 This is part of the Gaussian(R) 16 program.  It is based on
 the Gaussian(R) 09 system (copyright 2009, Gaussian, Inc.),
 the Gaussian(R) 03 system (copyright 2003, Gaussian, Inc.),
 the Gaussian(R) 98 system (copyright 1998, Gaussian, Inc.),
 the Gaussian(R) 94 system (copyright 1995, Gaussian, Inc.),
 the Gaussian 92(TM) system (copyright 1992, Gaussian, Inc.),
 the Gaussian 90(TM) system (copyright 1990, Gaussian, Inc.),
 the Gaussian 88(TM) system (copyright 1988, Gaussian, Inc.),
 the Gaussian 86(TM) system (copyright 1986, Carnegie Mellon
 University), and the Gaussian 82(TM) system (copyright 1983,
 Carnegie Mellon University). Gaussian is a federally registered
 trademark of Gaussian, Inc.
  
 This software contains proprietary and confidential information,
 including trade secrets, belonging to Gaussian, Inc.
  
 This software is provided under written license and may be
 used, copied, transmitted, or stored only in accord with that
 written license.
  
 The following legend is applicable only to US Government
 contracts under FAR:
  
                    RESTRICTED RIGHTS LEGEND
  
 Use, reproduction and disclosure by the US Government is
 subject to restrictions as set forth in subparagraphs (a)
 and (c) of the Commercial Computer Software - Restricted
 Rights clause in FAR 52.227-19.
  
 Gaussian, Inc.
 340 Quinnipiac St., Bldg. 40, Wallingford CT 06492
  
  
 ---------------------------------------------------------------
 Warning -- This program may not be used in any manner that
 competes with the business of Gaussian, Inc. or will provide
 assistance to any competitor of Gaussian, Inc.  The licensee
 of this program is prohibited from giving any competitor of
 Gaussian, Inc. access to this program.  By using this program,
 the user acknowledges that Gaussian, Inc. is engaged in the
 business of creating and licensing software in the field of
 computational chemistry and represents and warrants to the
 licensee that it is not a competitor of Gaussian, Inc. and that
 it will not use this program in any manner prohibited above.
 ---------------------------------------------------------------
  

 Cite this work as:
 Gaussian 16, Revision B.01,
 M. J. Frisch, G. W. Trucks, H. B. Schlegel, G. E. Scuseria, 
 M. A. Robb, J. R. Cheeseman, G. Scalmani, V. Barone, 
 G. A. Petersson, H. Nakatsuji, X. Li, M. Caricato, A. V. Marenich, 
 J. Bloino, B. G. Janesko, R. Gomperts, B. Mennucci, H. P. Hratchian, 
 J. V. Ortiz, A. F. Izmaylov, J. L. Sonnenberg, D. Williams-Young, 
 F. Ding, F. Lipparini, F. Egidi, J. Goings, B. Peng, A. Petrone, 
 T. Henderson, D. Ranasinghe, V. G. Zakrzewski, J. Gao, N. Rega, 
 G. Zheng, W. Liang, M. Hada, M. Ehara, K. Toyota, R. Fukuda, 
 J. Hasegawa, M. Ishida, T. Nakajima, Y. Honda, O. Kitao, H. Nakai, 
 T. Vreven, K. Throssell, J. A. Montgomery, Jr., J. E. Peralta, 
 F. Ogliaro, M. J. Bearpark, J. J. Heyd, E. N. Brothers, K. N. Kudin, 
 V. N. Staroverov, T. A. Keith, R. Kobayashi, J. Normand, 
 K. Raghavachari, A. P. Rendell, J. C. Burant, S. S. Iyengar, 
 J. Tomasi, M. Cossi, J. M. Millam, M. Klene, C. Adamo, R. Cammi, 
 J. W. Ochterski, R. L. Martin, K. Morokuma, O. Farkas, 
 J. B. Foresman, and D. J. Fox, Gaussian, Inc., Wallingford CT, 2016.
 
 ******************************************
 Gaussian 16:  ES64L-G16RevB.01 20-Dec-2017
                28-Nov-2023 
 ******************************************
 %nproc=15
 Will use up to   15 processors via shared memory.
 -------------------------
 #P B3LYP/6-311+g(d) force
 -------------------------
 1/10=7,30=1,38=1/1,3;
 2/12=2,17=6,18=5,40=1/2;
 3/5=4,6=6,7=11,11=2,25=1,30=1,71=1,74=-5/1,2,3;
 4//1;
 5/5=2,38=5/2;
 6/7=2,8=2,9=2,10=2,28=1/1;
 7/29=1/1,2,3,16;
 1/10=7,30=1/3;
 99//99;
 Leave Link    1 at Tue Nov 28 21:50:48 2023, MaxMem=           0 cpu:               0.3 elap:               0.0
 (Enter /home/sekinelabo/g16/l101.exe)
 -----
 DPGEN
 -----
 Symbolic Z-matrix:
 Charge =  0 Multiplicity = 2
 Na                    13.1163   14.7823   13.104 
 Na                    14.0765   13.7857   9.81766 
 Na                    15.5964   12.657    12.6465 
 Na                    16.8917   13.6793   15.5878 
 Na                    15.0539   16.6153   15.0614 
 Na                    15.9414   16.974    19.6238 
 Na                    16.7493   18.9319   21.5844 
 
 ITRead=  0  0  0  0  0  0  0
 MicOpt= -1 -1 -1 -1 -1 -1 -1
 NAtoms=      7 NQM=        7 NQMF=       0 NMMI=      0 NMMIF=      0
                NMic=       0 NMicF=      0.
                    Isotopes and Nuclear Properties:
 (Nuclear quadrupole moments (NQMom) in fm**2, nuclear magnetic moments (NMagM)
  in nuclear magnetons)

  Atom         1           2           3           4           5           6           7
 IAtWgt=          23          23          23          23          23          23          23
 AtmWgt=  22.9897697  22.9897697  22.9897697  22.9897697  22.9897697  22.9897697  22.9897697
 NucSpn=           3           3           3           3           3           3           3
 AtZEff=  -0.0000000  -0.0000000  -0.0000000  -0.0000000  -0.0000000  -0.0000000  -0.0000000
 NQMom=   10.4000000  10.4000000  10.4000000  10.4000000  10.4000000  10.4000000  10.4000000
 NMagM=    2.2175200   2.2175200   2.2175200   2.2175200   2.2175200   2.2175200   2.2175200
 AtZNuc=  11.0000000  11.0000000  11.0000000  11.0000000  11.0000000  11.0000000  11.0000000
 Leave Link  101 at Tue Nov 28 21:50:48 2023, MaxMem=  1879048192 cpu:               2.4 elap:               0.2
 (Enter /home/sekinelabo/g16/l103.exe)

 GradGradGradGradGradGradGradGradGradGradGradGradGradGradGradGradGradGrad
 Berny optimization.
 Initialization pass.
 Trust Radius=3.00D-01 FncErr=1.00D-07 GrdErr=1.00D-07 EigMax=2.50D+02 EigMin=1.00D-04
 Number of steps in this run=      2 maximum allowed number of steps=      2.
 GradGradGradGradGradGradGradGradGradGradGradGradGradGradGradGradGradGrad

 Leave Link  103 at Tue Nov 28 21:50:48 2023, MaxMem=  1879048192 cpu:               0.2 elap:               0.0
 (Enter /home/sekinelabo/g16/l202.exe)
                          Input orientation:                          
 ---------------------------------------------------------------------
 Center     Atomic      Atomic             Coordinates (Angstroms)
 Number     Number       Type             X           Y           Z
 ---------------------------------------------------------------------
      1         11           0       13.116300   14.782300   13.104000
      2         11           0       14.076500   13.785700    9.817660
      3         11           0       15.596400   12.657000   12.646500
      4         11           0       16.891700   13.679300   15.587800
      5         11           0       15.053900   16.615300   15.061400
      6         11           0       15.941400   16.974000   19.623800
      7         11           0       16.749300   18.931900   21.584400
 ---------------------------------------------------------------------
                    Distance matrix (angstroms):
                    1          2          3          4          5
     1  Na   0.000000
     2  Na   3.565842   0.000000
     3  Na   3.298045   3.403879   0.000000
     4  Na   4.651829   6.421152   3.372558   0.000000
     5  Na   3.308413   6.038109   4.668424   3.503527   0.000000
     6  Na   7.435895  10.478716   8.212078   5.295981   4.661740
     7  Na  10.116079  13.118056  10.981330   7.973036   7.126749
                    6          7
     6  Na   0.000000
     7  Na   2.886179   0.000000
 Stoichiometry    Na7(2)
 Framework group  C1[X(Na7)]
 Deg. of freedom    15
 Full point group                 C1      NOp   1
 Largest Abelian subgroup         C1      NOp   1
 Largest concise Abelian subgroup C1      NOp   1
                         Standard orientation:                         
 ---------------------------------------------------------------------
 Center     Atomic      Atomic             Coordinates (Angstroms)
 Number     Number       Type             X           Y           Z
 ---------------------------------------------------------------------
      1         11           0        2.659438   -1.532685    0.948276
      2         11           0        5.797702   -0.813701   -0.584560
      3         11           0        3.480269    1.564088    0.165120
      4         11           0        0.192436    2.276642   -0.072728
      5         11           0       -0.230476   -1.158228   -0.618178
      6         11           0       -4.587791    0.068884    0.495295
      7         11           0       -7.311578   -0.405002   -0.333224
 ---------------------------------------------------------------------
 Rotational constants (GHZ):           1.5521319           0.1698727           0.1575303
 Leave Link  202 at Tue Nov 28 21:50:48 2023, MaxMem=  1879048192 cpu:               0.0 elap:               0.0
 (Enter /home/sekinelabo/g16/l301.exe)
 Standard basis: 6-311+G(d) (5D, 7F)
 Ernie: Thresh=  0.10000D-02 Tol=  0.10000D-05 Strict=F.
 There are   217 symmetry adapted cartesian basis functions of A   symmetry.
 There are   210 symmetry adapted basis functions of A   symmetry.
   210 basis functions,   350 primitive gaussians,   217 cartesian basis functions
    39 alpha electrons       38 beta electrons
       nuclear repulsion energy       265.4406637616 Hartrees.
 IExCor=  402 DFT=T Ex+Corr=B3LYP ExCW=0 ScaHFX=  0.200000
 ScaDFX=  0.800000  0.720000  1.000000  0.810000 ScalE2=  1.000000  1.000000
 IRadAn=      5 IRanWt=     -1 IRanGd=            0 ICorTp=0 IEmpDi=  4
 NAtoms=    7 NActive=    7 NUniq=    7 SFac= 1.00D+00 NAtFMM=   60 NAOKFM=F Big=F
 Integral buffers will be    131072 words long.
 Raffenetti 2 integral format.
 Two-electron integral symmetry is turned on.
 Leave Link  301 at Tue Nov 28 21:50:48 2023, MaxMem=  1879048192 cpu:               0.5 elap:               0.0
 (Enter /home/sekinelabo/g16/l302.exe)
 NPDir=0 NMtPBC=     1 NCelOv=     1 NCel=       1 NClECP=     1 NCelD=      1
         NCelK=      1 NCelE2=     1 NClLst=     1 CellRange=     0.0.
 One-electron integrals computed using PRISM.
 One-electron integral symmetry used in STVInt
 NBasis=   210 RedAO= T EigKep=  5.57D-06  NBF=   210
 NBsUse=   210 1.00D-06 EigRej= -1.00D+00 NBFU=   210
 Precomputing XC quadrature grid using
 IXCGrd= 4 IRadAn=           5 IRanWt=          -1 IRanGd=           0 AccXCQ= 0.00D+00.
 Generated NRdTot=       0 NPtTot=           0 NUsed=           0 NTot=          32
 NSgBfM=   200   200   200   200   200 MxSgAt=     7 MxSgA2=     7.
 Leave Link  302 at Tue Nov 28 21:50:48 2023, MaxMem=  1879048192 cpu:               1.9 elap:               0.1
 (Enter /home/sekinelabo/g16/l303.exe)
 DipDrv:  MaxL=1.
 Leave Link  303 at Tue Nov 28 21:50:48 2023, MaxMem=  1879048192 cpu:               0.5 elap:               0.0
 (Enter /home/sekinelabo/g16/l401.exe)
 ExpMin= 7.60D-03 ExpMax= 3.62D+04 ExpMxC= 1.21D+03 IAcc=3 IRadAn=         5 AccDes= 0.00D+00
 Harris functional with IExCor=  402 and IRadAn=       5 diagonalized for initial guess.
 HarFok:  IExCor=  402 AccDes= 0.00D+00 IRadAn=         5 IDoV= 1 UseB2=F ITyADJ=14
 ICtDFT=  3500011 ScaDFX=  1.000000  1.000000  1.000000  1.000000
 FoFCou: FMM=F IPFlag=           0 FMFlag=      100000 FMFlg1=           0
         NFxFlg=           0 DoJE=T BraDBF=F KetDBF=T FulRan=T
         wScrn=  0.000000 ICntrl=       500 IOpCl=  0 I1Cent=   200000004 NGrid=           0
         NMat0=    1 NMatS0=      1 NMatT0=    0 NMatD0=    1 NMtDS0=    0 NMtDT0=    0
 Petite list used in FoFCou.
 Harris En= -1135.88265470580    
 JPrj=0 DoOrth=F DoCkMO=F.
 Initial guess <Sx>= 0.0000 <Sy>= 0.0000 <Sz>= 0.5000 <S**2>= 0.7500 S= 0.5000
 Leave Link  401 at Tue Nov 28 21:50:49 2023, MaxMem=  1879048192 cpu:               3.9 elap:               0.3
 (Enter /home/sekinelabo/g16/l502.exe)
 Keep R1 and R2 ints in memory in canonical form, NReq=506573293.
 FoFCou: FMM=F IPFlag=           0 FMFlag=           0 FMFlg1=           0
         NFxFlg=           0 DoJE=F BraDBF=F KetDBF=F FulRan=T
         wScrn=  0.000000 ICntrl=       600 IOpCl=  0 I1Cent=           0 NGrid=           0
         NMat0=    1 NMatS0=  22155 NMatT0=    0 NMatD0=    1 NMtDS0=    0 NMtDT0=    0
 Symmetry not used in FoFCou.
 Two-electron integral symmetry not used.
 UHF open shell SCF:
 Using DIIS extrapolation, IDIIS=  1040.
 NGot=  1879048192 LenX=  1388082607 LenY=  1388035077
 Requested convergence on RMS density matrix=1.00D-08 within 128 cycles.
 Requested convergence on MAX density matrix=1.00D-06.
 Requested convergence on             energy=1.00D-06.
 No special actions if energy rises.

 Cycle   1  Pass 1  IDiag  1:
 E= -1136.08902933514    
 DIIS: error= 1.01D-02 at cycle   1 NSaved=   1.
 NSaved= 1 IEnMin= 1 EnMin= -1136.08902933514     IErMin= 1 ErrMin= 1.01D-02
 ErrMax= 1.01D-02  0.00D+00 EMaxC= 1.00D-01 BMatC= 1.82D-01 BMatP= 1.82D-01
 IDIUse=3 WtCom= 8.99D-01 WtEn= 1.01D-01
 Coeff-Com:  0.100D+01
 Coeff-En:   0.100D+01
 Coeff:      0.100D+01
 Gap=     0.046 Goal=   None    Shift=    0.000
 Gap=     0.043 Goal=   None    Shift=    0.000
 GapD=    0.043 DampG=0.250 DampE=0.500 DampFc=0.2500 IDamp=-1.
 Damping current iteration by 2.50D-01
 RMSDP=1.31D-02 MaxDP=1.26D+00              OVMax= 1.27D-01

 Cycle   2  Pass 1  IDiag  1:
 E= -1136.09705896391     Delta-E=       -0.008029628766 Rises=F Damp=T
 DIIS: error= 7.05D-03 at cycle   2 NSaved=   2.
 NSaved= 2 IEnMin= 2 EnMin= -1136.09705896391     IErMin= 2 ErrMin= 7.05D-03
 ErrMax= 7.05D-03  0.00D+00 EMaxC= 1.00D-01 BMatC= 7.11D-02 BMatP= 1.82D-01
 IDIUse=3 WtCom= 9.30D-01 WtEn= 7.05D-02
 Coeff-Com: -0.132D+01 0.232D+01
 Coeff-En:   0.000D+00 0.100D+01
 Coeff:     -0.123D+01 0.223D+01
 Gap=     0.051 Goal=   None    Shift=    0.000
 Gap=     0.041 Goal=   None    Shift=    0.000
 RMSDP=7.96D-03 MaxDP=7.52D-01 DE=-8.03D-03 OVMax= 6.33D-02

 Cycle   3  Pass 1  IDiag  1:
 E= -1136.11383094090     Delta-E=       -0.016771976987 Rises=F Damp=F
 DIIS: error= 6.55D-04 at cycle   3 NSaved=   3.
 NSaved= 3 IEnMin= 3 EnMin= -1136.11383094090     IErMin= 3 ErrMin= 6.55D-04
 ErrMax= 6.55D-04  0.00D+00 EMaxC= 1.00D-01 BMatC= 2.39D-04 BMatP= 7.11D-02
 IDIUse=3 WtCom= 9.93D-01 WtEn= 6.55D-03
 Coeff-Com: -0.258D-01 0.441D-01 0.982D+00
 Coeff-En:   0.000D+00 0.000D+00 0.100D+01
 Coeff:     -0.257D-01 0.438D-01 0.982D+00
 Gap=     0.049 Goal=   None    Shift=    0.000
 Gap=     0.046 Goal=   None    Shift=    0.000
 RMSDP=1.05D-03 MaxDP=7.47D-02 DE=-1.68D-02 OVMax= 3.46D-02

 Cycle   4  Pass 1  IDiag  1:
 E= -1136.11379598386     Delta-E=        0.000034957038 Rises=F Damp=F
 DIIS: error= 8.38D-04 at cycle   4 NSaved=   4.
 NSaved= 4 IEnMin= 3 EnMin= -1136.11383094090     IErMin= 3 ErrMin= 6.55D-04
 ErrMax= 8.38D-04  0.00D+00 EMaxC= 1.00D-01 BMatC= 3.28D-04 BMatP= 2.39D-04
 IDIUse=3 WtCom= 2.57D-01 WtEn= 7.43D-01
 Coeff-Com: -0.214D-02 0.251D-02 0.542D+00 0.457D+00
 Coeff-En:   0.000D+00 0.000D+00 0.533D+00 0.467D+00
 Coeff:     -0.550D-03 0.644D-03 0.536D+00 0.464D+00
 Gap=     0.050 Goal=   None    Shift=    0.000
 Gap=     0.045 Goal=   None    Shift=    0.000
 RMSDP=3.31D-04 MaxDP=1.80D-02 DE= 3.50D-05 OVMax= 2.21D-02

 Cycle   5  Pass 1  IDiag  1:
 E= -1136.11411024779     Delta-E=       -0.000314263926 Rises=F Damp=F
 DIIS: error= 2.11D-04 at cycle   5 NSaved=   5.
 NSaved= 5 IEnMin= 5 EnMin= -1136.11411024779     IErMin= 5 ErrMin= 2.11D-04
 ErrMax= 2.11D-04  0.00D+00 EMaxC= 1.00D-01 BMatC= 1.09D-05 BMatP= 2.39D-04
 IDIUse=3 WtCom= 9.98D-01 WtEn= 2.11D-03
 Coeff-Com:  0.121D-02-0.254D-02 0.134D+00 0.173D+00 0.694D+00
 Coeff-En:   0.000D+00 0.000D+00 0.000D+00 0.000D+00 0.100D+01
 Coeff:      0.121D-02-0.254D-02 0.134D+00 0.173D+00 0.695D+00
 Gap=     0.050 Goal=   None    Shift=    0.000
 Gap=     0.045 Goal=   None    Shift=    0.000
 RMSDP=1.56D-04 MaxDP=1.27D-02 DE=-3.14D-04 OVMax= 8.77D-03

 Cycle   6  Pass 1  IDiag  1:
 E= -1136.11412930000     Delta-E=       -0.000019052218 Rises=F Damp=F
 DIIS: error= 1.11D-04 at cycle   6 NSaved=   6.
 NSaved= 6 IEnMin= 6 EnMin= -1136.11412930000     IErMin= 6 ErrMin= 1.11D-04
 ErrMax= 1.11D-04  0.00D+00 EMaxC= 1.00D-01 BMatC= 3.77D-06 BMatP= 1.09D-05
 IDIUse=3 WtCom= 9.99D-01 WtEn= 1.11D-03
 Coeff-Com:  0.754D-03-0.158D-02-0.659D-01-0.282D-01 0.353D+00 0.742D+00
 Coeff-En:   0.000D+00 0.000D+00 0.000D+00 0.000D+00 0.000D+00 0.100D+01
 Coeff:      0.753D-03-0.158D-02-0.658D-01-0.282D-01 0.353D+00 0.742D+00
 Gap=     0.050 Goal=   None    Shift=    0.000
 Gap=     0.045 Goal=   None    Shift=    0.000
 RMSDP=1.01D-04 MaxDP=6.13D-03 DE=-1.91D-05 OVMax= 5.73D-03

 Cycle   7  Pass 1  IDiag  1:
 E= -1136.11413916681     Delta-E=       -0.000009866806 Rises=F Damp=F
 DIIS: error= 5.08D-05 at cycle   7 NSaved=   7.
 NSaved= 7 IEnMin= 7 EnMin= -1136.11413916681     IErMin= 7 ErrMin= 5.08D-05
 ErrMax= 5.08D-05  0.00D+00 EMaxC= 1.00D-01 BMatC= 5.89D-07 BMatP= 3.77D-06
 IDIUse=1 WtCom= 1.00D+00 WtEn= 0.00D+00
 Coeff-Com: -0.360D-03 0.562D-03-0.587D-01-0.521D-01-0.851D-01 0.180D+00
 Coeff-Com:  0.102D+01
 Coeff:     -0.360D-03 0.562D-03-0.587D-01-0.521D-01-0.851D-01 0.180D+00
 Coeff:      0.102D+01
 Gap=     0.050 Goal=   None    Shift=    0.000
 Gap=     0.045 Goal=   None    Shift=    0.000
 RMSDP=7.56D-05 MaxDP=4.80D-03 DE=-9.87D-06 OVMax= 4.15D-03

 Cycle   8  Pass 1  IDiag  1:
 E= -1136.11414327113     Delta-E=       -0.000004104324 Rises=F Damp=F
 DIIS: error= 1.91D-05 at cycle   8 NSaved=   8.
 NSaved= 8 IEnMin= 8 EnMin= -1136.11414327113     IErMin= 8 ErrMin= 1.91D-05
 ErrMax= 1.91D-05  0.00D+00 EMaxC= 1.00D-01 BMatC= 1.38D-07 BMatP= 5.89D-07
 IDIUse=1 WtCom= 1.00D+00 WtEn= 0.00D+00
 Coeff-Com:  0.705D-03-0.848D-03 0.991D-02 0.471D-02-0.576D-01-0.129D+00
 Coeff-Com: -0.300D-01 0.120D+01
 Coeff:      0.705D-03-0.848D-03 0.991D-02 0.471D-02-0.576D-01-0.129D+00
 Coeff:     -0.300D-01 0.120D+01
 Gap=     0.050 Goal=   None    Shift=    0.000
 Gap=     0.045 Goal=   None    Shift=    0.000
 RMSDP=3.13D-05 MaxDP=1.58D-03 DE=-4.10D-06 OVMax= 2.95D-03

 Cycle   9  Pass 1  IDiag  1:
 E= -1136.11414484451     Delta-E=       -0.000001573373 Rises=F Damp=F
 DIIS: error= 1.34D-05 at cycle   9 NSaved=   9.
 NSaved= 9 IEnMin= 9 EnMin= -1136.11414484451     IErMin= 9 ErrMin= 1.34D-05
 ErrMax= 1.34D-05  0.00D+00 EMaxC= 1.00D-01 BMatC= 5.86D-08 BMatP= 1.38D-07
 IDIUse=1 WtCom= 1.00D+00 WtEn= 0.00D+00
 Coeff-Com:  0.193D-03-0.242D-03 0.202D-01 0.148D-01 0.481D-02-0.867D-01
 Coeff-Com: -0.319D+00 0.347D+00 0.102D+01
 Coeff:      0.193D-03-0.242D-03 0.202D-01 0.148D-01 0.481D-02-0.867D-01
 Coeff:     -0.319D+00 0.347D+00 0.102D+01
 Gap=     0.050 Goal=   None    Shift=    0.000
 Gap=     0.045 Goal=   None    Shift=    0.000
 RMSDP=2.20D-05 MaxDP=1.15D-03 DE=-1.57D-06 OVMax= 2.10D-03

 Cycle  10  Pass 1  IDiag  1:
 E= -1136.11414545932     Delta-E=       -0.000000614815 Rises=F Damp=F
 DIIS: error= 7.84D-06 at cycle  10 NSaved=  10.
 NSaved=10 IEnMin=10 EnMin= -1136.11414545932     IErMin=10 ErrMin= 7.84D-06
 ErrMax= 7.84D-06  0.00D+00 EMaxC= 1.00D-01 BMatC= 2.23D-08 BMatP= 5.86D-08
 IDIUse=1 WtCom= 1.00D+00 WtEn= 0.00D+00
 Coeff-Com: -0.436D-03 0.548D-03 0.374D-02 0.365D-02 0.281D-01 0.220D-01
 Coeff-Com: -0.130D+00-0.389D+00 0.454D+00 0.101D+01
 Coeff:     -0.436D-03 0.548D-03 0.374D-02 0.365D-02 0.281D-01 0.220D-01
 Coeff:     -0.130D+00-0.389D+00 0.454D+00 0.101D+01
 Gap=     0.050 Goal=   None    Shift=    0.000
 Gap=     0.045 Goal=   None    Shift=    0.000
 RMSDP=1.70D-05 MaxDP=8.54D-04 DE=-6.15D-07 OVMax= 1.58D-03

 Cycle  11  Pass 1  IDiag  1:
 E= -1136.11414567440     Delta-E=       -0.000000215077 Rises=F Damp=F
 DIIS: error= 3.61D-06 at cycle  11 NSaved=  11.
 NSaved=11 IEnMin=11 EnMin= -1136.11414567440     IErMin=11 ErrMin= 3.61D-06
 ErrMax= 3.61D-06  0.00D+00 EMaxC= 1.00D-01 BMatC= 5.24D-09 BMatP= 2.23D-08
 IDIUse=1 WtCom= 1.00D+00 WtEn= 0.00D+00
 Coeff-Com: -0.223D-03 0.277D-03-0.271D-02-0.105D-02 0.102D-01 0.244D-01
 Coeff-Com:  0.175D-01-0.232D+00-0.448D-01 0.433D+00 0.795D+00
 Coeff:     -0.223D-03 0.277D-03-0.271D-02-0.105D-02 0.102D-01 0.244D-01
 Coeff:      0.175D-01-0.232D+00-0.448D-01 0.433D+00 0.795D+00
 Gap=     0.050 Goal=   None    Shift=    0.000
 Gap=     0.045 Goal=   None    Shift=    0.000
 RMSDP=5.99D-06 MaxDP=2.77D-04 DE=-2.15D-07 OVMax= 5.09D-04

 Cycle  12  Pass 1  IDiag  1:
 E= -1136.11414570171     Delta-E=       -0.000000027307 Rises=F Damp=F
 DIIS: error= 1.28D-06 at cycle  12 NSaved=  12.
 NSaved=12 IEnMin=12 EnMin= -1136.11414570171     IErMin=12 ErrMin= 1.28D-06
 ErrMax= 1.28D-06  0.00D+00 EMaxC= 1.00D-01 BMatC= 7.02D-10 BMatP= 5.24D-09
 IDIUse=1 WtCom= 1.00D+00 WtEn= 0.00D+00
 Coeff-Com:  0.120D-03-0.154D-03-0.148D-02-0.109D-02-0.737D-02-0.318D-02
 Coeff-Com:  0.464D-01 0.677D-01-0.136D+00-0.213D+00 0.110D+00 0.114D+01
 Coeff:      0.120D-03-0.154D-03-0.148D-02-0.109D-02-0.737D-02-0.318D-02
 Coeff:      0.464D-01 0.677D-01-0.136D+00-0.213D+00 0.110D+00 0.114D+01
 Gap=     0.050 Goal=   None    Shift=    0.000
 Gap=     0.045 Goal=   None    Shift=    0.000
 RMSDP=3.49D-06 MaxDP=1.67D-04 DE=-2.73D-08 OVMax= 2.11D-04

 Cycle  13  Pass 1  IDiag  1:
 E= -1136.11414570638     Delta-E=       -0.000000004677 Rises=F Damp=F
 DIIS: error= 3.94D-07 at cycle  13 NSaved=  13.
 NSaved=13 IEnMin=13 EnMin= -1136.11414570638     IErMin=13 ErrMin= 3.94D-07
 ErrMax= 3.94D-07  0.00D+00 EMaxC= 1.00D-01 BMatC= 6.29D-11 BMatP= 7.02D-10
 IDIUse=1 WtCom= 1.00D+00 WtEn= 0.00D+00
 Coeff-Com:  0.430D-04-0.542D-04 0.182D-03-0.121D-03-0.120D-02-0.244D-02
 Coeff-Com: -0.803D-03 0.302D-01 0.106D-02-0.614D-01-0.854D-01 0.559D-01
 Coeff-Com:  0.106D+01
 Coeff:      0.430D-04-0.542D-04 0.182D-03-0.121D-03-0.120D-02-0.244D-02
 Coeff:     -0.803D-03 0.302D-01 0.106D-02-0.614D-01-0.854D-01 0.559D-01
 Coeff:      0.106D+01
 Gap=     0.050 Goal=   None    Shift=    0.000
 Gap=     0.045 Goal=   None    Shift=    0.000
 RMSDP=6.94D-07 MaxDP=2.47D-05 DE=-4.68D-09 OVMax= 4.03D-05

 Cycle  14  Pass 1  IDiag  1:
 E= -1136.11414570675     Delta-E=       -0.000000000362 Rises=F Damp=F
 DIIS: error= 1.65D-07 at cycle  14 NSaved=  14.
 NSaved=14 IEnMin=14 EnMin= -1136.11414570675     IErMin=14 ErrMin= 1.65D-07
 ErrMax= 1.65D-07  0.00D+00 EMaxC= 1.00D-01 BMatC= 8.50D-12 BMatP= 6.29D-11
 IDIUse=1 WtCom= 1.00D+00 WtEn= 0.00D+00
 Coeff-Com: -0.301D-04 0.391D-04 0.117D-03 0.176D-03 0.120D-02 0.984D-03
 Coeff-Com: -0.596D-02-0.136D-01 0.145D-01 0.402D-01 0.669D-02-0.158D+00
 Coeff-Com: -0.166D+00 0.128D+01
 Coeff:     -0.301D-04 0.391D-04 0.117D-03 0.176D-03 0.120D-02 0.984D-03
 Coeff:     -0.596D-02-0.136D-01 0.145D-01 0.402D-01 0.669D-02-0.158D+00
 Coeff:     -0.166D+00 0.128D+01
 Gap=     0.050 Goal=   None    Shift=    0.000
 Gap=     0.045 Goal=   None    Shift=    0.000
 RMSDP=2.69D-07 MaxDP=1.54D-05 DE=-3.62D-10 OVMax= 1.67D-05

 Cycle  15  Pass 1  IDiag  1:
 E= -1136.11414570681     Delta-E=       -0.000000000065 Rises=F Damp=F
 DIIS: error= 9.28D-08 at cycle  15 NSaved=  15.
 NSaved=15 IEnMin=15 EnMin= -1136.11414570681     IErMin=15 ErrMin= 9.28D-08
 ErrMax= 9.28D-08  0.00D+00 EMaxC= 1.00D-01 BMatC= 1.96D-12 BMatP= 8.50D-12
 IDIUse=1 WtCom= 1.00D+00 WtEn= 0.00D+00
 Coeff-Com: -0.113D-04 0.145D-04 0.481D-05 0.509D-04 0.399D-03 0.527D-03
 Coeff-Com: -0.997D-03-0.713D-02 0.379D-02 0.153D-01 0.842D-02-0.312D-01
 Coeff-Com: -0.169D+00 0.248D+00 0.932D+00
 Coeff:     -0.113D-04 0.145D-04 0.481D-05 0.509D-04 0.399D-03 0.527D-03
 Coeff:     -0.997D-03-0.713D-02 0.379D-02 0.153D-01 0.842D-02-0.312D-01
 Coeff:     -0.169D+00 0.248D+00 0.932D+00
 Gap=     0.050 Goal=   None    Shift=    0.000
 Gap=     0.045 Goal=   None    Shift=    0.000
 RMSDP=1.08D-07 MaxDP=6.38D-06 DE=-6.46D-11 OVMax= 7.17D-06

 Cycle  16  Pass 1  IDiag  1:
 E= -1136.11414570683     Delta-E=       -0.000000000024 Rises=F Damp=F
 DIIS: error= 5.03D-08 at cycle  16 NSaved=  16.
 NSaved=16 IEnMin=16 EnMin= -1136.11414570683     IErMin=16 ErrMin= 5.03D-08
 ErrMax= 5.03D-08  0.00D+00 EMaxC= 1.00D-01 BMatC= 6.64D-13 BMatP= 1.96D-12
 IDIUse=1 WtCom= 1.00D+00 WtEn= 0.00D+00
 Coeff-Com:  0.679D-05-0.901D-05-0.342D-04-0.327D-04-0.254D-03-0.175D-03
 Coeff-Com:  0.161D-02 0.217D-02-0.413D-02-0.748D-02 0.290D-02 0.395D-01
 Coeff-Com: -0.198D-01-0.314D+00 0.349D+00 0.950D+00
 Coeff:      0.679D-05-0.901D-05-0.342D-04-0.327D-04-0.254D-03-0.175D-03
 Coeff:      0.161D-02 0.217D-02-0.413D-02-0.748D-02 0.290D-02 0.395D-01
 Coeff:     -0.198D-01-0.314D+00 0.349D+00 0.950D+00
 Gap=     0.050 Goal=   None    Shift=    0.000
 Gap=     0.045 Goal=   None    Shift=    0.000
 RMSDP=7.35D-08 MaxDP=3.83D-06 DE=-2.41D-11 OVMax= 4.42D-06

 Cycle  17  Pass 1  IDiag  1:
 E= -1136.11414570683     Delta-E=        0.000000000002 Rises=F Damp=F
 DIIS: error= 1.79D-08 at cycle  17 NSaved=  17.
 NSaved=17 IEnMin=16 EnMin= -1136.11414570683     IErMin=17 ErrMin= 1.79D-08
 ErrMax= 1.79D-08  0.00D+00 EMaxC= 1.00D-01 BMatC= 1.16D-13 BMatP= 6.64D-13
 IDIUse=1 WtCom= 1.00D+00 WtEn= 0.00D+00
 Coeff-Com:  0.513D-05-0.670D-05-0.163D-04-0.283D-04-0.196D-03-0.169D-03
 Coeff-Com:  0.933D-03 0.231D-02-0.258D-02-0.630D-02-0.298D-03 0.235D-01
 Coeff-Com:  0.275D-01-0.194D+00-0.558D-02 0.323D+00 0.832D+00
 Coeff:      0.513D-05-0.670D-05-0.163D-04-0.283D-04-0.196D-03-0.169D-03
 Coeff:      0.933D-03 0.231D-02-0.258D-02-0.630D-02-0.298D-03 0.235D-01
 Coeff:      0.275D-01-0.194D+00-0.558D-02 0.323D+00 0.832D+00
 Gap=     0.050 Goal=   None    Shift=    0.000
 Gap=     0.045 Goal=   None    Shift=    0.000
 RMSDP=2.87D-08 MaxDP=1.30D-06 DE= 1.82D-12 OVMax= 1.60D-06

 Cycle  18  Pass 1  IDiag  1:
 E= -1136.11414570684     Delta-E=       -0.000000000006 Rises=F Damp=F
 DIIS: error= 7.46D-09 at cycle  18 NSaved=  18.
 NSaved=18 IEnMin=18 EnMin= -1136.11414570684     IErMin=18 ErrMin= 7.46D-09
 ErrMax= 7.46D-09  0.00D+00 EMaxC= 1.00D-01 BMatC= 1.21D-14 BMatP= 1.16D-13
 IDIUse=1 WtCom= 1.00D+00 WtEn= 0.00D+00
 Coeff-Com: -0.943D-06 0.126D-05 0.551D-05 0.444D-05 0.337D-04 0.173D-04
 Coeff-Com: -0.244D-03-0.202D-03 0.604D-03 0.878D-03-0.744D-03-0.544D-02
 Coeff-Com:  0.696D-02 0.446D-01-0.799D-01-0.126D+00-0.330D-02 0.116D+01
 Coeff:     -0.943D-06 0.126D-05 0.551D-05 0.444D-05 0.337D-04 0.173D-04
 Coeff:     -0.244D-03-0.202D-03 0.604D-03 0.878D-03-0.744D-03-0.544D-02
 Coeff:      0.696D-02 0.446D-01-0.799D-01-0.126D+00-0.330D-02 0.116D+01
 Gap=     0.050 Goal=   None    Shift=    0.000
 Gap=     0.045 Goal=   None    Shift=    0.000
 RMSDP=1.45D-08 MaxDP=7.85D-07 DE=-6.37D-12 OVMax= 7.08D-07

 Cycle  19  Pass 1  IDiag  1:
 E= -1136.11414570683     Delta-E=        0.000000000008 Rises=F Damp=F
 DIIS: error= 1.92D-09 at cycle  19 NSaved=  19.
 NSaved=19 IEnMin=18 EnMin= -1136.11414570684     IErMin=19 ErrMin= 1.92D-09
 ErrMax= 1.92D-09  0.00D+00 EMaxC= 1.00D-01 BMatC= 1.45D-15 BMatP= 1.21D-14
 IDIUse=1 WtCom= 1.00D+00 WtEn= 0.00D+00
 Large coefficients: NSaved= 19 BigCof=    0.00 CofMax=   10.00 Det=-3.52D-15
 Inversion failed.  Reducing to 18 matrices.
 Large coefficients: NSaved= 18 BigCof=    0.00 CofMax=   10.00 Det=-4.00D-15
 Inversion failed.  Reducing to 17 matrices.
 Large coefficients: NSaved= 17 BigCof=    0.00 CofMax=   10.00 Det=-4.01D-15
 Inversion failed.  Reducing to 16 matrices.
 Large coefficients: NSaved= 16 BigCof=    0.00 CofMax=   10.00 Det=-4.01D-15
 Inversion failed.  Reducing to 15 matrices.
 Coeff-Com:  0.471D-06-0.263D-05-0.999D-05 0.321D-04 0.369D-04-0.446D-04
 Coeff-Com: -0.180D-03-0.140D-03 0.103D-02 0.359D-02-0.140D-02-0.149D-01
 Coeff-Com: -0.445D-01-0.120D-01 0.107D+01
 Coeff:      0.471D-06-0.263D-05-0.999D-05 0.321D-04 0.369D-04-0.446D-04
 Coeff:     -0.180D-03-0.140D-03 0.103D-02 0.359D-02-0.140D-02-0.149D-01
 Coeff:     -0.445D-01-0.120D-01 0.107D+01
 Gap=     0.050 Goal=   None    Shift=    0.000
 Gap=     0.045 Goal=   None    Shift=    0.000
 RMSDP=4.22D-09 MaxDP=3.21D-07 DE= 7.96D-12 OVMax= 1.83D-07

 SCF Done:  E(UB3LYP) =  -1136.11414571     A.U. after   19 cycles
            NFock= 19  Conv=0.42D-08     -V/T= 2.0028
 <Sx>= 0.0000 <Sy>= 0.0000 <Sz>= 0.5000 <S**2>= 0.7744 S= 0.5121
 <L.S>= 0.000000000000E+00
 KE= 1.132892769052D+03 PE=-3.259982519474D+03 EE= 7.255349409540D+02
 Annihilation of the first spin contaminant:
 S**2 before annihilation     0.7744,   after     0.7501
 Leave Link  502 at Tue Nov 28 21:51:03 2023, MaxMem=  1879048192 cpu:             149.3 elap:              14.0
 (Enter /home/sekinelabo/g16/l601.exe)
 Copying SCF densities to generalized density rwf, IOpCl= 1 IROHF=0.

 **********************************************************************

            Population analysis using the SCF Density.

 **********************************************************************

 Orbital symmetries:
 Alpha Orbitals:
       Occupied  (A) (A) (A) (A) (A) (A) (A) (A) (A) (A) (A) (A)
                 (A) (A) (A) (A) (A) (A) (A) (A) (A) (A) (A) (A)
                 (A) (A) (A) (A) (A) (A) (A) (A) (A) (A) (A) (A)
                 (A) (A) (A)
       Virtual   (A) (A) (A) (A) (A) (A) (A) (A) (A) (A) (A) (A)
                 (A) (A) (A) (A) (A) (A) (A) (A) (A) (A) (A) (A)
                 (A) (A) (A) (A) (A) (A) (A) (A) (A) (A) (A) (A)
                 (A) (A) (A) (A) (A) (A) (A) (A) (A) (A) (A) (A)
                 (A) (A) (A) (A) (A) (A) (A) (A) (A) (A) (A) (A)
                 (A) (A) (A) (A) (A) (A) (A) (A) (A) (A) (A) (A)
                 (A) (A) (A) (A) (A) (A) (A) (A) (A) (A) (A) (A)
                 (A) (A) (A) (A) (A) (A) (A) (A) (A) (A) (A) (A)
                 (A) (A) (A) (A) (A) (A) (A) (A) (A) (A) (A) (A)
                 (A) (A) (A) (A) (A) (A) (A) (A) (A) (A) (A) (A)
                 (A) (A) (A) (A) (A) (A) (A) (A) (A) (A) (A) (A)
                 (A) (A) (A) (A) (A) (A) (A) (A) (A) (A) (A) (A)
                 (A) (A) (A) (A) (A) (A) (A) (A) (A) (A) (A) (A)
                 (A) (A) (A) (A) (A) (A) (A) (A) (A) (A) (A) (A)
                 (A) (A) (A)
 Beta  Orbitals:
       Occupied  (A) (A) (A) (A) (A) (A) (A) (A) (A) (A) (A) (A)
                 (A) (A) (A) (A) (A) (A) (A) (A) (A) (A) (A) (A)
                 (A) (A) (A) (A) (A) (A) (A) (A) (A) (A) (A) (A)
                 (A) (A)
       Virtual   (A) (A) (A) (A) (A) (A) (A) (A) (A) (A) (A) (A)
                 (A) (A) (A) (A) (A) (A) (A) (A) (A) (A) (A) (A)
                 (A) (A) (A) (A) (A) (A) (A) (A) (A) (A) (A) (A)
                 (A) (A) (A) (A) (A) (A) (A) (A) (A) (A) (A) (A)
                 (A) (A) (A) (A) (A) (A) (A) (A) (A) (A) (A) (A)
                 (A) (A) (A) (A) (A) (A) (A) (A) (A) (A) (A) (A)
                 (A) (A) (A) (A) (A) (A) (A) (A) (A) (A) (A) (A)
                 (A) (A) (A) (A) (A) (A) (A) (A) (A) (A) (A) (A)
                 (A) (A) (A) (A) (A) (A) (A) (A) (A) (A) (A) (A)
                 (A) (A) (A) (A) (A) (A) (A) (A) (A) (A) (A) (A)
                 (A) (A) (A) (A) (A) (A) (A) (A) (A) (A) (A) (A)
                 (A) (A) (A) (A) (A) (A) (A) (A) (A) (A) (A) (A)
                 (A) (A) (A) (A) (A) (A) (A) (A) (A) (A) (A) (A)
                 (A) (A) (A) (A) (A) (A) (A) (A) (A) (A) (A) (A)
                 (A) (A) (A) (A)
 The electronic state is 2-A.
 Alpha  occ. eigenvalues --  -38.44880 -38.44428 -38.44295 -38.44228 -38.44145
 Alpha  occ. eigenvalues --  -38.43761 -38.43754  -2.20741  -2.20304  -2.20091
 Alpha  occ. eigenvalues --   -2.20051  -2.19966  -2.19588  -2.19561  -1.14432
 Alpha  occ. eigenvalues --   -1.14419  -1.14338  -1.13997  -1.13969  -1.13911
 Alpha  occ. eigenvalues --   -1.13759  -1.13755  -1.13716  -1.13710  -1.13708
 Alpha  occ. eigenvalues --   -1.13679  -1.13628  -1.13621  -1.13573  -1.13446
 Alpha  occ. eigenvalues --   -1.13243  -1.13240  -1.13194  -1.13193  -1.13085
 Alpha  occ. eigenvalues --   -0.17053  -0.13404  -0.12211  -0.11646
 Alpha virt. eigenvalues --   -0.06602  -0.05083  -0.04751  -0.03353  -0.03133
 Alpha virt. eigenvalues --   -0.02696  -0.02142  -0.01558  -0.01265  -0.01129
 Alpha virt. eigenvalues --   -0.00341  -0.00170   0.00252   0.00347   0.00433
 Alpha virt. eigenvalues --    0.00594   0.00883   0.01041   0.01152   0.01255
 Alpha virt. eigenvalues --    0.01291   0.01433   0.01566   0.01680   0.01732
 Alpha virt. eigenvalues --    0.01821   0.01942   0.02125   0.02254   0.02357
 Alpha virt. eigenvalues --    0.02440   0.02510   0.02711   0.02852   0.02933
 Alpha virt. eigenvalues --    0.03009   0.03099   0.03374   0.03455   0.03545
 Alpha virt. eigenvalues --    0.03689   0.03770   0.03888   0.04150   0.04273
 Alpha virt. eigenvalues --    0.04421   0.04761   0.04918   0.05327   0.05538
 Alpha virt. eigenvalues --    0.05707   0.06303   0.06566   0.06991   0.07416
 Alpha virt. eigenvalues --    0.07682   0.07831   0.07936   0.08282   0.08476
 Alpha virt. eigenvalues --    0.08834   0.08893   0.09257   0.09617   0.09882
 Alpha virt. eigenvalues --    0.10419   0.10477   0.11082   0.11369   0.11517
 Alpha virt. eigenvalues --    0.11869   0.12142   0.12811   0.13249   0.13639
 Alpha virt. eigenvalues --    0.13730   0.14511   0.15611   0.16529   0.17619
 Alpha virt. eigenvalues --    0.24987   0.27075   0.28688   0.28938   0.30243
 Alpha virt. eigenvalues --    0.30419   0.30915   0.31112   0.32018   0.32173
 Alpha virt. eigenvalues --    0.32996   0.33247   0.33541   0.34777   0.35530
 Alpha virt. eigenvalues --    0.36413   0.37046   0.37885   0.38986   0.39169
 Alpha virt. eigenvalues --    0.39930   0.40878   0.42382   0.43122   0.43307
 Alpha virt. eigenvalues --    0.43638   0.43723   0.43908   0.44053   0.44170
 Alpha virt. eigenvalues --    0.44456   0.44571   0.44931   0.45081   0.45649
 Alpha virt. eigenvalues --    0.46079   0.46096   0.46362   0.47008   0.47792
 Alpha virt. eigenvalues --    0.48716   0.48925   0.50196   0.50613   0.51388
 Alpha virt. eigenvalues --    0.52152   0.52364   0.52792   0.54549   0.56063
 Alpha virt. eigenvalues --    0.58087   0.59514   0.59992   0.62504   0.67582
 Alpha virt. eigenvalues --    0.76802   2.02658   2.07139   2.10331   2.12817
 Alpha virt. eigenvalues --    2.14421   2.17391   2.21141   4.42572   4.42998
 Alpha virt. eigenvalues --    4.43529   4.43836   4.43990   4.44441   4.44691
 Alpha virt. eigenvalues --    4.44778   4.45114   4.45245   4.46170   4.46964
 Alpha virt. eigenvalues --    4.47254   4.47906   4.48089   4.50475   4.50654
 Alpha virt. eigenvalues --    4.55107   4.56159   4.56709   4.70655  96.22055
 Alpha virt. eigenvalues --   96.27258  96.31506  96.34221  96.37493  96.39669
 Alpha virt. eigenvalues --   96.44956
  Beta  occ. eigenvalues --  -38.44825 -38.44371 -38.44291 -38.44181 -38.44096
  Beta  occ. eigenvalues --  -38.43760 -38.43757  -2.20643  -2.20202  -2.20083
  Beta  occ. eigenvalues --   -2.19966  -2.19877  -2.19589  -2.19563  -1.14365
  Beta  occ. eigenvalues --   -1.14351  -1.14252  -1.13931  -1.13906  -1.13821
  Beta  occ. eigenvalues --   -1.13752  -1.13742  -1.13702  -1.13654  -1.13646
  Beta  occ. eigenvalues --   -1.13620  -1.13570  -1.13550  -1.13509  -1.13448
  Beta  occ. eigenvalues --   -1.13243  -1.13241  -1.13196  -1.13194  -1.13087
  Beta  occ. eigenvalues --   -0.16251  -0.13409  -0.12019
  Beta virt. eigenvalues --   -0.07508  -0.06448  -0.04884  -0.04277  -0.03100
  Beta virt. eigenvalues --   -0.02649  -0.02362  -0.01930  -0.01497  -0.01072
  Beta virt. eigenvalues --   -0.00699  -0.00097   0.00013   0.00373   0.00466
  Beta virt. eigenvalues --    0.00521   0.00644   0.00964   0.01079   0.01230
  Beta virt. eigenvalues --    0.01338   0.01355   0.01552   0.01613   0.01732
  Beta virt. eigenvalues --    0.01843   0.01915   0.02030   0.02256   0.02323
  Beta virt. eigenvalues --    0.02426   0.02478   0.02571   0.02728   0.02909
  Beta virt. eigenvalues --    0.03001   0.03068   0.03234   0.03478   0.03520
  Beta virt. eigenvalues --    0.03621   0.03764   0.03927   0.03965   0.04185
  Beta virt. eigenvalues --    0.04336   0.04503   0.04842   0.05049   0.05397
  Beta virt. eigenvalues --    0.05595   0.05790   0.06437   0.06770   0.07049
  Beta virt. eigenvalues --    0.07530   0.07733   0.07940   0.08171   0.08365
  Beta virt. eigenvalues --    0.08519   0.08891   0.08981   0.09523   0.09800
  Beta virt. eigenvalues --    0.09980   0.10463   0.10811   0.11473   0.11553
  Beta virt. eigenvalues --    0.11725   0.12007   0.12250   0.12887   0.13562
  Beta virt. eigenvalues --    0.13889   0.14007   0.14614   0.15800   0.16664
  Beta virt. eigenvalues --    0.17836   0.25453   0.27600   0.29118   0.29358
  Beta virt. eigenvalues --    0.30495   0.30757   0.31187   0.31296   0.32124
  Beta virt. eigenvalues --    0.32517   0.33055   0.33380   0.33634   0.34917
  Beta virt. eigenvalues --    0.35877   0.36600   0.37308   0.38124   0.39004
  Beta virt. eigenvalues --    0.39266   0.40335   0.41161   0.42616   0.43257
  Beta virt. eigenvalues --    0.43432   0.43685   0.43886   0.43988   0.44170
  Beta virt. eigenvalues --    0.44304   0.44659   0.44745   0.45041   0.45281
  Beta virt. eigenvalues --    0.45779   0.46188   0.46216   0.46459   0.47222
  Beta virt. eigenvalues --    0.48075   0.49004   0.49038   0.50343   0.50826
  Beta virt. eigenvalues --    0.51526   0.52273   0.52458   0.52902   0.54726
  Beta virt. eigenvalues --    0.56269   0.58290   0.59794   0.60235   0.62847
  Beta virt. eigenvalues --    0.67926   0.76799   2.02824   2.07142   2.10428
  Beta virt. eigenvalues --    2.13031   2.14428   2.17545   2.21357   4.42666
  Beta virt. eigenvalues --    4.43090   4.43542   4.43881   4.44019   4.44455
  Beta virt. eigenvalues --    4.44727   4.44795   4.45163   4.45305   4.46217
  Beta virt. eigenvalues --    4.47007   4.47274   4.47950   4.48101   4.50535
  Beta virt. eigenvalues --    4.50705   4.55205   4.56269   4.56770   4.70653
  Beta virt. eigenvalues --   96.22112  96.27259  96.31541  96.34290  96.37497
  Beta virt. eigenvalues --   96.39718  96.45028
          Condensed to atoms (all electrons):
               1          2          3          4          5          6
     1  Na  10.672171  -0.007399   0.186198  -0.056960   0.268023   0.051659
     2  Na  -0.007399  10.639671   0.176174  -0.187979   0.021457  -0.194401
     3  Na   0.186198   0.176174  11.111730  -0.086635  -0.025544  -0.468995
     4  Na  -0.056960  -0.187979  -0.086635  11.597452  -0.132721   0.218072
     5  Na   0.268023   0.021457  -0.025544  -0.132721  11.253313  -0.584804
     6  Na   0.051659  -0.194401  -0.468995   0.218072  -0.584804  13.583306
     7  Na  -0.031506   0.060610   0.133858  -0.196096   0.228140  -0.716493
               7
     1  Na  -0.031506
     2  Na   0.060610
     3  Na   0.133858
     4  Na  -0.196096
     5  Na   0.228140
     6  Na  -0.716493
     7  Na  10.833046
          Atomic-Atomic Spin Densities.
               1          2          3          4          5          6
     1  Na   0.246840   0.013200  -0.028425  -0.136903   0.198361  -0.017084
     2  Na   0.013200   0.016911  -0.024654  -0.037274   0.017771  -0.000539
     3  Na  -0.028425  -0.024654   0.209316   0.173203  -0.132175   0.025484
     4  Na  -0.136903  -0.037274   0.173203   0.653585  -0.357878   0.121480
     5  Na   0.198361   0.017771  -0.132175  -0.357878   0.616456  -0.183515
     6  Na  -0.017084  -0.000539   0.025484   0.121480  -0.183515   0.222818
     7  Na   0.007528   0.004870  -0.013712  -0.131477   0.132296  -0.215166
               7
     1  Na   0.007528
     2  Na   0.004870
     3  Na  -0.013712
     4  Na  -0.131477
     5  Na   0.132296
     6  Na  -0.215166
     7  Na   0.203289
 Mulliken charges and spin densities:
               1          2
     1  Na  -0.082185   0.283518
     2  Na   0.491868  -0.009714
     3  Na  -0.026786   0.209039
     4  Na  -0.155132   0.284737
     5  Na  -0.027863   0.291317
     6  Na  -0.888343  -0.046522
     7  Na   0.688441  -0.012373
 Sum of Mulliken charges =  -0.00000   1.00000
 Mulliken charges and spin densities with hydrogens summed into heavy atoms:
               1          2
     1  Na  -0.082185   0.283518
     2  Na   0.491868  -0.009714
     3  Na  -0.026786   0.209039
     4  Na  -0.155132   0.284737
     5  Na  -0.027863   0.291317
     6  Na  -0.888343  -0.046522
     7  Na   0.688441  -0.012373
 Electronic spatial extent (au):  <R**2>=           5707.8752
 Charge=             -0.0000 electrons
 Dipole moment (field-independent basis, Debye):
    X=              1.6897    Y=             -0.3153    Z=             -0.3630  Tot=              1.7568
 Quadrupole moment (field-independent basis, Debye-Ang):
   XX=            -58.3431   YY=            -69.9592   ZZ=            -69.7163
   XY=             -2.2023   XZ=              0.7172   YZ=              1.1055
 Traceless Quadrupole moment (field-independent basis, Debye-Ang):
   XX=              7.6631   YY=             -3.9530   ZZ=             -3.7101
   XY=             -2.2023   XZ=              0.7172   YZ=              1.1055
 Octapole moment (field-independent basis, Debye-Ang**2):
  XXX=              3.3127  YYY=              5.2072  ZZZ=              1.4193  XYY=             13.8482
  XXY=            -37.2683  XXZ=            -55.9846  XZZ=             16.4368  YZZ=             -6.1900
  YYZ=              0.6253  XYZ=             -2.3714
 Hexadecapole moment (field-independent basis, Debye-Ang**3):
 XXXX=          -6156.0820 YYYY=          -1059.0959 ZZZZ=           -372.0663 XXXY=             20.7632
 XXXZ=             63.2078 YYYX=            -27.6026 YYYZ=              0.6257 ZZZX=              9.9795
 ZZZY=              2.2580 XXYY=          -1531.3295 XXZZ=          -1422.7792 YYZZ=           -230.2416
 XXYZ=             53.3435 YYXZ=             13.0672 ZZXY=            -16.5733
 N-N= 2.654406637616D+02 E-N=-3.259982519196D+03  KE= 1.132892769052D+03
                          Isotropic Fermi Contact Couplings
        Atom                 a.u.       MegaHertz       Gauss      10(-4) cm-1
     1  Na(23)             0.19441     229.99821      82.06908      76.71915
     2  Na(23)             0.01146      13.56279       4.83954       4.52406
     3  Na(23)             0.20283     239.95819      85.62305      80.04144
     4  Na(23)             0.18603     220.08387      78.53140      73.41208
     5  Na(23)             0.17574     207.90044      74.18405      69.34812
     6  Na(23)             0.00700       8.28003       2.95452       2.76192
     7  Na(23)            -0.01215     -14.36926      -5.12731      -4.79307
 --------------------------------------------------------
       Center         ----  Spin Dipole Couplings  ----
                      3XX-RR        3YY-RR        3ZZ-RR
 --------------------------------------------------------
     1   Atom        0.014254     -0.001947     -0.012307
     2   Atom       -0.003024      0.007103     -0.004079
     3   Atom        0.006165      0.009123     -0.015288
     4   Atom        0.019883     -0.009885     -0.009998
     5   Atom        0.002909      0.000917     -0.003826
     6   Atom       -0.002292      0.001438      0.000854
     7   Atom        0.000678     -0.000267     -0.000411
 --------------------------------------------------------
                        XY            XZ            YZ
 --------------------------------------------------------
     1   Atom        0.018714      0.009888      0.009387
     2   Atom        0.002778     -0.000132     -0.001362
     3   Atom       -0.022782      0.000914     -0.001874
     4   Atom        0.012419      0.001565     -0.000617
     5   Atom       -0.014569      0.008958     -0.012775
     6   Atom       -0.002149     -0.000092     -0.000041
     7   Atom        0.000243      0.000134      0.000077
 --------------------------------------------------------


 ---------------------------------------------------------------------------------
              Anisotropic Spin Dipole Couplings in Principal Axis System
 ---------------------------------------------------------------------------------

       Atom             a.u.   MegaHertz   Gauss  10(-4) cm-1        Axes

              Baa    -0.0179    -2.533    -0.904    -0.845  0.0867 -0.5779  0.8115
     1 Na(23) Bbb    -0.0128    -1.808    -0.645    -0.603 -0.6084  0.6143  0.5025
              Bcc     0.0307     4.341     1.549     1.448  0.7888  0.5373  0.2984
 
              Baa    -0.0043    -0.608    -0.217    -0.203 -0.3065  0.1861  0.9335
     2 Na(23) Bbb    -0.0037    -0.517    -0.184    -0.172  0.9199 -0.1943  0.3407
              Bcc     0.0080     1.125     0.401     0.375  0.2448  0.9631 -0.1116
 
              Baa    -0.0159    -2.246    -0.801    -0.749  0.4529  0.4691  0.7582
     3 Na(23) Bbb    -0.0147    -2.070    -0.739    -0.690 -0.5734 -0.4980  0.6506
              Bcc     0.0306     4.316     1.540     1.440 -0.6827  0.7294 -0.0434
 
              Baa    -0.0147    -2.069    -0.738    -0.690 -0.3383  0.9113  0.2345
     4 Na(23) Bbb    -0.0098    -1.381    -0.493    -0.460  0.0462 -0.2328  0.9714
              Bcc     0.0244     3.450     1.231     1.151  0.9399  0.3395  0.0366
 
              Baa    -0.0152    -2.152    -0.768    -0.718  0.3041  0.7444  0.5945
     5 Na(23) Bbb    -0.0095    -1.343    -0.479    -0.448  0.7277  0.2212 -0.6493
              Bcc     0.0248     3.495     1.247     1.166 -0.6148  0.6301 -0.4744
 
              Baa    -0.0033    -0.462    -0.165    -0.154  0.9095  0.4149  0.0243
     6 Na(23) Bbb     0.0009     0.121     0.043     0.040 -0.0219 -0.0107  0.9997
              Bcc     0.0024     0.341     0.122     0.114 -0.4151  0.9098  0.0007
 
              Baa    -0.0004    -0.063    -0.022    -0.021 -0.0345 -0.3553  0.9341
     7 Na(23) Bbb    -0.0003    -0.044    -0.016    -0.015 -0.2677  0.9038  0.3339
              Bcc     0.0008     0.107     0.038     0.036  0.9629  0.2385  0.1263
 

 ---------------------------------------------------------------------------------

 No NMR shielding tensors so no spin-rotation constants.
 Leave Link  601 at Tue Nov 28 21:51:03 2023, MaxMem=  1879048192 cpu:               2.3 elap:               0.2
 (Enter /home/sekinelabo/g16/l701.exe)
 ... and contract with generalized density number  0.
 Compute integral first derivatives.
 Leave Link  701 at Tue Nov 28 21:51:03 2023, MaxMem=  1879048192 cpu:               1.5 elap:               0.1
 (Enter /home/sekinelabo/g16/l702.exe)
 L702 exits ... SP integral derivatives will be done elsewhere.
 Leave Link  702 at Tue Nov 28 21:51:03 2023, MaxMem=  1879048192 cpu:               0.4 elap:               0.0
 (Enter /home/sekinelabo/g16/l703.exe)
 Integral derivatives from FoFJK, PRISM(SPDF).
 Compute integral first derivatives, UseDBF=F ICtDFT=           0.
 Calling FoFJK, ICntrl=      2127 FMM=F ISym2X=0 I1Cent= 0 IOpClX= 1 NMat=1 NMatS=1 NMatT=0.
 FoFJK:  IHMeth= 1 ICntrl=    2127 DoSepK=F KAlg= 0 I1Cent=           0 FoldK=F
 IRaf=         0 NMat=       1 IRICut=       1 DoRegI=T DoRafI=F ISym2E= 0 IDoP0=0 IntGTp=1.
 FoFCou: FMM=F IPFlag=           0 FMFlag=      100000 FMFlg1=         800
         NFxFlg=           0 DoJE=F BraDBF=F KetDBF=F FulRan=T
         wScrn=  0.000000 ICntrl=      2127 IOpCl=  1 I1Cent=           0 NGrid=           0
         NMat0=    1 NMatS0=      1 NMatT0=    0 NMatD0=    1 NMtDS0=    0 NMtDT0=    0
 Symmetry not used in FoFCou.
 Leave Link  703 at Tue Nov 28 21:51:05 2023, MaxMem=  1879048192 cpu:              26.7 elap:               1.8
 (Enter /home/sekinelabo/g16/l716.exe)
 Dipole        = 6.64772528D-01-1.24041190D-01-1.42834154D-01
 ***** Axes restored to original set *****
 -------------------------------------------------------------------
 Center     Atomic                   Forces (Hartrees/Bohr)
 Number     Number              X              Y              Z
 -------------------------------------------------------------------
      1       11          -0.000295529    0.000759814   -0.002113734
      2       11          -0.000946717   -0.000466326    0.002089368
      3       11           0.001349007   -0.000350729   -0.001279457
      4       11          -0.001060509    0.001353306    0.000630704
      5       11           0.001027172   -0.000916212    0.002010793
      6       11          -0.001329737   -0.003456280   -0.004463288
      7       11           0.001256313    0.003076427    0.003125614
 -------------------------------------------------------------------
 Cartesian Forces:  Max     0.004463288 RMS     0.001926389
 Z-matrix is all fixed cartesians, so copy forces.
 Force constants in Cartesian coordinates: 
                1             2             3             4             5 
      1  0.576141D-01
      2 -0.705713D-02  0.289229D-01
      3  0.229711D-02  0.127229D-01  0.420496D-01
      4 -0.111227D-01  0.911094D-03  0.138183D-01  0.152662D-01
      5 -0.140300D-02 -0.406705D-02 -0.820463D-02 -0.578997D-02  0.145406D-01
      6 -0.223456D-02 -0.180301D-03 -0.181071D-01  0.385403D-02  0.147616D-02
      7 -0.210437D-01  0.139815D-01 -0.362050D-02 -0.807953D-02  0.631607D-02
      8  0.599699D-02 -0.143895D-01 -0.315882D-02  0.415646D-02 -0.165011D-01
      9  0.391251D-03 -0.810168D-02 -0.135303D-01 -0.135741D-01  0.104120D-01
     10 -0.400979D-02  0.179912D-02 -0.503485D-02  0.325614D-03 -0.113819D-02
     11  0.225886D-03  0.396675D-02  0.272720D-02  0.611274D-03  0.583860D-02
     12 -0.188991D-02  0.287051D-02  0.893210D-04 -0.367233D-03 -0.150502D-02
     13 -0.214378D-01 -0.963456D-02 -0.746011D-02  0.361039D-02  0.201509D-02
     14  0.223725D-02 -0.144331D-01 -0.408669D-02  0.111139D-03  0.188927D-03
     15  0.143611D-02 -0.731148D-02 -0.105016D-01 -0.373103D-02 -0.217852D-02
     16  0.000000D+00  0.000000D+00  0.000000D+00  0.000000D+00  0.000000D+00
     17  0.000000D+00  0.000000D+00  0.000000D+00  0.000000D+00  0.000000D+00
     18  0.000000D+00  0.000000D+00  0.000000D+00  0.000000D+00  0.000000D+00
     19  0.000000D+00  0.000000D+00  0.000000D+00  0.000000D+00  0.000000D+00
     20  0.000000D+00  0.000000D+00  0.000000D+00  0.000000D+00  0.000000D+00
     21  0.000000D+00  0.000000D+00  0.000000D+00  0.000000D+00  0.000000D+00
                6             7             8             9            10 
      6  0.375474D-01
      7 -0.151317D-02  0.334781D-01
      8 -0.330855D-02 -0.196123D-01  0.556324D-01
      9 -0.185346D-01  0.127061D-01  0.973630D-02  0.499067D-01
     10 -0.596054D-03 -0.841097D-02  0.839158D-02 -0.240156D-02  0.190819D-01
     11  0.201384D-02  0.605984D-03 -0.205418D-01 -0.971345D-02 -0.104215D-01
     12 -0.447765D-03 -0.942873D-02  0.175868D-02 -0.178715D-01  0.149634D-01
     13  0.489754D-03  0.405619D-02  0.106731D-02  0.287833D-02 -0.698680D-02
     14 -0.115527D-05 -0.129118D-02 -0.420005D-02 -0.233318D-02  0.136895D-02
     15 -0.457947D-03  0.185631D-02 -0.502761D-02  0.297109D-04 -0.693091D-02
     16  0.000000D+00  0.000000D+00  0.000000D+00  0.000000D+00  0.000000D+00
     17  0.000000D+00  0.000000D+00  0.000000D+00  0.000000D+00  0.000000D+00
     18  0.000000D+00  0.000000D+00  0.000000D+00  0.000000D+00  0.000000D+00
     19  0.000000D+00  0.000000D+00  0.000000D+00  0.000000D+00  0.000000D+00
     20  0.000000D+00  0.000000D+00  0.000000D+00  0.000000D+00  0.000000D+00
     21  0.000000D+00  0.000000D+00  0.000000D+00  0.000000D+00  0.000000D+00
               11            12            13            14            15 
     11  0.264096D-01
     12  0.110971D-02  0.248372D-01
     13  0.897832D-02 -0.327750D-02  0.207581D-01
     14 -0.156731D-01 -0.423388D-02 -0.242615D-02  0.341173D-01
     15  0.386270D-02 -0.660725D-02  0.736953D-02  0.106549D-01  0.175371D-01
     16  0.000000D+00  0.000000D+00  0.000000D+00  0.000000D+00  0.000000D+00
     17  0.000000D+00  0.000000D+00  0.000000D+00  0.000000D+00  0.000000D+00
     18  0.000000D+00  0.000000D+00  0.000000D+00  0.000000D+00  0.000000D+00
     19  0.000000D+00  0.000000D+00  0.000000D+00  0.000000D+00  0.000000D+00
     20  0.000000D+00  0.000000D+00  0.000000D+00  0.000000D+00  0.000000D+00
     21  0.000000D+00  0.000000D+00  0.000000D+00  0.000000D+00  0.000000D+00
               16            17            18            19            20 
     16  0.349964D-02
     17  0.848118D-02  0.205537D-01
     18  0.849288D-02  0.205820D-01  0.206104D-01
     19 -0.349964D-02 -0.848118D-02 -0.849288D-02  0.349964D-02
     20 -0.848118D-02 -0.205537D-01 -0.205820D-01  0.848118D-02  0.205537D-01
     21 -0.849288D-02 -0.205820D-01 -0.206104D-01  0.849288D-02  0.205820D-01
               21 
     21  0.206104D-01
 Leave Link  716 at Tue Nov 28 21:51:05 2023, MaxMem=  1879048192 cpu:               0.4 elap:               0.0
 (Enter /home/sekinelabo/g16/l103.exe)

 GradGradGradGradGradGradGradGradGradGradGradGradGradGradGradGradGradGrad
 Berny optimization.
 Search for a local minimum.
 Step number   1 out of a maximum of    2
 All quantities printed in internal units (Hartrees-Bohrs-Radians)
 Second derivative matrix not updated -- first step.
 ITU=  0
     Eigenvalues ---   -0.00000   0.00000   0.00000   0.00000   0.00013
     Eigenvalues ---    0.00913   0.02065   0.03369   0.04454   0.04735
     Eigenvalues ---    0.06665   0.06825   0.08871   0.08933   0.09783
 Eigenvalue     1 is  -2.22D-16 should be greater than     0.000000 Eigenvector:
                          Z7        X6        Y6        Y4        X7
   1                    0.49385   0.49266   0.39056  -0.28903  -0.28133
                          Y5        Y7        Z3        Z2        Z4
   1                   -0.22538   0.19282  -0.18723  -0.12978  -0.11962
 Eigenvalue     2 is   0.00D+00 Eigenvector:
                          Z6        Y7        X7        Y6        Z5
   1                    0.77304   0.40547   0.19688  -0.18422  -0.17271
                          Z1        Z4        Z2        Z3        X6
   1                   -0.16617  -0.16382  -0.16327  -0.16011  -0.12129
 Eigenvalue     3 is   1.55D-15 Eigenvector:
                          Z7        Y6        Y7        X7        Y2
   1                    0.50077   0.40370  -0.34606   0.32436  -0.31414
                          Z5        X6        Y4        Y5        Z1
   1                   -0.28979  -0.26768   0.22909   0.14023  -0.12370
 Eigenvalue     4 is   1.33D-07 Eigenvector:
                          X6        X5        Y4        Y6        X4
   1                    0.55873  -0.32227   0.31372  -0.30708  -0.27896
                          Y2        Y5        Z1        X2        Z4
   1                   -0.21986   0.21753  -0.21101   0.21062   0.19703
 Quadratic step=1.308D+01 exceeds max=3.000D-01 adjusted using Lamda=-4.873D-03.
 Angle between NR and scaled steps=  27.87 degrees.
 Angle between quadratic step and forces=  57.75 degrees.
 Linear search not attempted -- first point.
 B after Tr=     0.000000    0.000000    0.000000
         Rot=    1.000000   -0.000000   -0.000000   -0.000000 Ang=   0.00 deg.
 Variable       Old X    -DE/DX   Delta X   Delta X   Delta X     New X
                                 (Linear)    (Quad)   (Total)
    X1       24.78621  -0.00030   0.00000   0.01261   0.01261  24.79883
    Y1       27.93450   0.00076   0.00000   0.03467   0.03467  27.96917
    Z1       24.76297  -0.00211   0.00000   0.00461   0.00461  24.76758
    X2       26.60073  -0.00095   0.00000  -0.02083  -0.02083  26.57990
    Y2       26.05120  -0.00047   0.00000  -0.00038  -0.00038  26.05082
    Z2       18.55269   0.00209   0.00000   0.06168   0.06168  18.61436
    X3       29.47292   0.00135   0.00000   0.05099   0.05099  29.52391
    Y3       23.91826  -0.00035   0.00000   0.04050   0.04050  23.95876
    Z3       23.89842  -0.00128   0.00000   0.00540   0.00540  23.90382
    X4       31.92069  -0.00106   0.00000  -0.03724  -0.03724  31.88345
    Y4       25.85013   0.00135   0.00000   0.02119   0.02119  25.87132
    Z4       29.45667   0.00063   0.00000   0.07829   0.07829  29.53497
    X5       28.44775   0.00103   0.00000   0.01217   0.01217  28.45992
    Y5       31.39837  -0.00092   0.00000  -0.01764  -0.01764  31.38073
    Z5       28.46192   0.00201   0.00000   0.11746   0.11746  28.57938
    X6       30.12488  -0.00133   0.00000   0.00831   0.00831  30.13319
    Y6       32.07621  -0.00346   0.00000  -0.03059  -0.03059  32.04562
    Z6       37.08361  -0.00446   0.00000  -0.22992  -0.22992  36.85368
    X7       31.65159   0.00126   0.00000  -0.02603  -0.02603  31.62556
    Y7       35.77611   0.00308   0.00000  -0.04775  -0.04775  35.72836
    Z7       40.78860   0.00313   0.00000  -0.03751  -0.03751  40.75109
         Item               Value     Threshold  Converged?
 Maximum Force            0.004463     0.000450     NO 
 RMS     Force            0.001926     0.000300     NO 
 Maximum Displacement     0.229923     0.001800     NO 
 RMS     Displacement     0.065590     0.001200     NO 
 Predicted change in Energy=-9.314305D-04
 GradGradGradGradGradGradGradGradGradGradGradGradGradGradGradGradGradGrad

 Leave Link  103 at Tue Nov 28 21:51:05 2023, MaxMem=  1879048192 cpu:               0.2 elap:               0.0
 (Enter /home/sekinelabo/g16/l9999.exe)
 1\1\GINC-SEKINELABO-XA7R-R37\Force\UB3LYP\6-311+G(d)\Na7(2)\SEKINELABO
 \28-Nov-2023\0\\#P B3LYP/6-311+g(d) force\\DPGEN\\0,2\Na,13.1163,14.78
 23,13.104\Na,14.0765,13.7857,9.81766\Na,15.5964,12.657,12.6465\Na,16.8
 917,13.6793,15.5878\Na,15.0539,16.6153,15.0614\Na,15.9414,16.974,19.62
 38\Na,16.7493,18.9319,21.5844\\Version=ES64L-G16RevB.01\State=2-A\HF=-
 1136.1141457\S2=0.774376\S2-1=0.\S2A=0.750071\RMSD=4.222e-09\RMSF=1.92
 6e-03\Dipole=-0.1122086,-0.1148697,-0.6722533\Quadrupole=-2.7193922,-1
 .4099084,4.1293006,1.3643323,2.8933712,2.1315953\PG=C01 [X(Na7)]\\@


 A SOLDIER'S LIFE IS A LIFE OF HONOR, BUT A DOG WOULD NOT LEAD IT.
 -- PRINCE RUPERT, FOUNDER OF THE HUDSON'S BAY COMPANY
 Job cpu time:       0 days  0 hours  3 minutes 11.3 seconds.
 Elapsed time:       0 days  0 hours  0 minutes 16.9 seconds.
 File lengths (MBytes):  RWF=     32 Int=      0 D2E=      0 Chk=      4 Scr=      1
 Normal termination of Gaussian 16 at Tue Nov 28 21:51:05 2023.
