 Set GAUSS_MDEF to "14GB".
 Entering Gaussian System, Link 0=g16
 Initial command:
 /home/sekinelabo/g16/l1.exe "/home/sekinelabo/g16temp/Gau-739854.inp" -scrdir="/home/sekinelabo/g16temp/"
 Entering Link 1 = /home/sekinelabo/g16/l1.exe PID=    739856.
  
 Copyright (c) 1988-2017, Gaussian, Inc.  All Rights Reserved.
  
 This is part of the Gaussian(R) 16 program.  It is based on
 the Gaussian(R) 09 system (copyright 2009, Gaussian, Inc.),
 the Gaussian(R) 03 system (copyright 2003, Gaussian, Inc.),
 the Gaussian(R) 98 system (copyright 1998, Gaussian, Inc.),
 the Gaussian(R) 94 system (copyright 1995, Gaussian, Inc.),
 the Gaussian 92(TM) system (copyright 1992, Gaussian, Inc.),
 the Gaussian 90(TM) system (copyright 1990, Gaussian, Inc.),
 the Gaussian 88(TM) system (copyright 1988, Gaussian, Inc.),
 the Gaussian 86(TM) system (copyright 1986, Carnegie Mellon
 University), and the Gaussian 82(TM) system (copyright 1983,
 Carnegie Mellon University). Gaussian is a federally registered
 trademark of Gaussian, Inc.
  
 This software contains proprietary and confidential information,
 including trade secrets, belonging to Gaussian, Inc.
  
 This software is provided under written license and may be
 used, copied, transmitted, or stored only in accord with that
 written license.
  
 The following legend is applicable only to US Government
 contracts under FAR:
  
                    RESTRICTED RIGHTS LEGEND
  
 Use, reproduction and disclosure by the US Government is
 subject to restrictions as set forth in subparagraphs (a)
 and (c) of the Commercial Computer Software - Restricted
 Rights clause in FAR 52.227-19.
  
 Gaussian, Inc.
 340 Quinnipiac St., Bldg. 40, Wallingford CT 06492
  
  
 ---------------------------------------------------------------
 Warning -- This program may not be used in any manner that
 competes with the business of Gaussian, Inc. or will provide
 assistance to any competitor of Gaussian, Inc.  The licensee
 of this program is prohibited from giving any competitor of
 Gaussian, Inc. access to this program.  By using this program,
 the user acknowledges that Gaussian, Inc. is engaged in the
 business of creating and licensing software in the field of
 computational chemistry and represents and warrants to the
 licensee that it is not a competitor of Gaussian, Inc. and that
 it will not use this program in any manner prohibited above.
 ---------------------------------------------------------------
  

 Cite this work as:
 Gaussian 16, Revision B.01,
 M. J. Frisch, G. W. Trucks, H. B. Schlegel, G. E. Scuseria, 
 M. A. Robb, J. R. Cheeseman, G. Scalmani, V. Barone, 
 G. A. Petersson, H. Nakatsuji, X. Li, M. Caricato, A. V. Marenich, 
 J. Bloino, B. G. Janesko, R. Gomperts, B. Mennucci, H. P. Hratchian, 
 J. V. Ortiz, A. F. Izmaylov, J. L. Sonnenberg, D. Williams-Young, 
 F. Ding, F. Lipparini, F. Egidi, J. Goings, B. Peng, A. Petrone, 
 T. Henderson, D. Ranasinghe, V. G. Zakrzewski, J. Gao, N. Rega, 
 G. Zheng, W. Liang, M. Hada, M. Ehara, K. Toyota, R. Fukuda, 
 J. Hasegawa, M. Ishida, T. Nakajima, Y. Honda, O. Kitao, H. Nakai, 
 T. Vreven, K. Throssell, J. A. Montgomery, Jr., J. E. Peralta, 
 F. Ogliaro, M. J. Bearpark, J. J. Heyd, E. N. Brothers, K. N. Kudin, 
 V. N. Staroverov, T. A. Keith, R. Kobayashi, J. Normand, 
 K. Raghavachari, A. P. Rendell, J. C. Burant, S. S. Iyengar, 
 J. Tomasi, M. Cossi, J. M. Millam, M. Klene, C. Adamo, R. Cammi, 
 J. W. Ochterski, R. L. Martin, K. Morokuma, O. Farkas, 
 J. B. Foresman, and D. J. Fox, Gaussian, Inc., Wallingford CT, 2016.
 
 ******************************************
 Gaussian 16:  ES64L-G16RevB.01 20-Dec-2017
                29-Nov-2023 
 ******************************************
 %nproc=15
 Will use up to   15 processors via shared memory.
 -------------------------
 #P B3LYP/6-311+g(d) force
 -------------------------
 1/10=7,30=1,38=1/1,3;
 2/12=2,17=6,18=5,40=1/2;
 3/5=4,6=6,7=11,11=2,25=1,30=1,71=1,74=-5/1,2,3;
 4//1;
 5/5=2,38=5/2;
 6/7=2,8=2,9=2,10=2,28=1/1;
 7/29=1/1,2,3,16;
 1/10=7,30=1/3;
 99//99;
 Leave Link    1 at Wed Nov 29 17:02:22 2023, MaxMem=           0 cpu:               0.3 elap:               0.0
 (Enter /home/sekinelabo/g16/l101.exe)
 -----
 DPGEN
 -----
 Symbolic Z-matrix:
 Charge =  0 Multiplicity = 2
 Na                    17.1491   16.2661   14.6411 
 Na                    15.9973   12.7608   16.5743 
 Na                    14.8327   15.1769   18.7774 
 Na                    13.9075   16.3336   12.3428 
 Na                    15.3267   13.3277   13.0127 
 Na                    16.1859   17.94     16.6342 
 Na                    14.0263   15.6203   15.443 
 
 ITRead=  0  0  0  0  0  0  0
 MicOpt= -1 -1 -1 -1 -1 -1 -1
 NAtoms=      7 NQM=        7 NQMF=       0 NMMI=      0 NMMIF=      0
                NMic=       0 NMicF=      0.
                    Isotopes and Nuclear Properties:
 (Nuclear quadrupole moments (NQMom) in fm**2, nuclear magnetic moments (NMagM)
  in nuclear magnetons)

  Atom         1           2           3           4           5           6           7
 IAtWgt=          23          23          23          23          23          23          23
 AtmWgt=  22.9897697  22.9897697  22.9897697  22.9897697  22.9897697  22.9897697  22.9897697
 NucSpn=           3           3           3           3           3           3           3
 AtZEff=  -0.0000000  -0.0000000  -0.0000000  -0.0000000  -0.0000000  -0.0000000  -0.0000000
 NQMom=   10.4000000  10.4000000  10.4000000  10.4000000  10.4000000  10.4000000  10.4000000
 NMagM=    2.2175200   2.2175200   2.2175200   2.2175200   2.2175200   2.2175200   2.2175200
 AtZNuc=  11.0000000  11.0000000  11.0000000  11.0000000  11.0000000  11.0000000  11.0000000
 Leave Link  101 at Wed Nov 29 17:02:23 2023, MaxMem=  1879048192 cpu:               2.4 elap:               0.2
 (Enter /home/sekinelabo/g16/l103.exe)

 GradGradGradGradGradGradGradGradGradGradGradGradGradGradGradGradGradGrad
 Berny optimization.
 Initialization pass.
 Trust Radius=3.00D-01 FncErr=1.00D-07 GrdErr=1.00D-07 EigMax=2.50D+02 EigMin=1.00D-04
 Number of steps in this run=      2 maximum allowed number of steps=      2.
 GradGradGradGradGradGradGradGradGradGradGradGradGradGradGradGradGradGrad

 Leave Link  103 at Wed Nov 29 17:02:23 2023, MaxMem=  1879048192 cpu:               0.2 elap:               0.0
 (Enter /home/sekinelabo/g16/l202.exe)
                          Input orientation:                          
 ---------------------------------------------------------------------
 Center     Atomic      Atomic             Coordinates (Angstroms)
 Number     Number       Type             X           Y           Z
 ---------------------------------------------------------------------
      1         11           0       17.149100   16.266100   14.641100
      2         11           0       15.997300   12.760800   16.574300
      3         11           0       14.832700   15.176900   18.777400
      4         11           0       13.907500   16.333600   12.342800
      5         11           0       15.326700   13.327700   13.012700
      6         11           0       16.185900   17.940000   16.634200
      7         11           0       14.026300   15.620300   15.443000
 ---------------------------------------------------------------------
                    Distance matrix (angstroms):
                    1          2          3          4          5
     1  Na   0.000000
     2  Na   4.165457   0.000000
     3  Na   4.864262   3.470948   0.000000
     4  Na   3.974256   5.919270   6.602880   0.000000
     5  Na   3.821914   3.668252   6.074154   3.390919   0.000000
     6  Na   2.775274   5.182979   3.749557   5.117396   5.926786
     7  Na   3.288158   3.652591   3.459062   3.183418   3.585166
                    6          7
     6  Na   0.000000
     7  Na   3.385829   0.000000
 Stoichiometry    Na7(2)
 Framework group  C1[X(Na7)]
 Deg. of freedom    15
 Full point group                 C1      NOp   1
 Largest Abelian subgroup         C1      NOp   1
 Largest concise Abelian subgroup C1      NOp   1
                         Standard orientation:                         
 ---------------------------------------------------------------------
 Center     Atomic      Atomic             Coordinates (Angstroms)
 Number     Number       Type             X           Y           Z
 ---------------------------------------------------------------------
      1         11           0       -0.379116   -1.013142    1.849989
      2         11           0        1.123243    2.652817    0.563640
      3         11           0        3.304351    0.435713   -0.977365
      4         11           0       -3.099639   -1.171352   -1.042836
      5         11           0       -2.448809    1.840290    0.373061
      6         11           0        1.570999   -2.510784    0.563031
      7         11           0       -0.071029   -0.233543   -1.329521
 ---------------------------------------------------------------------
 Rotational constants (GHZ):           0.8029429           0.5723437           0.4416633
 Leave Link  202 at Wed Nov 29 17:02:23 2023, MaxMem=  1879048192 cpu:               0.0 elap:               0.0
 (Enter /home/sekinelabo/g16/l301.exe)
 Standard basis: 6-311+G(d) (5D, 7F)
 Ernie: Thresh=  0.10000D-02 Tol=  0.10000D-05 Strict=F.
 There are   217 symmetry adapted cartesian basis functions of A   symmetry.
 There are   210 symmetry adapted basis functions of A   symmetry.
   210 basis functions,   350 primitive gaussians,   217 cartesian basis functions
    39 alpha electrons       38 beta electrons
       nuclear repulsion energy       335.4592837174 Hartrees.
 IExCor=  402 DFT=T Ex+Corr=B3LYP ExCW=0 ScaHFX=  0.200000
 ScaDFX=  0.800000  0.720000  1.000000  0.810000 ScalE2=  1.000000  1.000000
 IRadAn=      5 IRanWt=     -1 IRanGd=            0 ICorTp=0 IEmpDi=  4
 NAtoms=    7 NActive=    7 NUniq=    7 SFac= 1.00D+00 NAtFMM=   60 NAOKFM=F Big=F
 Integral buffers will be    131072 words long.
 Raffenetti 2 integral format.
 Two-electron integral symmetry is turned on.
 Leave Link  301 at Wed Nov 29 17:02:23 2023, MaxMem=  1879048192 cpu:               0.5 elap:               0.0
 (Enter /home/sekinelabo/g16/l302.exe)
 NPDir=0 NMtPBC=     1 NCelOv=     1 NCel=       1 NClECP=     1 NCelD=      1
         NCelK=      1 NCelE2=     1 NClLst=     1 CellRange=     0.0.
 One-electron integrals computed using PRISM.
 One-electron integral symmetry used in STVInt
 NBasis=   210 RedAO= T EigKep=  2.65D-06  NBF=   210
 NBsUse=   210 1.00D-06 EigRej= -1.00D+00 NBFU=   210
 Precomputing XC quadrature grid using
 IXCGrd= 4 IRadAn=           5 IRanWt=          -1 IRanGd=           0 AccXCQ= 0.00D+00.
 Generated NRdTot=       0 NPtTot=           0 NUsed=           0 NTot=          32
 NSgBfM=   211   211   211   211   211 MxSgAt=     7 MxSgA2=     7.
 Leave Link  302 at Wed Nov 29 17:02:23 2023, MaxMem=  1879048192 cpu:               2.0 elap:               0.1
 (Enter /home/sekinelabo/g16/l303.exe)
 DipDrv:  MaxL=1.
 Leave Link  303 at Wed Nov 29 17:02:23 2023, MaxMem=  1879048192 cpu:               0.5 elap:               0.0
 (Enter /home/sekinelabo/g16/l401.exe)
 ExpMin= 7.60D-03 ExpMax= 3.62D+04 ExpMxC= 1.21D+03 IAcc=3 IRadAn=         5 AccDes= 0.00D+00
 Harris functional with IExCor=  402 and IRadAn=       5 diagonalized for initial guess.
 HarFok:  IExCor=  402 AccDes= 0.00D+00 IRadAn=         5 IDoV= 1 UseB2=F ITyADJ=14
 ICtDFT=  3500011 ScaDFX=  1.000000  1.000000  1.000000  1.000000
 FoFCou: FMM=F IPFlag=           0 FMFlag=      100000 FMFlg1=           0
         NFxFlg=           0 DoJE=T BraDBF=F KetDBF=T FulRan=T
         wScrn=  0.000000 ICntrl=       500 IOpCl=  0 I1Cent=   200000004 NGrid=           0
         NMat0=    1 NMatS0=      1 NMatT0=    0 NMatD0=    1 NMtDS0=    0 NMtDT0=    0
 Petite list used in FoFCou.
 Harris En= -1135.89742614419    
 JPrj=0 DoOrth=F DoCkMO=F.
 Initial guess <Sx>= 0.0000 <Sy>= 0.0000 <Sz>= 0.5000 <S**2>= 0.7500 S= 0.5000
 Leave Link  401 at Wed Nov 29 17:02:23 2023, MaxMem=  1879048192 cpu:               4.4 elap:               0.3
 (Enter /home/sekinelabo/g16/l502.exe)
 Keep R1 and R2 ints in memory in canonical form, NReq=506573335.
 FoFCou: FMM=F IPFlag=           0 FMFlag=           0 FMFlg1=           0
         NFxFlg=           0 DoJE=F BraDBF=F KetDBF=F FulRan=T
         wScrn=  0.000000 ICntrl=       600 IOpCl=  0 I1Cent=           0 NGrid=           0
         NMat0=    1 NMatS0=  22155 NMatT0=    0 NMatD0=    1 NMtDS0=    0 NMtDT0=    0
 Symmetry not used in FoFCou.
 Two-electron integral symmetry not used.
 UHF open shell SCF:
 Using DIIS extrapolation, IDIIS=  1040.
 NGot=  1879048192 LenX=  1388082565 LenY=  1388035035
 Requested convergence on RMS density matrix=1.00D-08 within 128 cycles.
 Requested convergence on MAX density matrix=1.00D-06.
 Requested convergence on             energy=1.00D-06.
 No special actions if energy rises.

 Cycle   1  Pass 1  IDiag  1:
 E= -1136.09060762429    
 DIIS: error= 1.07D-02 at cycle   1 NSaved=   1.
 NSaved= 1 IEnMin= 1 EnMin= -1136.09060762429     IErMin= 1 ErrMin= 1.07D-02
 ErrMax= 1.07D-02  0.00D+00 EMaxC= 1.00D-01 BMatC= 1.93D-01 BMatP= 1.93D-01
 IDIUse=3 WtCom= 8.93D-01 WtEn= 1.07D-01
 Coeff-Com:  0.100D+01
 Coeff-En:   0.100D+01
 Coeff:      0.100D+01
 Gap=     0.043 Goal=   None    Shift=    0.000
 Gap=     0.041 Goal=   None    Shift=    0.000
 GapD=    0.041 DampG=0.250 DampE=0.500 DampFc=0.2500 IDamp=-1.
 Damping current iteration by 2.50D-01
 RMSDP=4.83D-02 MaxDP=4.72D+00              OVMax= 2.39D-01

 Cycle   2  Pass 1  IDiag  1:
 E= -1136.10336067996     Delta-E=       -0.012753055669 Rises=F Damp=T
 DIIS: error= 7.08D-03 at cycle   2 NSaved=   2.
 NSaved= 2 IEnMin= 2 EnMin= -1136.10336067996     IErMin= 2 ErrMin= 7.08D-03
 ErrMax= 7.08D-03  0.00D+00 EMaxC= 1.00D-01 BMatC= 7.31D-02 BMatP= 1.93D-01
 IDIUse=3 WtCom= 9.29D-01 WtEn= 7.08D-02
 Coeff-Com: -0.126D+01 0.226D+01
 Coeff-En:   0.000D+00 0.100D+01
 Coeff:     -0.117D+01 0.217D+01
 Gap=     0.054 Goal=   None    Shift=    0.000
 Gap=     0.046 Goal=   None    Shift=    0.000
 RMSDP=1.96D-02 MaxDP=2.03D+00 DE=-1.28D-02 OVMax= 1.63D-01

 Cycle   3  Pass 1  IDiag  1:
 E= -1136.12501848899     Delta-E=       -0.021657809032 Rises=F Damp=F
 DIIS: error= 3.31D-03 at cycle   3 NSaved=   3.
 NSaved= 3 IEnMin= 3 EnMin= -1136.12501848899     IErMin= 3 ErrMin= 3.31D-03
 ErrMax= 3.31D-03  0.00D+00 EMaxC= 1.00D-01 BMatC= 2.71D-03 BMatP= 7.31D-02
 IDIUse=3 WtCom= 9.67D-01 WtEn= 3.31D-02
 Coeff-Com: -0.217D+00 0.380D+00 0.837D+00
 Coeff-En:   0.000D+00 0.000D+00 0.100D+01
 Coeff:     -0.209D+00 0.367D+00 0.842D+00
 Gap=     0.049 Goal=   None    Shift=    0.000
 Gap=     0.043 Goal=   None    Shift=    0.000
 RMSDP=1.05D-02 MaxDP=9.54D-01 DE=-2.17D-02 OVMax= 6.65D-02

 Cycle   4  Pass 1  IDiag  1:
 E= -1136.12514004294     Delta-E=       -0.000121553942 Rises=F Damp=F
 DIIS: error= 3.04D-03 at cycle   4 NSaved=   4.
 NSaved= 4 IEnMin= 4 EnMin= -1136.12514004294     IErMin= 4 ErrMin= 3.04D-03
 ErrMax= 3.04D-03  0.00D+00 EMaxC= 1.00D-01 BMatC= 2.53D-03 BMatP= 2.71D-03
 IDIUse=3 WtCom= 9.70D-01 WtEn= 3.04D-02
 Coeff-Com: -0.995D-02 0.132D-01 0.491D+00 0.506D+00
 Coeff-En:   0.000D+00 0.000D+00 0.488D+00 0.512D+00
 Coeff:     -0.965D-02 0.128D-01 0.491D+00 0.506D+00
 Gap=     0.051 Goal=   None    Shift=    0.000
 Gap=     0.044 Goal=   None    Shift=    0.000
 RMSDP=4.13D-03 MaxDP=3.73D-01 DE=-1.22D-04 OVMax= 4.16D-02

 Cycle   5  Pass 1  IDiag  1:
 E= -1136.12718537080     Delta-E=       -0.002045327861 Rises=F Damp=F
 DIIS: error= 4.03D-04 at cycle   5 NSaved=   5.
 NSaved= 5 IEnMin= 5 EnMin= -1136.12718537080     IErMin= 5 ErrMin= 4.03D-04
 ErrMax= 4.03D-04  0.00D+00 EMaxC= 1.00D-01 BMatC= 5.11D-05 BMatP= 2.53D-03
 IDIUse=3 WtCom= 9.96D-01 WtEn= 4.03D-03
 Coeff-Com: -0.587D-02 0.699D-02 0.273D+00 0.291D+00 0.435D+00
 Coeff-En:   0.000D+00 0.000D+00 0.000D+00 0.000D+00 0.100D+01
 Coeff:     -0.584D-02 0.696D-02 0.271D+00 0.290D+00 0.438D+00
 Gap=     0.052 Goal=   None    Shift=    0.000
 Gap=     0.044 Goal=   None    Shift=    0.000
 RMSDP=3.56D-04 MaxDP=2.19D-02 DE=-2.05D-03 OVMax= 1.16D-02

 Cycle   6  Pass 1  IDiag  1:
 E= -1136.12725002316     Delta-E=       -0.000064652364 Rises=F Damp=F
 DIIS: error= 1.16D-04 at cycle   6 NSaved=   6.
 NSaved= 6 IEnMin= 6 EnMin= -1136.12725002316     IErMin= 6 ErrMin= 1.16D-04
 ErrMax= 1.16D-04  0.00D+00 EMaxC= 1.00D-01 BMatC= 5.43D-06 BMatP= 5.11D-05
 IDIUse=3 WtCom= 9.99D-01 WtEn= 1.16D-03
 Coeff-Com: -0.131D-02 0.135D-02-0.594D-01-0.563D-01 0.192D+00 0.924D+00
 Coeff-En:   0.000D+00 0.000D+00 0.000D+00 0.000D+00 0.697D-02 0.993D+00
 Coeff:     -0.131D-02 0.135D-02-0.594D-01-0.563D-01 0.191D+00 0.924D+00
 Gap=     0.052 Goal=   None    Shift=    0.000
 Gap=     0.044 Goal=   None    Shift=    0.000
 RMSDP=3.72D-04 MaxDP=3.92D-02 DE=-6.47D-05 OVMax= 5.94D-03

 Cycle   7  Pass 1  IDiag  1:
 E= -1136.12726221037     Delta-E=       -0.000012187205 Rises=F Damp=F
 DIIS: error= 6.62D-05 at cycle   7 NSaved=   7.
 NSaved= 7 IEnMin= 7 EnMin= -1136.12726221037     IErMin= 7 ErrMin= 6.62D-05
 ErrMax= 6.62D-05  0.00D+00 EMaxC= 1.00D-01 BMatC= 1.58D-06 BMatP= 5.43D-06
 IDIUse=1 WtCom= 1.00D+00 WtEn= 0.00D+00
 Coeff-Com:  0.137D-03-0.334D-03-0.620D-01-0.616D-01 0.632D-01 0.500D+00
 Coeff-Com:  0.561D+00
 Coeff:      0.137D-03-0.334D-03-0.620D-01-0.616D-01 0.632D-01 0.500D+00
 Coeff:      0.561D+00
 Gap=     0.052 Goal=   None    Shift=    0.000
 Gap=     0.044 Goal=   None    Shift=    0.000
 RMSDP=9.52D-05 MaxDP=6.43D-03 DE=-1.22D-05 OVMax= 2.92D-03

 Cycle   8  Pass 1  IDiag  1:
 E= -1136.12726525812     Delta-E=       -0.000003047753 Rises=F Damp=F
 DIIS: error= 4.46D-05 at cycle   8 NSaved=   8.
 NSaved= 8 IEnMin= 8 EnMin= -1136.12726525812     IErMin= 8 ErrMin= 4.46D-05
 ErrMax= 4.46D-05  0.00D+00 EMaxC= 1.00D-01 BMatC= 5.03D-07 BMatP= 1.58D-06
 IDIUse=1 WtCom= 1.00D+00 WtEn= 0.00D+00
 Coeff-Com:  0.141D-02-0.179D-02-0.788D-02-0.908D-02-0.647D-01-0.209D+00
 Coeff-Com:  0.360D+00 0.931D+00
 Coeff:      0.141D-02-0.179D-02-0.788D-02-0.908D-02-0.647D-01-0.209D+00
 Coeff:      0.360D+00 0.931D+00
 Gap=     0.052 Goal=   None    Shift=    0.000
 Gap=     0.044 Goal=   None    Shift=    0.000
 RMSDP=8.39D-05 MaxDP=6.56D-03 DE=-3.05D-06 OVMax= 3.12D-03

 Cycle   9  Pass 1  IDiag  1:
 E= -1136.12726723223     Delta-E=       -0.000001974112 Rises=F Damp=F
 DIIS: error= 1.59D-05 at cycle   9 NSaved=   9.
 NSaved= 9 IEnMin= 9 EnMin= -1136.12726723223     IErMin= 9 ErrMin= 1.59D-05
 ErrMax= 1.59D-05  0.00D+00 EMaxC= 1.00D-01 BMatC= 6.93D-08 BMatP= 5.03D-07
 IDIUse=1 WtCom= 1.00D+00 WtEn= 0.00D+00
 Coeff-Com:  0.699D-03-0.873D-03 0.623D-02 0.475D-02-0.324D-01-0.132D+00
 Coeff-Com:  0.162D-01 0.278D+00 0.859D+00
 Coeff:      0.699D-03-0.873D-03 0.623D-02 0.475D-02-0.324D-01-0.132D+00
 Coeff:      0.162D-01 0.278D+00 0.859D+00
 Gap=     0.052 Goal=   None    Shift=    0.000
 Gap=     0.044 Goal=   None    Shift=    0.000
 RMSDP=4.70D-05 MaxDP=3.36D-03 DE=-1.97D-06 OVMax= 1.23D-03

 Cycle  10  Pass 1  IDiag  1:
 E= -1136.12726753834     Delta-E=       -0.000000306108 Rises=F Damp=F
 DIIS: error= 9.73D-06 at cycle  10 NSaved=  10.
 NSaved=10 IEnMin=10 EnMin= -1136.12726753834     IErMin=10 ErrMin= 9.73D-06
 ErrMax= 9.73D-06  0.00D+00 EMaxC= 1.00D-01 BMatC= 3.31D-08 BMatP= 6.93D-08
 IDIUse=1 WtCom= 1.00D+00 WtEn= 0.00D+00
 Coeff-Com: -0.556D-04 0.866D-04 0.647D-02 0.558D-02 0.289D-02-0.368D-02
 Coeff-Com: -0.112D+00-0.148D+00 0.497D+00 0.752D+00
 Coeff:     -0.556D-04 0.866D-04 0.647D-02 0.558D-02 0.289D-02-0.368D-02
 Coeff:     -0.112D+00-0.148D+00 0.497D+00 0.752D+00
 Gap=     0.052 Goal=   None    Shift=    0.000
 Gap=     0.044 Goal=   None    Shift=    0.000
 RMSDP=3.09D-05 MaxDP=2.53D-03 DE=-3.06D-07 OVMax= 7.45D-04

 Cycle  11  Pass 1  IDiag  1:
 E= -1136.12726764976     Delta-E=       -0.000000111422 Rises=F Damp=F
 DIIS: error= 3.75D-06 at cycle  11 NSaved=  11.
 NSaved=11 IEnMin=11 EnMin= -1136.12726764976     IErMin=11 ErrMin= 3.75D-06
 ErrMax= 3.75D-06  0.00D+00 EMaxC= 1.00D-01 BMatC= 4.20D-09 BMatP= 3.31D-08
 IDIUse=1 WtCom= 1.00D+00 WtEn= 0.00D+00
 Coeff-Com: -0.324D-03 0.420D-03-0.564D-04 0.166D-03 0.106D-01 0.342D-01
 Coeff-Com: -0.335D-01-0.116D+00-0.144D+00 0.186D+00 0.106D+01
 Coeff:     -0.324D-03 0.420D-03-0.564D-04 0.166D-03 0.106D-01 0.342D-01
 Coeff:     -0.335D-01-0.116D+00-0.144D+00 0.186D+00 0.106D+01
 Gap=     0.052 Goal=   None    Shift=    0.000
 Gap=     0.044 Goal=   None    Shift=    0.000
 RMSDP=1.63D-05 MaxDP=1.28D-03 DE=-1.11D-07 OVMax= 4.11D-04

 Cycle  12  Pass 1  IDiag  1:
 E= -1136.12726767429     Delta-E=       -0.000000024524 Rises=F Damp=F
 DIIS: error= 1.21D-06 at cycle  12 NSaved=  12.
 NSaved=12 IEnMin=12 EnMin= -1136.12726767429     IErMin=12 ErrMin= 1.21D-06
 ErrMax= 1.21D-06  0.00D+00 EMaxC= 1.00D-01 BMatC= 4.49D-10 BMatP= 4.20D-09
 IDIUse=1 WtCom= 1.00D+00 WtEn= 0.00D+00
 Coeff-Com: -0.696D-04 0.864D-04-0.598D-03-0.330D-03 0.218D-02 0.841D-02
 Coeff-Com:  0.335D-02-0.133D-01-0.808D-01-0.309D-01 0.225D+00 0.887D+00
 Coeff:     -0.696D-04 0.864D-04-0.598D-03-0.330D-03 0.218D-02 0.841D-02
 Coeff:      0.335D-02-0.133D-01-0.808D-01-0.309D-01 0.225D+00 0.887D+00
 Gap=     0.052 Goal=   None    Shift=    0.000
 Gap=     0.044 Goal=   None    Shift=    0.000
 RMSDP=3.92D-06 MaxDP=2.31D-04 DE=-2.45D-08 OVMax= 9.46D-05

 Cycle  13  Pass 1  IDiag  1:
 E= -1136.12726767613     Delta-E=       -0.000000001846 Rises=F Damp=F
 DIIS: error= 5.17D-07 at cycle  13 NSaved=  13.
 NSaved=13 IEnMin=13 EnMin= -1136.12726767613     IErMin=13 ErrMin= 5.17D-07
 ErrMax= 5.17D-07  0.00D+00 EMaxC= 1.00D-01 BMatC= 9.84D-11 BMatP= 4.49D-10
 IDIUse=1 WtCom= 1.00D+00 WtEn= 0.00D+00
 Coeff-Com:  0.367D-04-0.488D-04-0.193D-03-0.136D-03-0.133D-02-0.345D-02
 Coeff-Com:  0.872D-02 0.172D-01-0.791D-02-0.463D-01-0.981D-01 0.229D+00
 Coeff-Com:  0.903D+00
 Coeff:      0.367D-04-0.488D-04-0.193D-03-0.136D-03-0.133D-02-0.345D-02
 Coeff:      0.872D-02 0.172D-01-0.791D-02-0.463D-01-0.981D-01 0.229D+00
 Coeff:      0.903D+00
 Gap=     0.052 Goal=   None    Shift=    0.000
 Gap=     0.044 Goal=   None    Shift=    0.000
 RMSDP=1.82D-06 MaxDP=8.38D-05 DE=-1.85D-09 OVMax= 4.38D-05

 Cycle  14  Pass 1  IDiag  1:
 E= -1136.12726767658     Delta-E=       -0.000000000447 Rises=F Damp=F
 DIIS: error= 3.03D-07 at cycle  14 NSaved=  14.
 NSaved=14 IEnMin=14 EnMin= -1136.12726767658     IErMin=14 ErrMin= 3.03D-07
 ErrMax= 3.03D-07  0.00D+00 EMaxC= 1.00D-01 BMatC= 1.87D-11 BMatP= 9.84D-11
 IDIUse=1 WtCom= 1.00D+00 WtEn= 0.00D+00
 Coeff-Com:  0.135D-04-0.168D-04 0.477D-04 0.203D-05-0.369D-03-0.102D-02
 Coeff-Com: -0.838D-03 0.242D-02 0.134D-01 0.212D-02-0.297D-01-0.192D+00
 Coeff-Com: -0.351D-02 0.121D+01
 Coeff:      0.135D-04-0.168D-04 0.477D-04 0.203D-05-0.369D-03-0.102D-02
 Coeff:     -0.838D-03 0.242D-02 0.134D-01 0.212D-02-0.297D-01-0.192D+00
 Coeff:     -0.351D-02 0.121D+01
 Gap=     0.052 Goal=   None    Shift=    0.000
 Gap=     0.044 Goal=   None    Shift=    0.000
 RMSDP=1.36D-06 MaxDP=7.68D-05 DE=-4.47D-10 OVMax= 2.64D-05

 Cycle  15  Pass 1  IDiag  1:
 E= -1136.12726767670     Delta-E=       -0.000000000126 Rises=F Damp=F
 DIIS: error= 1.15D-07 at cycle  15 NSaved=  15.
 NSaved=15 IEnMin=15 EnMin= -1136.12726767670     IErMin=15 ErrMin= 1.15D-07
 ErrMax= 1.15D-07  0.00D+00 EMaxC= 1.00D-01 BMatC= 3.23D-12 BMatP= 1.87D-11
 IDIUse=1 WtCom= 1.00D+00 WtEn= 0.00D+00
 Coeff-Com: -0.108D-04 0.144D-04 0.274D-04 0.176D-04 0.275D-03 0.835D-03
 Coeff-Com: -0.137D-02-0.377D-02-0.144D-02 0.865D-02 0.319D-01-0.397D-01
 Coeff-Com: -0.182D+00-0.123D+00 0.131D+01
 Coeff:     -0.108D-04 0.144D-04 0.274D-04 0.176D-04 0.275D-03 0.835D-03
 Coeff:     -0.137D-02-0.377D-02-0.144D-02 0.865D-02 0.319D-01-0.397D-01
 Coeff:     -0.182D+00-0.123D+00 0.131D+01
 Gap=     0.052 Goal=   None    Shift=    0.000
 Gap=     0.044 Goal=   None    Shift=    0.000
 RMSDP=8.19D-07 MaxDP=6.17D-05 DE=-1.26D-10 OVMax= 1.52D-05

 Cycle  16  Pass 1  IDiag  1:
 E= -1136.12726767676     Delta-E=       -0.000000000055 Rises=F Damp=F
 DIIS: error= 3.44D-08 at cycle  16 NSaved=  16.
 NSaved=16 IEnMin=16 EnMin= -1136.12726767676     IErMin=16 ErrMin= 3.44D-08
 ErrMax= 3.44D-08  0.00D+00 EMaxC= 1.00D-01 BMatC= 5.61D-13 BMatP= 3.23D-12
 IDIUse=1 WtCom= 1.00D+00 WtEn= 0.00D+00
 Coeff-Com: -0.255D-05 0.320D-05-0.113D-05 0.789D-05 0.167D-04 0.108D-03
 Coeff-Com:  0.285D-03-0.110D-03-0.273D-02-0.131D-02 0.689D-02 0.335D-01
 Coeff-Com: -0.108D-01-0.174D+00 0.594D-02 0.114D+01
 Coeff:     -0.255D-05 0.320D-05-0.113D-05 0.789D-05 0.167D-04 0.108D-03
 Coeff:      0.285D-03-0.110D-03-0.273D-02-0.131D-02 0.689D-02 0.335D-01
 Coeff:     -0.108D-01-0.174D+00 0.594D-02 0.114D+01
 Gap=     0.052 Goal=   None    Shift=    0.000
 Gap=     0.044 Goal=   None    Shift=    0.000
 RMSDP=2.54D-07 MaxDP=2.44D-05 DE=-5.50D-11 OVMax= 6.50D-06

 Cycle  17  Pass 1  IDiag  1:
 E= -1136.12726767676     Delta-E=        0.000000000000 Rises=F Damp=F
 DIIS: error= 1.91D-08 at cycle  17 NSaved=  17.
 NSaved=17 IEnMin=16 EnMin= -1136.12726767676     IErMin=17 ErrMin= 1.91D-08
 ErrMax= 1.91D-08  0.00D+00 EMaxC= 1.00D-01 BMatC= 1.36D-13 BMatP= 5.61D-13
 IDIUse=1 WtCom= 1.00D+00 WtEn= 0.00D+00
 Coeff-Com:  0.187D-05-0.252D-05-0.523D-05-0.349D-05-0.496D-04-0.990D-04
 Coeff-Com:  0.153D-03 0.646D-03 0.595D-04-0.152D-02-0.395D-02 0.197D-02
 Coeff-Com:  0.335D-01 0.385D-01-0.253D+00 0.354D-02 0.118D+01
 Coeff:      0.187D-05-0.252D-05-0.523D-05-0.349D-05-0.496D-04-0.990D-04
 Coeff:      0.153D-03 0.646D-03 0.595D-04-0.152D-02-0.395D-02 0.197D-02
 Coeff:      0.335D-01 0.385D-01-0.253D+00 0.354D-02 0.118D+01
 Gap=     0.052 Goal=   None    Shift=    0.000
 Gap=     0.044 Goal=   None    Shift=    0.000
 RMSDP=5.87D-08 MaxDP=3.18D-06 DE= 2.27D-13 OVMax= 3.57D-06

 Cycle  18  Pass 1  IDiag  1:
 E= -1136.12726767675     Delta-E=        0.000000000004 Rises=F Damp=F
 DIIS: error= 8.92D-09 at cycle  18 NSaved=  18.
 NSaved=18 IEnMin=16 EnMin= -1136.12726767676     IErMin=18 ErrMin= 8.92D-09
 ErrMax= 8.92D-09  0.00D+00 EMaxC= 1.00D-01 BMatC= 3.33D-14 BMatP= 1.36D-13
 IDIUse=1 WtCom= 1.00D+00 WtEn= 0.00D+00
 Coeff-Com:  0.100D-05-0.129D-05 0.155D-06-0.146D-05-0.225D-04-0.735D-04
 Coeff-Com:  0.241D-04 0.225D-03 0.471D-03-0.242D-03-0.174D-02-0.715D-02
 Coeff-Com:  0.106D-01 0.354D-01-0.286D-01-0.300D+00 0.223D+00 0.107D+01
 Coeff:      0.100D-05-0.129D-05 0.155D-06-0.146D-05-0.225D-04-0.735D-04
 Coeff:      0.241D-04 0.225D-03 0.471D-03-0.242D-03-0.174D-02-0.715D-02
 Coeff:      0.106D-01 0.354D-01-0.286D-01-0.300D+00 0.223D+00 0.107D+01
 Gap=     0.052 Goal=   None    Shift=    0.000
 Gap=     0.044 Goal=   None    Shift=    0.000
 RMSDP=3.52D-08 MaxDP=3.05D-06 DE= 3.64D-12 OVMax= 2.08D-06

 Cycle  19  Pass 1  IDiag  1:
 E= -1136.12726767676     Delta-E=       -0.000000000008 Rises=F Damp=F
 DIIS: error= 3.63D-09 at cycle  19 NSaved=  19.
 NSaved=19 IEnMin=19 EnMin= -1136.12726767676     IErMin=19 ErrMin= 3.63D-09
 ErrMax= 3.63D-09  0.00D+00 EMaxC= 1.00D-01 BMatC= 5.56D-15 BMatP= 3.33D-14
 IDIUse=1 WtCom= 1.00D+00 WtEn= 0.00D+00
 Coeff-Com: -0.258D-06 0.355D-06 0.105D-05 0.572D-06 0.596D-05 0.144D-04
 Coeff-Com: -0.403D-04-0.981D-04 0.910D-04 0.214D-03 0.796D-03-0.241D-02
 Coeff-Com: -0.624D-02 0.308D-02 0.415D-01-0.642D-01-0.184D+00 0.152D+00
 Coeff-Com:  0.106D+01
 Coeff:     -0.258D-06 0.355D-06 0.105D-05 0.572D-06 0.596D-05 0.144D-04
 Coeff:     -0.403D-04-0.981D-04 0.910D-04 0.214D-03 0.796D-03-0.241D-02
 Coeff:     -0.624D-02 0.308D-02 0.415D-01-0.642D-01-0.184D+00 0.152D+00
 Coeff:      0.106D+01
 Gap=     0.052 Goal=   None    Shift=    0.000
 Gap=     0.044 Goal=   None    Shift=    0.000
 RMSDP=2.20D-08 MaxDP=1.93D-06 DE=-7.96D-12 OVMax= 8.84D-07

 Cycle  20  Pass 1  IDiag  1:
 E= -1136.12726767675     Delta-E=        0.000000000007 Rises=F Damp=F
 DIIS: error= 1.12D-09 at cycle  20 NSaved=  20.
 NSaved=20 IEnMin=19 EnMin= -1136.12726767676     IErMin=20 ErrMin= 1.12D-09
 ErrMax= 1.12D-09  0.00D+00 EMaxC= 1.00D-01 BMatC= 5.48D-16 BMatP= 5.56D-15
 IDIUse=1 WtCom= 1.00D+00 WtEn= 0.00D+00
 Large coefficients: NSaved= 20 BigCof=    0.00 CofMax=   10.00 Det=-9.64D-16
 Inversion failed.  Reducing to 19 matrices.
 Large coefficients: NSaved= 19 BigCof=    0.00 CofMax=   10.00 Det=-1.03D-15
 Inversion failed.  Reducing to 18 matrices.
 Large coefficients: NSaved= 18 BigCof=    0.00 CofMax=   10.00 Det=-1.03D-15
 Inversion failed.  Reducing to 17 matrices.
 Large coefficients: NSaved= 17 BigCof=    0.00 CofMax=   10.00 Det=-1.04D-15
 Inversion failed.  Reducing to 16 matrices.
 Large coefficients: NSaved= 16 BigCof=    0.00 CofMax=   10.00 Det=-1.15D-15
 Inversion failed.  Reducing to 15 matrices.
 Coeff-Com:  0.333D-05-0.576D-06 0.362D-05-0.391D-04 0.836D-05-0.564D-05
 Coeff-Com:  0.570D-03-0.918D-04-0.121D-02-0.524D-02 0.331D-01 0.177D-01
 Coeff-Com: -0.137D+00-0.194D+00 0.129D+01
 Coeff:      0.333D-05-0.576D-06 0.362D-05-0.391D-04 0.836D-05-0.564D-05
 Coeff:      0.570D-03-0.918D-04-0.121D-02-0.524D-02 0.331D-01 0.177D-01
 Coeff:     -0.137D+00-0.194D+00 0.129D+01
 Gap=     0.052 Goal=   None    Shift=    0.000
 Gap=     0.044 Goal=   None    Shift=    0.000
 RMSDP=1.19D-08 MaxDP=1.16D-06 DE= 7.28D-12 OVMax= 2.28D-07

 Cycle  21  Pass 1  IDiag  1:
 E= -1136.12726767676     Delta-E=       -0.000000000002 Rises=F Damp=F
 DIIS: error= 6.44D-10 at cycle  21 NSaved=  16.
 NSaved=16 IEnMin=14 EnMin= -1136.12726767676     IErMin=16 ErrMin= 6.44D-10
 ErrMax= 6.44D-10  0.00D+00 EMaxC= 1.00D-01 BMatC= 1.25D-16 BMatP= 5.48D-16
 IDIUse=1 WtCom= 1.00D+00 WtEn= 0.00D+00
 Large coefficients: NSaved= 16 BigCof=    0.00 CofMax=   10.00 Det=-1.66D-16
 Inversion failed.  Reducing to 15 matrices.
 Coeff-Com:  0.359D-05 0.939D-06-0.290D-04-0.931D-05 0.149D-04 0.407D-03
 Coeff-Com:  0.316D-03-0.159D-02-0.334D-02 0.171D-01 0.211D-01-0.497D-01
 Coeff-Com: -0.151D+00 0.230D+00 0.937D+00
 Coeff:      0.359D-05 0.939D-06-0.290D-04-0.931D-05 0.149D-04 0.407D-03
 Coeff:      0.316D-03-0.159D-02-0.334D-02 0.171D-01 0.211D-01-0.497D-01
 Coeff:     -0.151D+00 0.230D+00 0.937D+00
 Gap=     0.052 Goal=   None    Shift=    0.000
 Gap=     0.044 Goal=   None    Shift=    0.000
 RMSDP=6.89D-09 MaxDP=6.54D-07 DE=-2.27D-12 OVMax= 5.38D-08

 SCF Done:  E(UB3LYP) =  -1136.12726768     A.U. after   21 cycles
            NFock= 21  Conv=0.69D-08     -V/T= 2.0028
 <Sx>= 0.0000 <Sy>= 0.0000 <Sz>= 0.5000 <S**2>= 0.7722 S= 0.5110
 <L.S>= 0.000000000000E+00
 KE= 1.132951913274D+03 PE=-3.400353557794D+03 EE= 7.958150931254D+02
 Annihilation of the first spin contaminant:
 S**2 before annihilation     0.7722,   after     0.7503
 Leave Link  502 at Wed Nov 29 17:02:41 2023, MaxMem=  1879048192 cpu:             195.1 elap:              17.4
 (Enter /home/sekinelabo/g16/l601.exe)
 Copying SCF densities to generalized density rwf, IOpCl= 1 IROHF=0.

 **********************************************************************

            Population analysis using the SCF Density.

 **********************************************************************

 Orbital symmetries:
 Alpha Orbitals:
       Occupied  (A) (A) (A) (A) (A) (A) (A) (A) (A) (A) (A) (A)
                 (A) (A) (A) (A) (A) (A) (A) (A) (A) (A) (A) (A)
                 (A) (A) (A) (A) (A) (A) (A) (A) (A) (A) (A) (A)
                 (A) (A) (A)
       Virtual   (A) (A) (A) (A) (A) (A) (A) (A) (A) (A) (A) (A)
                 (A) (A) (A) (A) (A) (A) (A) (A) (A) (A) (A) (A)
                 (A) (A) (A) (A) (A) (A) (A) (A) (A) (A) (A) (A)
                 (A) (A) (A) (A) (A) (A) (A) (A) (A) (A) (A) (A)
                 (A) (A) (A) (A) (A) (A) (A) (A) (A) (A) (A) (A)
                 (A) (A) (A) (A) (A) (A) (A) (A) (A) (A) (A) (A)
                 (A) (A) (A) (A) (A) (A) (A) (A) (A) (A) (A) (A)
                 (A) (A) (A) (A) (A) (A) (A) (A) (A) (A) (A) (A)
                 (A) (A) (A) (A) (A) (A) (A) (A) (A) (A) (A) (A)
                 (A) (A) (A) (A) (A) (A) (A) (A) (A) (A) (A) (A)
                 (A) (A) (A) (A) (A) (A) (A) (A) (A) (A) (A) (A)
                 (A) (A) (A) (A) (A) (A) (A) (A) (A) (A) (A) (A)
                 (A) (A) (A) (A) (A) (A) (A) (A) (A) (A) (A) (A)
                 (A) (A) (A) (A) (A) (A) (A) (A) (A) (A) (A) (A)
                 (A) (A) (A)
 Beta  Orbitals:
       Occupied  (A) (A) (A) (A) (A) (A) (A) (A) (A) (A) (A) (A)
                 (A) (A) (A) (A) (A) (A) (A) (A) (A) (A) (A) (A)
                 (A) (A) (A) (A) (A) (A) (A) (A) (A) (A) (A) (A)
                 (A) (A)
       Virtual   (A) (A) (A) (A) (A) (A) (A) (A) (A) (A) (A) (A)
                 (A) (A) (A) (A) (A) (A) (A) (A) (A) (A) (A) (A)
                 (A) (A) (A) (A) (A) (A) (A) (A) (A) (A) (A) (A)
                 (A) (A) (A) (A) (A) (A) (A) (A) (A) (A) (A) (A)
                 (A) (A) (A) (A) (A) (A) (A) (A) (A) (A) (A) (A)
                 (A) (A) (A) (A) (A) (A) (A) (A) (A) (A) (A) (A)
                 (A) (A) (A) (A) (A) (A) (A) (A) (A) (A) (A) (A)
                 (A) (A) (A) (A) (A) (A) (A) (A) (A) (A) (A) (A)
                 (A) (A) (A) (A) (A) (A) (A) (A) (A) (A) (A) (A)
                 (A) (A) (A) (A) (A) (A) (A) (A) (A) (A) (A) (A)
                 (A) (A) (A) (A) (A) (A) (A) (A) (A) (A) (A) (A)
                 (A) (A) (A) (A) (A) (A) (A) (A) (A) (A) (A) (A)
                 (A) (A) (A) (A) (A) (A) (A) (A) (A) (A) (A) (A)
                 (A) (A) (A) (A) (A) (A) (A) (A) (A) (A) (A) (A)
                 (A) (A) (A) (A)
 The electronic state is 2-A.
 Alpha  occ. eigenvalues --  -38.44242 -38.44124 -38.43945 -38.43782 -38.43544
 Alpha  occ. eigenvalues --  -38.43455 -38.43284  -2.20095  -2.19946  -2.19777
 Alpha  occ. eigenvalues --   -2.19734  -2.19530  -2.19360  -2.19094  -1.13786
 Alpha  occ. eigenvalues --   -1.13728  -1.13719  -1.13620  -1.13592  -1.13588
 Alpha  occ. eigenvalues --   -1.13575  -1.13453  -1.13447  -1.13408  -1.13381
 Alpha  occ. eigenvalues --   -1.13330  -1.13226  -1.13168  -1.13157  -1.12989
 Alpha  occ. eigenvalues --   -1.12978  -1.12953  -1.12769  -1.12764  -1.12728
 Alpha  occ. eigenvalues --   -0.18411  -0.13521  -0.12126  -0.11005
 Alpha virt. eigenvalues --   -0.05812  -0.05293  -0.04557  -0.03326  -0.02960
 Alpha virt. eigenvalues --   -0.02363  -0.01954  -0.01108  -0.00546  -0.00094
 Alpha virt. eigenvalues --    0.00039   0.00262   0.00661   0.00808   0.00834
 Alpha virt. eigenvalues --    0.00840   0.00963   0.01133   0.01267   0.01317
 Alpha virt. eigenvalues --    0.01390   0.01445   0.01601   0.01908   0.01982
 Alpha virt. eigenvalues --    0.02235   0.02367   0.02541   0.02634   0.02772
 Alpha virt. eigenvalues --    0.02874   0.02887   0.02913   0.03034   0.03099
 Alpha virt. eigenvalues --    0.03223   0.03318   0.03397   0.03559   0.03610
 Alpha virt. eigenvalues --    0.03807   0.04185   0.04367   0.04606   0.04803
 Alpha virt. eigenvalues --    0.04856   0.05037   0.05467   0.05659   0.05835
 Alpha virt. eigenvalues --    0.05973   0.06355   0.06991   0.07082   0.07388
 Alpha virt. eigenvalues --    0.07551   0.07860   0.08164   0.08554   0.08887
 Alpha virt. eigenvalues --    0.09353   0.09693   0.10185   0.10346   0.11371
 Alpha virt. eigenvalues --    0.11680   0.12335   0.12743   0.13118   0.13290
 Alpha virt. eigenvalues --    0.13536   0.13842   0.13960   0.14385   0.14540
 Alpha virt. eigenvalues --    0.15049   0.15235   0.17032   0.17543   0.18642
 Alpha virt. eigenvalues --    0.25517   0.26341   0.26867   0.27929   0.28737
 Alpha virt. eigenvalues --    0.30886   0.31246   0.31953   0.32469   0.33143
 Alpha virt. eigenvalues --    0.33785   0.34220   0.36103   0.36815   0.37712
 Alpha virt. eigenvalues --    0.39367   0.39467   0.40308   0.41034   0.42330
 Alpha virt. eigenvalues --    0.42580   0.43426   0.43969   0.44147   0.44338
 Alpha virt. eigenvalues --    0.44564   0.44804   0.45850   0.45952   0.46436
 Alpha virt. eigenvalues --    0.46764   0.47080   0.48107   0.48586   0.48923
 Alpha virt. eigenvalues --    0.49951   0.50422   0.50724   0.51127   0.51872
 Alpha virt. eigenvalues --    0.52064   0.52784   0.53432   0.54802   0.55571
 Alpha virt. eigenvalues --    0.56657   0.57358   0.58994   0.59987   0.60395
 Alpha virt. eigenvalues --    0.62695   0.63577   0.64440   0.65801   0.70962
 Alpha virt. eigenvalues --    0.81443   2.04247   2.11986   2.14703   2.17966
 Alpha virt. eigenvalues --    2.18660   2.22056   2.27770   4.43610   4.43958
 Alpha virt. eigenvalues --    4.44406   4.45159   4.45354   4.45646   4.45992
 Alpha virt. eigenvalues --    4.46431   4.46835   4.47828   4.48165   4.49139
 Alpha virt. eigenvalues --    4.50008   4.50881   4.52168   4.52911   4.54894
 Alpha virt. eigenvalues --    4.57819   4.58280   4.62285   4.76918  96.24049
 Alpha virt. eigenvalues --   96.33613  96.36178  96.40388  96.41008  96.46621
 Alpha virt. eigenvalues --   96.52449
  Beta  occ. eigenvalues --  -38.44198 -38.44095 -38.43936 -38.43712 -38.43510
  Beta  occ. eigenvalues --  -38.43445 -38.43277  -2.20015  -2.19892  -2.19763
  Beta  occ. eigenvalues --   -2.19606  -2.19468  -2.19345  -2.19084  -1.13722
  Beta  occ. eigenvalues --   -1.13680  -1.13662  -1.13574  -1.13556  -1.13543
  Beta  occ. eigenvalues --   -1.13515  -1.13443  -1.13434  -1.13382  -1.13296
  Beta  occ. eigenvalues --   -1.13240  -1.13162  -1.13134  -1.13105  -1.12969
  Beta  occ. eigenvalues --   -1.12961  -1.12922  -1.12761  -1.12760  -1.12707
  Beta  occ. eigenvalues --   -0.17799  -0.13152  -0.11798
  Beta virt. eigenvalues --   -0.07377  -0.05601  -0.05169  -0.04175  -0.02946
  Beta virt. eigenvalues --   -0.02358  -0.01748  -0.01542  -0.01013  -0.00371
  Beta virt. eigenvalues --   -0.00006   0.00130   0.00322   0.00766   0.00834
  Beta virt. eigenvalues --    0.00889   0.00939   0.01039   0.01248   0.01384
  Beta virt. eigenvalues --    0.01429   0.01466   0.01603   0.01700   0.01933
  Beta virt. eigenvalues --    0.02084   0.02290   0.02420   0.02582   0.02635
  Beta virt. eigenvalues --    0.02829   0.02904   0.02956   0.03034   0.03079
  Beta virt. eigenvalues --    0.03163   0.03286   0.03341   0.03542   0.03636
  Beta virt. eigenvalues --    0.03677   0.04010   0.04287   0.04433   0.04713
  Beta virt. eigenvalues --    0.04902   0.04957   0.05235   0.05564   0.05833
  Beta virt. eigenvalues --    0.05883   0.06111   0.06428   0.07050   0.07160
  Beta virt. eigenvalues --    0.07457   0.07594   0.08057   0.08290   0.08661
  Beta virt. eigenvalues --    0.09022   0.09479   0.09923   0.10515   0.10662
  Beta virt. eigenvalues --    0.11618   0.11756   0.12630   0.12999   0.13237
  Beta virt. eigenvalues --    0.13469   0.13654   0.13916   0.14154   0.14593
  Beta virt. eigenvalues --    0.14841   0.15206   0.15444   0.17445   0.17844
  Beta virt. eigenvalues --    0.18847   0.25827   0.26467   0.27209   0.28164
  Beta virt. eigenvalues --    0.28899   0.31187   0.31443   0.32181   0.32864
  Beta virt. eigenvalues --    0.33419   0.34157   0.34549   0.36478   0.37207
  Beta virt. eigenvalues --    0.38032   0.39650   0.39781   0.40420   0.41244
  Beta virt. eigenvalues --    0.42563   0.42809   0.43619   0.44068   0.44317
  Beta virt. eigenvalues --    0.44439   0.44684   0.45000   0.46034   0.46138
  Beta virt. eigenvalues --    0.46539   0.46834   0.47138   0.48214   0.48739
  Beta virt. eigenvalues --    0.49093   0.50087   0.50589   0.50867   0.51221
  Beta virt. eigenvalues --    0.52114   0.52202   0.52914   0.53718   0.54996
  Beta virt. eigenvalues --    0.55741   0.56788   0.57504   0.59220   0.60208
  Beta virt. eigenvalues --    0.60517   0.62788   0.63673   0.64617   0.65982
  Beta virt. eigenvalues --    0.71282   0.81661   2.04359   2.12100   2.14741
  Beta virt. eigenvalues --    2.18045   2.18850   2.22215   2.27900   4.43682
  Beta virt. eigenvalues --    4.44022   4.44500   4.45229   4.45391   4.45685
  Beta virt. eigenvalues --    4.46025   4.46455   4.46846   4.47862   4.48193
  Beta virt. eigenvalues --    4.49165   4.50070   4.50928   4.52210   4.52940
  Beta virt. eigenvalues --    4.54925   4.57876   4.58330   4.62363   4.76990
  Beta virt. eigenvalues --   96.24086  96.33651  96.36193  96.40417  96.41066
  Beta virt. eigenvalues --   96.46676  96.52492
          Condensed to atoms (all electrons):
               1          2          3          4          5          6
     1  Na  13.095116  -0.357109   0.367310  -0.732030   0.591231  -1.039151
     2  Na  -0.357109  11.072331  -0.563800   0.456251   0.118572   0.523223
     3  Na   0.367310  -0.563800  12.961742  -2.527706   0.149289  -0.167180
     4  Na  -0.732030   0.456251  -2.527706  14.585738  -0.279678  -0.007233
     5  Na   0.591231   0.118572   0.149289  -0.279678  10.716067  -0.179892
     6  Na  -1.039151   0.523223  -0.167180  -0.007233  -0.179892  11.697553
     7  Na  -1.035020   0.186270  -0.012713  -1.010834  -0.187649   0.388162
               7
     1  Na  -1.035020
     2  Na   0.186270
     3  Na  -0.012713
     4  Na  -1.010834
     5  Na  -0.187649
     6  Na   0.388162
     7  Na  13.510826
          Atomic-Atomic Spin Densities.
               1          2          3          4          5          6
     1  Na   1.371207   0.088273   0.040546  -0.346225   0.217578  -0.205928
     2  Na   0.088273  -0.007745  -0.002413  -0.052804   0.075638   0.064443
     3  Na   0.040546  -0.002413   0.340186  -0.240893  -0.005371  -0.040800
     4  Na  -0.346225  -0.052804  -0.240893   0.476205  -0.054634   0.048470
     5  Na   0.217578   0.075638  -0.005371  -0.054634   0.088686   0.003358
     6  Na  -0.205928   0.064443  -0.040800   0.048470   0.003358   0.151937
     7  Na  -0.781508  -0.114969  -0.042876   0.310548  -0.198874   0.062596
               7
     1  Na  -0.781508
     2  Na  -0.114969
     3  Na  -0.042876
     4  Na   0.310548
     5  Na  -0.198874
     6  Na   0.062596
     7  Na   0.931213
 Mulliken charges and spin densities:
               1          2
     1  Na   0.109653   0.383942
     2  Na  -0.435738   0.050423
     3  Na   0.793058   0.048379
     4  Na   0.515492   0.140667
     5  Na   0.072060   0.126383
     6  Na  -0.215482   0.084076
     7  Na  -0.839043   0.166130
 Sum of Mulliken charges =  -0.00000   1.00000
 Mulliken charges and spin densities with hydrogens summed into heavy atoms:
               1          2
     1  Na   0.109653   0.383942
     2  Na  -0.435738   0.050423
     3  Na   0.793058   0.048379
     4  Na   0.515492   0.140667
     5  Na   0.072060   0.126383
     6  Na  -0.215482   0.084076
     7  Na  -0.839043   0.166130
 Electronic spatial extent (au):  <R**2>=           2414.1729
 Charge=             -0.0000 electrons
 Dipole moment (field-independent basis, Debye):
    X=             -0.2950    Y=             -0.1352    Z=              0.0310  Tot=              0.3259
 Quadrupole moment (field-independent basis, Debye-Ang):
   XX=            -53.8867   YY=            -68.5525   ZZ=            -71.9164
   XY=             -0.8955   XZ=             -1.0521   YZ=              2.7946
 Traceless Quadrupole moment (field-independent basis, Debye-Ang):
   XX=             10.8985   YY=             -3.7673   ZZ=             -7.1312
   XY=             -0.8955   XZ=             -1.0521   YZ=              2.7946
 Octapole moment (field-independent basis, Debye-Ang**2):
  XXX=             -0.7226  YYY=              0.5641  ZZZ=              1.8950  XYY=             -3.3238
  XXY=             -6.7343  XXZ=            -10.2618  XZZ=             -2.0934  YZZ=             -1.5953
  YYZ=              3.7450  XYZ=             -4.0166
 Hexadecapole moment (field-independent basis, Debye-Ang**3):
 XXXX=          -1723.9201 YYYY=          -1426.5884 ZZZZ=           -799.0528 XXXY=              8.5310
 XXXZ=            -29.1227 YYYX=            -40.3396 YYYZ=             32.2955 ZZZX=            -15.4014
 ZZZY=              7.4024 XXYY=           -505.4943 XXZZ=           -465.5641 YYZZ=           -400.4236
 XXYZ=             26.7014 YYXZ=             23.4961 ZZXY=             14.4308
 N-N= 3.354592837174D+02 E-N=-3.400353557825D+03  KE= 1.132951913274D+03
                          Isotropic Fermi Contact Couplings
        Atom                 a.u.       MegaHertz       Gauss      10(-4) cm-1
     1  Na(23)             0.28839     341.16807     121.73725     113.80142
     2  Na(23)            -0.00005      -0.06105      -0.02178      -0.02036
     3  Na(23)             0.12459     147.39803      52.59528      49.16669
     4  Na(23)             0.17856     211.24154      75.37623      70.46259
     5  Na(23)             0.00347       4.10749       1.46565       1.37011
     6  Na(23)            -0.00254      -3.00508      -1.07229      -1.00239
     7  Na(23)             0.11163     132.06647      47.12460      44.05263
 --------------------------------------------------------
       Center         ----  Spin Dipole Couplings  ----
                      3XX-RR        3YY-RR        3ZZ-RR
 --------------------------------------------------------
     1   Atom       -0.001259      0.009342     -0.008084
     2   Atom        0.004304     -0.009135      0.004830
     3   Atom        0.001619     -0.007147      0.005528
     4   Atom       -0.000544     -0.007343      0.007886
     5   Atom        0.000316     -0.014127      0.013810
     6   Atom       -0.009006     -0.017219      0.026225
     7   Atom        0.001347     -0.019911      0.018564
 --------------------------------------------------------
                        XY            XZ            YZ
 --------------------------------------------------------
     1   Atom       -0.003498      0.005986     -0.000129
     2   Atom        0.003962     -0.015090     -0.002273
     3   Atom        0.003093      0.006663      0.000899
     4   Atom        0.001784     -0.009665     -0.007042
     5   Atom        0.004036      0.019806      0.009083
     6   Atom       -0.002215     -0.023175      0.005261
     7   Atom        0.007768      0.004822      0.014187
 --------------------------------------------------------


 ---------------------------------------------------------------------------------
              Anisotropic Spin Dipole Couplings in Principal Axis System
 ---------------------------------------------------------------------------------

       Atom             a.u.   MegaHertz   Gauss  10(-4) cm-1        Axes

              Baa    -0.0117    -1.651    -0.589    -0.551 -0.5161 -0.0806  0.8527
     1 Na(23) Bbb     0.0011     0.154     0.055     0.051  0.7891  0.3425  0.5100
              Bcc     0.0106     1.497     0.534     0.499 -0.3332  0.9360 -0.1132
 
              Baa    -0.0114    -1.614    -0.576    -0.538  0.6310 -0.5906  0.5030
     2 Na(23) Bbb    -0.0089    -1.255    -0.448    -0.419  0.3397  0.7933  0.5052
              Bcc     0.0203     2.869     1.024     0.957 -0.6974 -0.1479  0.7012
 
              Baa    -0.0083    -1.167    -0.416    -0.389 -0.3679  0.9224  0.1176
     3 Na(23) Bbb    -0.0026    -0.371    -0.132    -0.124  0.7030  0.3586 -0.6141
              Bcc     0.0109     1.538     0.549     0.513  0.6087  0.1433  0.7804
 
              Baa    -0.0107    -1.511    -0.539    -0.504  0.3033  0.8281  0.4715
     4 Na(23) Bbb    -0.0055    -0.782    -0.279    -0.261  0.8105 -0.4844  0.3294
              Bcc     0.0162     2.293     0.818     0.765 -0.5012 -0.2822  0.8180
 
              Baa    -0.0174    -2.452    -0.875    -0.818  0.2905  0.8532 -0.4332
     5 Na(23) Bbb    -0.0128    -1.803    -0.643    -0.601  0.7756 -0.4750 -0.4156
              Bcc     0.0301     4.255     1.518     1.419  0.5604  0.2152  0.7998
 
              Baa    -0.0205    -2.901    -1.035    -0.968  0.8831 -0.1264  0.4518
     6 Na(23) Bbb    -0.0178    -2.508    -0.895    -0.836  0.1588  0.9867 -0.0343
              Bcc     0.0383     5.409     1.930     1.804 -0.4415  0.1021  0.8915
 
              Baa    -0.0259    -3.656    -1.305    -1.220 -0.2183  0.9363 -0.2751
     7 Na(23) Bbb     0.0006     0.078     0.028     0.026  0.9325  0.1170 -0.3418
              Bcc     0.0253     3.578     1.277     1.193  0.2878  0.3312  0.8986
 

 ---------------------------------------------------------------------------------

 No NMR shielding tensors so no spin-rotation constants.
 Leave Link  601 at Wed Nov 29 17:02:41 2023, MaxMem=  1879048192 cpu:               2.3 elap:               0.2
 (Enter /home/sekinelabo/g16/l701.exe)
 ... and contract with generalized density number  0.
 Compute integral first derivatives.
 Leave Link  701 at Wed Nov 29 17:02:41 2023, MaxMem=  1879048192 cpu:               1.6 elap:               0.1
 (Enter /home/sekinelabo/g16/l702.exe)
 L702 exits ... SP integral derivatives will be done elsewhere.
 Leave Link  702 at Wed Nov 29 17:02:41 2023, MaxMem=  1879048192 cpu:               0.4 elap:               0.0
 (Enter /home/sekinelabo/g16/l703.exe)
 Integral derivatives from FoFJK, PRISM(SPDF).
 Compute integral first derivatives, UseDBF=F ICtDFT=           0.
 Calling FoFJK, ICntrl=      2127 FMM=F ISym2X=0 I1Cent= 0 IOpClX= 1 NMat=1 NMatS=1 NMatT=0.
 FoFJK:  IHMeth= 1 ICntrl=    2127 DoSepK=F KAlg= 0 I1Cent=           0 FoldK=F
 IRaf=         0 NMat=       1 IRICut=       1 DoRegI=T DoRafI=F ISym2E= 0 IDoP0=0 IntGTp=1.
 FoFCou: FMM=F IPFlag=           0 FMFlag=      100000 FMFlg1=         800
         NFxFlg=           0 DoJE=F BraDBF=F KetDBF=F FulRan=T
         wScrn=  0.000000 ICntrl=      2127 IOpCl=  1 I1Cent=           0 NGrid=           0
         NMat0=    1 NMatS0=      1 NMatT0=    0 NMatD0=    1 NMtDS0=    0 NMtDT0=    0
 Symmetry not used in FoFCou.
 Leave Link  703 at Wed Nov 29 17:02:43 2023, MaxMem=  1879048192 cpu:              33.5 elap:               2.2
 (Enter /home/sekinelabo/g16/l716.exe)
 Dipole        =-1.16049514D-01-5.31758545D-02 1.21872833D-02
 ***** Axes restored to original set *****
 -------------------------------------------------------------------
 Center     Atomic                   Forces (Hartrees/Bohr)
 Number     Number              X              Y              Z
 -------------------------------------------------------------------
      1       11           0.004391013   -0.006866104   -0.008537247
      2       11          -0.000745186    0.000874320   -0.001562128
      3       11           0.000406948   -0.000312698   -0.001866688
      4       11           0.000670224    0.001621868   -0.001318977
      5       11           0.000775496   -0.000332768    0.002773343
      6       11          -0.003501948    0.007388150    0.007565661
      7       11          -0.001996548   -0.002372768    0.002946036
 -------------------------------------------------------------------
 Cartesian Forces:  Max     0.008537247 RMS     0.003794876
 Z-matrix is all fixed cartesians, so copy forces.
 Force constants in Cartesian coordinates: 
                1             2             3             4             5 
      1  0.106412D+00
      2 -0.215006D-02  0.743404D-01
      3 -0.134160D-01  0.131735D-01  0.820067D-01
      4  0.147625D-02 -0.564345D-02  0.405572D-02  0.347880D-01
      5  0.734850D-03 -0.453763D-02  0.502936D-02 -0.126856D-01  0.596220D-01
      6 -0.645250D-03  0.169268D-02 -0.630086D-03  0.113181D-02 -0.167991D-02
      7  0.159760D-02 -0.412345D-02  0.870772D-02 -0.803916D-02  0.623214D-02
      8  0.158852D-02  0.454872D-02 -0.118353D-02  0.637988D-02 -0.172448D-01
      9  0.142892D-02  0.310057D-02 -0.274307D-02 -0.135819D-02  0.859577D-02
     10 -0.162225D-01  0.977280D-02 -0.157602D-01  0.369637D-02  0.114252D-02
     11 -0.200802D-02 -0.416683D-02 -0.355379D-02 -0.700317D-03  0.276337D-02
     12  0.331792D-02  0.391989D-02 -0.637900D-02 -0.237827D-02  0.539535D-02
     13 -0.159209D-01 -0.168269D-01 -0.934196D-02 -0.899849D-02  0.233895D-02
     14  0.795254D-02 -0.154280D-01 -0.411393D-02  0.560506D-02 -0.182281D-01
     15  0.592321D-02 -0.732468D-03 -0.130212D-01  0.261539D-02 -0.157296D-01
     16 -0.388191D-01  0.183043D-01  0.211404D-01  0.332940D-02  0.364039D-02
     17 -0.692611D-02 -0.390310D-01 -0.109873D-01 -0.435131D-02 -0.538344D-02
     18  0.165953D-02 -0.216823D-01 -0.355599D-01  0.237050D-04 -0.124983D-02
     19 -0.385230D-01  0.666702D-03  0.461430D-02 -0.262524D-01 -0.140325D-02
     20  0.808272D-03 -0.157256D-01  0.163571D-02  0.113957D-01 -0.169914D-01
     21  0.173168D-02  0.528147D-03 -0.236734D-01 -0.409017D-02 -0.361103D-03
                6             7             8             9            10 
      6  0.498706D-01
      7  0.871561D-02  0.340776D-01
      8 -0.126665D-01 -0.259042D-02  0.447476D-01
      9 -0.194362D-01 -0.785032D-02  0.101049D-02  0.618091D-01
     10 -0.373229D-02  0.842556D-02  0.107884D-02 -0.174307D-02  0.480703D-01
     11  0.468680D-02  0.103834D-02  0.711171D-02  0.103008D-02 -0.982530D-02
     12  0.237670D-02 -0.427565D-03  0.162496D-02  0.111566D-03  0.108215D-01
     13 -0.750327D-02  0.487142D-02 -0.220910D-02  0.730326D-03 -0.936304D-02
     14  0.913530D-02 -0.126945D-02  0.560293D-02 -0.296187D-02  0.283860D-02
     15 -0.193648D-01  0.120721D-02 -0.281628D-02 -0.219582D-02 -0.889056D-02
     16  0.219158D-03 -0.562432D-02 -0.390388D-02 -0.753825D-03  0.343569D-02
     17  0.515042D-03 -0.183363D-02 -0.156920D-01 -0.876606D-02  0.106316D-02
     18  0.297025D-02  0.825750D-02  0.131463D-01 -0.118076D-01 -0.290192D-02
     19  0.181422D-02 -0.353087D-01 -0.343847D-03  0.954615D-02 -0.380424D-01
     20 -0.168342D-02  0.254647D-02 -0.290742D-01 -0.200899D-02 -0.607063D-02
     21 -0.157865D-01 -0.186102D-01  0.884563D-03 -0.257381D-01  0.222066D-01
               11            12            13            14            15 
     11  0.540282D-01
     12 -0.552253D-02  0.589288D-01
     13  0.128734D-01  0.127908D-02  0.484829D-01
     14 -0.268340D-01 -0.139744D-01 -0.952289D-02  0.760534D-01
     15  0.131610D-01 -0.153755D-01  0.463390D-02  0.168567D-01  0.687197D-01
     16 -0.378195D-02 -0.351021D-02  0.935305D-02 -0.516751D-03 -0.149929D-02
     17  0.311517D-02  0.640553D-03 -0.285022D-03  0.330117D-03 -0.453356D-02
     18 -0.721381D-02 -0.273102D-02 -0.190980D-02 -0.388367D-02  0.268112D-02
     19  0.240389D-02 -0.910240D-02 -0.284249D-01 -0.508711D-02 -0.398986D-02
     20 -0.360177D-01  0.791622D-02  0.136316D-01 -0.214964D-01 -0.620578D-02
     21 -0.258772D-02 -0.369315D-01  0.121117D-01 -0.105813D-02 -0.214434D-01
               16            17            18            19            20 
     16  0.550659D-01
     17  0.568970D-02  0.793832D-01
     18 -0.758056D-02  0.217966D-01  0.654395D-01
     19 -0.267406D-01  0.664321D-02  0.245154D-02  0.193292D+00
     20 -0.194318D-01 -0.227220D-01 -0.913283D-03 -0.287959D-02  0.142027D+00
     21 -0.801569D-02  0.133471D-02 -0.209924D-01 -0.533395D-02  0.125954D-02
               21 
     21  0.144565D+00
 Leave Link  716 at Wed Nov 29 17:02:43 2023, MaxMem=  1879048192 cpu:               0.4 elap:               0.0
 (Enter /home/sekinelabo/g16/l103.exe)

 GradGradGradGradGradGradGradGradGradGradGradGradGradGradGradGradGradGrad
 Berny optimization.
 Search for a local minimum.
 Step number   1 out of a maximum of    2
 All quantities printed in internal units (Hartrees-Bohrs-Radians)
 Second derivative matrix not updated -- first step.
 ITU=  0
     Eigenvalues ---    0.03592   0.04477   0.04644   0.05545   0.05905
     Eigenvalues ---    0.06452   0.07823   0.09343   0.10057   0.11350
     Eigenvalues ---    0.13437   0.16010   0.17448   0.17848   0.23025
 Angle between quadratic step and forces=  17.94 degrees.
 Linear search not attempted -- first point.
 B after Tr=     0.000000    0.000000    0.000000
         Rot=    1.000000    0.000000    0.000000    0.000000 Ang=   0.00 deg.
 Variable       Old X    -DE/DX   Delta X   Delta X   Delta X     New X
                                 (Linear)    (Quad)   (Total)
    X1       32.40710   0.00439   0.00000   0.02663   0.02663  32.43373
    Y1       30.73847  -0.00687   0.00000  -0.03738  -0.03738  30.70109
    Z1       27.66767  -0.00854   0.00000  -0.05031  -0.05031  27.61735
    X2       30.23052  -0.00075   0.00000  -0.00264  -0.00264  30.22788
    Y2       24.11442   0.00087   0.00000   0.02062   0.02062  24.13503
    Z2       31.32089  -0.00156   0.00000  -0.02402  -0.02402  31.29687
    X3       28.02974   0.00041   0.00000   0.00187   0.00187  28.03161
    Y3       28.68018  -0.00031   0.00000  -0.01078  -0.01078  28.66941
    Z3       35.48414  -0.00187   0.00000  -0.01561  -0.01561  35.46853
    X4       26.28137   0.00067   0.00000   0.00818   0.00818  26.28955
    Y4       30.86603   0.00162   0.00000   0.00739   0.00739  30.87343
    Z4       23.32451  -0.00132   0.00000  -0.01354  -0.01354  23.31097
    X5       28.96327   0.00078   0.00000  -0.00720  -0.00720  28.95606
    Y5       25.18570  -0.00033   0.00000  -0.01838  -0.01838  25.16732
    Z5       24.59044   0.00277   0.00000   0.03033   0.03033  24.62077
    X6       30.58692  -0.00350   0.00000  -0.01920  -0.01920  30.56772
    Y6       33.90169   0.00739   0.00000   0.05154   0.05154  33.95323
    Z6       31.43408   0.00757   0.00000   0.05889   0.05889  31.49297
    X7       26.50587  -0.00200   0.00000  -0.00765  -0.00765  26.49822
    Y7       29.51809  -0.00237   0.00000  -0.01301  -0.01301  29.50508
    Z7       29.18304   0.00295   0.00000   0.01427   0.01427  29.19731
         Item               Value     Threshold  Converged?
 Maximum Force            0.008537     0.000450     NO 
 RMS     Force            0.003795     0.000300     NO 
 Maximum Displacement     0.058889     0.001800     NO 
 RMS     Displacement     0.026322     0.001200     NO 
 Predicted change in Energy=-9.978237D-04
 GradGradGradGradGradGradGradGradGradGradGradGradGradGradGradGradGradGrad

 Leave Link  103 at Wed Nov 29 17:02:43 2023, MaxMem=  1879048192 cpu:               0.2 elap:               0.0
 (Enter /home/sekinelabo/g16/l9999.exe)
 1\1\GINC-SEKINELABO-XA7R-R37\Force\UB3LYP\6-311+G(d)\Na7(2)\SEKINELABO
 \29-Nov-2023\0\\#P B3LYP/6-311+g(d) force\\DPGEN\\0,2\Na,17.1491,16.26
 61,14.6411\Na,15.9973,12.7608,16.5743\Na,14.8327,15.1769,18.7774\Na,13
 .9075,16.3336,12.3428\Na,15.3267,13.3277,13.0127\Na,16.1859,17.94,16.6
 342\Na,14.0263,15.6203,15.443\\Version=ES64L-G16RevB.01\State=2-A\HF=-
 1136.1272677\S2=0.772184\S2-1=0.\S2A=0.750339\RMSD=6.892e-09\RMSF=3.79
 5e-03\Dipole=-0.0029406,0.0444791,-0.1202358\Quadrupole=-5.3493699,-2.
 5108326,7.8602025,-1.811749,1.2744215,1.7085186\PG=C01 [X(Na7)]\\@


 I DO NOT DEFINE TIME, SPACE, PLACE, AND MOTION, AS BEING WELL KNOWN TO ALL.
                                            -- NEWTON (1642-1726), PRINCIPIA
 Job cpu time:       0 days  0 hours  4 minutes  4.7 seconds.
 Elapsed time:       0 days  0 hours  0 minutes 20.7 seconds.
 File lengths (MBytes):  RWF=     32 Int=      0 D2E=      0 Chk=      4 Scr=      1
 Normal termination of Gaussian 16 at Wed Nov 29 17:02:44 2023.
