ITEM: TIMESTEP
4060
ITEM: NUMBER OF ATOMS
7
ITEM: BOX BOUNDS xy xz yz ff ff ff
0.0000000000000000e+00 2.6021777638800000e+01 0.0000000000000000e+00
0.0000000000000000e+00 2.6021777638800000e+01 0.0000000000000000e+00
0.0000000000000000e+00 2.6021777638800000e+01 0.0000000000000000e+00
ITEM: ATOMS id type x y z fx fy fz
2 1 12.9497 13.3714 11.1338 0.0624614 0.133769 0.00185063
5 1 12.684 16.8957 10.0558 0.0187029 0.0027893 0.0701012
1 1 11.5419 10.7663 11.4768 -0.0552121 -0.0367494 -0.030923
6 1 12.0728 8.20424 13.8031 0.027263 -0.0109376 0.0646108
3 1 13.8225 16.9038 13.6644 -0.021619 -0.0477006 -0.0713505
7 1 13.5618 10.6535 15.4531 -0.0171598 -0.0777601 0.0144887
4 1 14.4435 14.2812 15.4891 -0.0144364 0.036589 -0.0487776
