ITEM: TIMESTEP
2830
ITEM: NUMBER OF ATOMS
7
ITEM: BOX BOUNDS xy xz yz ff ff ff
0.0000000000000000e+00 2.3430432314400001e+01 0.0000000000000000e+00
0.0000000000000000e+00 2.3430432314400001e+01 0.0000000000000000e+00
0.0000000000000000e+00 2.3430432314400001e+01 0.0000000000000000e+00
ITEM: ATOMS id type x y z fx fy fz
7 1 11.6184 12.555 9.06214 -0.0102325 -0.0730251 0.136512
5 1 14.2459 12.1084 11.4132 0.0166416 -0.124473 -0.097044
4 1 11.8572 13.4958 13.1032 -0.0635988 0.114374 0.0461624
6 1 12.1276 9.19137 10.4848 0.15705 0.0785746 -0.0741196
2 1 10.2451 10.5794 12.5673 -0.322555 0.0929943 -0.0471627
3 1 9.01241 13.7343 11.2311 0.0289389 -0.03804 -0.0241067
1 1 12.9 10.3422 14.1447 0.193755 -0.0504046 0.059759
