 Set GAUSS_MDEF to "14GB".
 Entering Gaussian System, Link 0=g16
 Initial command:
 /home/sekinelabo/g16/l1.exe "/home/sekinelabo/g16temp/Gau-20961.inp" -scrdir="/home/sekinelabo/g16temp/"
 Entering Link 1 = /home/sekinelabo/g16/l1.exe PID=     20963.
  
 Copyright (c) 1988-2017, Gaussian, Inc.  All Rights Reserved.
  
 This is part of the Gaussian(R) 16 program.  It is based on
 the Gaussian(R) 09 system (copyright 2009, Gaussian, Inc.),
 the Gaussian(R) 03 system (copyright 2003, Gaussian, Inc.),
 the Gaussian(R) 98 system (copyright 1998, Gaussian, Inc.),
 the Gaussian(R) 94 system (copyright 1995, Gaussian, Inc.),
 the Gaussian 92(TM) system (copyright 1992, Gaussian, Inc.),
 the Gaussian 90(TM) system (copyright 1990, Gaussian, Inc.),
 the Gaussian 88(TM) system (copyright 1988, Gaussian, Inc.),
 the Gaussian 86(TM) system (copyright 1986, Carnegie Mellon
 University), and the Gaussian 82(TM) system (copyright 1983,
 Carnegie Mellon University). Gaussian is a federally registered
 trademark of Gaussian, Inc.
  
 This software contains proprietary and confidential information,
 including trade secrets, belonging to Gaussian, Inc.
  
 This software is provided under written license and may be
 used, copied, transmitted, or stored only in accord with that
 written license.
  
 The following legend is applicable only to US Government
 contracts under FAR:
  
                    RESTRICTED RIGHTS LEGEND
  
 Use, reproduction and disclosure by the US Government is
 subject to restrictions as set forth in subparagraphs (a)
 and (c) of the Commercial Computer Software - Restricted
 Rights clause in FAR 52.227-19.
  
 Gaussian, Inc.
 340 Quinnipiac St., Bldg. 40, Wallingford CT 06492
  
  
 ---------------------------------------------------------------
 Warning -- This program may not be used in any manner that
 competes with the business of Gaussian, Inc. or will provide
 assistance to any competitor of Gaussian, Inc.  The licensee
 of this program is prohibited from giving any competitor of
 Gaussian, Inc. access to this program.  By using this program,
 the user acknowledges that Gaussian, Inc. is engaged in the
 business of creating and licensing software in the field of
 computational chemistry and represents and warrants to the
 licensee that it is not a competitor of Gaussian, Inc. and that
 it will not use this program in any manner prohibited above.
 ---------------------------------------------------------------
  

 Cite this work as:
 Gaussian 16, Revision B.01,
 M. J. Frisch, G. W. Trucks, H. B. Schlegel, G. E. Scuseria, 
 M. A. Robb, J. R. Cheeseman, G. Scalmani, V. Barone, 
 G. A. Petersson, H. Nakatsuji, X. Li, M. Caricato, A. V. Marenich, 
 J. Bloino, B. G. Janesko, R. Gomperts, B. Mennucci, H. P. Hratchian, 
 J. V. Ortiz, A. F. Izmaylov, J. L. Sonnenberg, D. Williams-Young, 
 F. Ding, F. Lipparini, F. Egidi, J. Goings, B. Peng, A. Petrone, 
 T. Henderson, D. Ranasinghe, V. G. Zakrzewski, J. Gao, N. Rega, 
 G. Zheng, W. Liang, M. Hada, M. Ehara, K. Toyota, R. Fukuda, 
 J. Hasegawa, M. Ishida, T. Nakajima, Y. Honda, O. Kitao, H. Nakai, 
 T. Vreven, K. Throssell, J. A. Montgomery, Jr., J. E. Peralta, 
 F. Ogliaro, M. J. Bearpark, J. J. Heyd, E. N. Brothers, K. N. Kudin, 
 V. N. Staroverov, T. A. Keith, R. Kobayashi, J. Normand, 
 K. Raghavachari, A. P. Rendell, J. C. Burant, S. S. Iyengar, 
 J. Tomasi, M. Cossi, J. M. Millam, M. Klene, C. Adamo, R. Cammi, 
 J. W. Ochterski, R. L. Martin, K. Morokuma, O. Farkas, 
 J. B. Foresman, and D. J. Fox, Gaussian, Inc., Wallingford CT, 2016.
 
 ******************************************
 Gaussian 16:  ES64L-G16RevB.01 20-Dec-2017
                28-Nov-2023 
 ******************************************
 %nproc=15
 Will use up to   15 processors via shared memory.
 -------------------------
 #P B3LYP/6-311+g(d) force
 -------------------------
 1/10=7,30=1,38=1/1,3;
 2/12=2,17=6,18=5,40=1/2;
 3/5=4,6=6,7=11,11=2,25=1,30=1,71=1,74=-5/1,2,3;
 4//1;
 5/5=2,38=5/2;
 6/7=2,8=2,9=2,10=2,28=1/1;
 7/29=1/1,2,3,16;
 1/10=7,30=1/3;
 99//99;
 Leave Link    1 at Tue Nov 28 19:10:04 2023, MaxMem=           0 cpu:               0.3 elap:               0.0
 (Enter /home/sekinelabo/g16/l101.exe)
 -----
 DPGEN
 -----
 Symbolic Z-matrix:
 Charge =  0 Multiplicity = 2
 Na                    14.8569   17.0475   17.7649 
 Na                    17.3797   16.3394   15.0158 
 Na                    15.9924   13.2011   14.6725 
 Na                    13.3143   14.5598   15.9444 
 Na                    13.172    11.2966   14.7809 
 Na                    14.9774   16.1431   12.1056 
 Na                    17.733    18.838    17.1414 
 
 ITRead=  0  0  0  0  0  0  0
 MicOpt= -1 -1 -1 -1 -1 -1 -1
 NAtoms=      7 NQM=        7 NQMF=       0 NMMI=      0 NMMIF=      0
                NMic=       0 NMicF=      0.
                    Isotopes and Nuclear Properties:
 (Nuclear quadrupole moments (NQMom) in fm**2, nuclear magnetic moments (NMagM)
  in nuclear magnetons)

  Atom         1           2           3           4           5           6           7
 IAtWgt=          23          23          23          23          23          23          23
 AtmWgt=  22.9897697  22.9897697  22.9897697  22.9897697  22.9897697  22.9897697  22.9897697
 NucSpn=           3           3           3           3           3           3           3
 AtZEff=  -0.0000000  -0.0000000  -0.0000000  -0.0000000  -0.0000000  -0.0000000  -0.0000000
 NQMom=   10.4000000  10.4000000  10.4000000  10.4000000  10.4000000  10.4000000  10.4000000
 NMagM=    2.2175200   2.2175200   2.2175200   2.2175200   2.2175200   2.2175200   2.2175200
 AtZNuc=  11.0000000  11.0000000  11.0000000  11.0000000  11.0000000  11.0000000  11.0000000
 Leave Link  101 at Tue Nov 28 19:10:04 2023, MaxMem=  1879048192 cpu:               2.3 elap:               0.2
 (Enter /home/sekinelabo/g16/l103.exe)

 GradGradGradGradGradGradGradGradGradGradGradGradGradGradGradGradGradGrad
 Berny optimization.
 Initialization pass.
 Trust Radius=3.00D-01 FncErr=1.00D-07 GrdErr=1.00D-07 EigMax=2.50D+02 EigMin=1.00D-04
 Number of steps in this run=      2 maximum allowed number of steps=      2.
 GradGradGradGradGradGradGradGradGradGradGradGradGradGradGradGradGradGrad

 Leave Link  103 at Tue Nov 28 19:10:04 2023, MaxMem=  1879048192 cpu:               0.2 elap:               0.0
 (Enter /home/sekinelabo/g16/l202.exe)
                          Input orientation:                          
 ---------------------------------------------------------------------
 Center     Atomic      Atomic             Coordinates (Angstroms)
 Number     Number       Type             X           Y           Z
 ---------------------------------------------------------------------
      1         11           0       14.856900   17.047500   17.764900
      2         11           0       17.379700   16.339400   15.015800
      3         11           0       15.992400   13.201100   14.672500
      4         11           0       13.314300   14.559800   15.944400
      5         11           0       13.172000   11.296600   14.780900
      6         11           0       14.977400   16.143100   12.105600
      7         11           0       17.733000   18.838000   17.141400
 ---------------------------------------------------------------------
                    Distance matrix (angstroms):
                    1          2          3          4          5
     1  Na   0.000000
     2  Na   3.797825   0.000000
     3  Na   5.064296   3.448388   0.000000
     4  Na   3.447098   4.533955   3.261290   0.000000
     5  Na   6.694475   6.571891   3.404927   3.467341   0.000000
     6  Na   5.732376   3.778736   4.034175   4.473156   5.822822
     7  Na   3.444792   3.299394   6.395295   6.265837   9.124001
                    6          7
     6  Na   0.000000
     7  Na   6.341538   0.000000
 Stoichiometry    Na7(2)
 Framework group  C1[X(Na7)]
 Deg. of freedom    15
 Full point group                 C1      NOp   1
 Largest Abelian subgroup         C1      NOp   1
 Largest concise Abelian subgroup C1      NOp   1
                         Standard orientation:                         
 ---------------------------------------------------------------------
 Center     Atomic      Atomic             Coordinates (Angstroms)
 Number     Number       Type             X           Y           Z
 ---------------------------------------------------------------------
      1         11           0        1.934838   -2.179347    0.699030
      2         11           0        1.674469    1.228370   -0.957214
      3         11           0       -1.667012    0.597028   -1.529312
      4         11           0       -1.419566   -1.445143    1.001365
      5         11           0       -4.533937   -0.854704   -0.403815
      6         11           0       -0.558875    2.905005    1.588353
      7         11           0        4.570082   -0.251209   -0.398406
 ---------------------------------------------------------------------
 Rotational constants (GHZ):           0.8611547           0.3622309           0.3094766
 Leave Link  202 at Tue Nov 28 19:10:04 2023, MaxMem=  1879048192 cpu:               0.0 elap:               0.0
 (Enter /home/sekinelabo/g16/l301.exe)
 Standard basis: 6-311+G(d) (5D, 7F)
 Ernie: Thresh=  0.10000D-02 Tol=  0.10000D-05 Strict=F.
 There are   217 symmetry adapted cartesian basis functions of A   symmetry.
 There are   210 symmetry adapted basis functions of A   symmetry.
   210 basis functions,   350 primitive gaussians,   217 cartesian basis functions
    39 alpha electrons       38 beta electrons
       nuclear repulsion energy       301.6202346024 Hartrees.
 IExCor=  402 DFT=T Ex+Corr=B3LYP ExCW=0 ScaHFX=  0.200000
 ScaDFX=  0.800000  0.720000  1.000000  0.810000 ScalE2=  1.000000  1.000000
 IRadAn=      5 IRanWt=     -1 IRanGd=            0 ICorTp=0 IEmpDi=  4
 NAtoms=    7 NActive=    7 NUniq=    7 SFac= 1.00D+00 NAtFMM=   60 NAOKFM=F Big=F
 Integral buffers will be    131072 words long.
 Raffenetti 2 integral format.
 Two-electron integral symmetry is turned on.
 Leave Link  301 at Tue Nov 28 19:10:04 2023, MaxMem=  1879048192 cpu:               0.5 elap:               0.0
 (Enter /home/sekinelabo/g16/l302.exe)
 NPDir=0 NMtPBC=     1 NCelOv=     1 NCel=       1 NClECP=     1 NCelD=      1
         NCelK=      1 NCelE2=     1 NClLst=     1 CellRange=     0.0.
 One-electron integrals computed using PRISM.
 One-electron integral symmetry used in STVInt
 NBasis=   210 RedAO= T EigKep=  5.61D-06  NBF=   210
 NBsUse=   210 1.00D-06 EigRej= -1.00D+00 NBFU=   210
 Precomputing XC quadrature grid using
 IXCGrd= 4 IRadAn=           5 IRanWt=          -1 IRanGd=           0 AccXCQ= 0.00D+00.
 Generated NRdTot=       0 NPtTot=           0 NUsed=           0 NTot=          32
 NSgBfM=   205   205   205   205   205 MxSgAt=     7 MxSgA2=     7.
 Leave Link  302 at Tue Nov 28 19:10:04 2023, MaxMem=  1879048192 cpu:               1.8 elap:               0.1
 (Enter /home/sekinelabo/g16/l303.exe)
 DipDrv:  MaxL=1.
 Leave Link  303 at Tue Nov 28 19:10:04 2023, MaxMem=  1879048192 cpu:               0.5 elap:               0.0
 (Enter /home/sekinelabo/g16/l401.exe)
 ExpMin= 7.60D-03 ExpMax= 3.62D+04 ExpMxC= 1.21D+03 IAcc=3 IRadAn=         5 AccDes= 0.00D+00
 Harris functional with IExCor=  402 and IRadAn=       5 diagonalized for initial guess.
 HarFok:  IExCor=  402 AccDes= 0.00D+00 IRadAn=         5 IDoV= 1 UseB2=F ITyADJ=14
 ICtDFT=  3500011 ScaDFX=  1.000000  1.000000  1.000000  1.000000
 FoFCou: FMM=F IPFlag=           0 FMFlag=      100000 FMFlg1=           0
         NFxFlg=           0 DoJE=T BraDBF=F KetDBF=T FulRan=T
         wScrn=  0.000000 ICntrl=       500 IOpCl=  0 I1Cent=   200000004 NGrid=           0
         NMat0=    1 NMatS0=      1 NMatT0=    0 NMatD0=    1 NMtDS0=    0 NMtDT0=    0
 Petite list used in FoFCou.
 Harris En= -1135.88831357056    
 JPrj=0 DoOrth=F DoCkMO=F.
 Initial guess <Sx>= 0.0000 <Sy>= 0.0000 <Sz>= 0.5000 <S**2>= 0.7500 S= 0.5000
 Leave Link  401 at Tue Nov 28 19:10:04 2023, MaxMem=  1879048192 cpu:               4.2 elap:               0.3
 (Enter /home/sekinelabo/g16/l502.exe)
 Keep R1 and R2 ints in memory in canonical form, NReq=506573307.
 FoFCou: FMM=F IPFlag=           0 FMFlag=           0 FMFlg1=           0
         NFxFlg=           0 DoJE=F BraDBF=F KetDBF=F FulRan=T
         wScrn=  0.000000 ICntrl=       600 IOpCl=  0 I1Cent=           0 NGrid=           0
         NMat0=    1 NMatS0=  22155 NMatT0=    0 NMatD0=    1 NMtDS0=    0 NMtDT0=    0
 Symmetry not used in FoFCou.
 Two-electron integral symmetry not used.
 UHF open shell SCF:
 Using DIIS extrapolation, IDIIS=  1040.
 NGot=  1879048192 LenX=  1388082593 LenY=  1388035063
 Requested convergence on RMS density matrix=1.00D-08 within 128 cycles.
 Requested convergence on MAX density matrix=1.00D-06.
 Requested convergence on             energy=1.00D-06.
 No special actions if energy rises.

 Cycle   1  Pass 1  IDiag  1:
 E= -1136.08925878664    
 DIIS: error= 9.92D-03 at cycle   1 NSaved=   1.
 NSaved= 1 IEnMin= 1 EnMin= -1136.08925878664     IErMin= 1 ErrMin= 9.92D-03
 ErrMax= 9.92D-03  0.00D+00 EMaxC= 1.00D-01 BMatC= 1.85D-01 BMatP= 1.85D-01
 IDIUse=3 WtCom= 9.01D-01 WtEn= 9.92D-02
 Coeff-Com:  0.100D+01
 Coeff-En:   0.100D+01
 Coeff:      0.100D+01
 Gap=     0.033 Goal=   None    Shift=    0.000
 Gap=     0.035 Goal=   None    Shift=    0.000
 GapD=    0.033 DampG=0.250 DampE=1.000 DampFc=0.2500 IDamp=-1.
 Damping current iteration by 2.50D-01
 RMSDP=7.76D-03 MaxDP=5.48D-01              OVMax= 2.67D-01

 Cycle   2  Pass 1  IDiag  1:
 E= -1136.09912484969     Delta-E=       -0.009866063054 Rises=F Damp=T
 DIIS: error= 6.90D-03 at cycle   2 NSaved=   2.
 NSaved= 2 IEnMin= 2 EnMin= -1136.09912484969     IErMin= 2 ErrMin= 6.90D-03
 ErrMax= 6.90D-03  0.00D+00 EMaxC= 1.00D-01 BMatC= 7.11D-02 BMatP= 1.85D-01
 IDIUse=3 WtCom= 9.31D-01 WtEn= 6.90D-02
 Coeff-Com: -0.127D+01 0.227D+01
 Coeff-En:   0.000D+00 0.100D+01
 Coeff:     -0.118D+01 0.218D+01
 Gap=     0.042 Goal=   None    Shift=    0.000
 Gap=     0.036 Goal=   None    Shift=    0.000
 RMSDP=5.28D-03 MaxDP=5.22D-01 DE=-9.87D-03 OVMax= 2.10D-01

 Cycle   3  Pass 1  IDiag  1:
 E= -1136.11560132353     Delta-E=       -0.016476473845 Rises=F Damp=F
 DIIS: error= 3.53D-03 at cycle   3 NSaved=   3.
 NSaved= 3 IEnMin= 3 EnMin= -1136.11560132353     IErMin= 3 ErrMin= 3.53D-03
 ErrMax= 3.53D-03  0.00D+00 EMaxC= 1.00D-01 BMatC= 3.14D-03 BMatP= 7.11D-02
 IDIUse=3 WtCom= 9.65D-01 WtEn= 3.53D-02
 Coeff-Com: -0.253D+00 0.436D+00 0.816D+00
 Coeff-En:   0.000D+00 0.000D+00 0.100D+01
 Coeff:     -0.244D+00 0.421D+00 0.823D+00
 Gap=     0.037 Goal=   None    Shift=    0.000
 Gap=     0.040 Goal=   None    Shift=    0.000
 RMSDP=2.66D-03 MaxDP=9.41D-02 DE=-1.65D-02 OVMax= 1.64D-01

 Cycle   4  Pass 1  IDiag  1:
 E= -1136.11481838847     Delta-E=        0.000782935067 Rises=F Damp=F
 DIIS: error= 3.66D-03 at cycle   4 NSaved=   4.
 NSaved= 4 IEnMin= 3 EnMin= -1136.11560132353     IErMin= 3 ErrMin= 3.53D-03
 ErrMax= 3.66D-03  0.00D+00 EMaxC= 1.00D-01 BMatC= 4.02D-03 BMatP= 3.14D-03
 IDIUse=3 WtCom= 1.42D-01 WtEn= 8.58D-01
 Coeff-Com: -0.116D-01 0.153D-01 0.531D+00 0.465D+00
 Coeff-En:   0.000D+00 0.000D+00 0.542D+00 0.458D+00
 Coeff:     -0.165D-02 0.218D-02 0.540D+00 0.459D+00
 Gap=     0.037 Goal=   None    Shift=    0.000
 Gap=     0.039 Goal=   None    Shift=    0.000
 RMSDP=1.46D-03 MaxDP=5.58D-02 DE= 7.83D-04 OVMax= 7.96D-02

 Cycle   5  Pass 1  IDiag  1:
 E= -1136.11912783583     Delta-E=       -0.004309447362 Rises=F Damp=F
 DIIS: error= 4.40D-04 at cycle   5 NSaved=   5.
 NSaved= 5 IEnMin= 5 EnMin= -1136.11912783583     IErMin= 5 ErrMin= 4.40D-04
 ErrMax= 4.40D-04  0.00D+00 EMaxC= 1.00D-01 BMatC= 4.95D-05 BMatP= 3.14D-03
 IDIUse=3 WtCom= 9.96D-01 WtEn= 4.40D-03
 Coeff-Com:  0.897D-03-0.265D-02 0.249D+00 0.207D+00 0.546D+00
 Coeff-En:   0.000D+00 0.000D+00 0.000D+00 0.000D+00 0.100D+01
 Coeff:      0.893D-03-0.263D-02 0.248D+00 0.206D+00 0.548D+00
 Gap=     0.036 Goal=   None    Shift=    0.000
 Gap=     0.040 Goal=   None    Shift=    0.000
 RMSDP=2.15D-04 MaxDP=8.21D-03 DE=-4.31D-03 OVMax= 1.34D-02

 Cycle   6  Pass 1  IDiag  1:
 E= -1136.11920102413     Delta-E=       -0.000073188301 Rises=F Damp=F
 DIIS: error= 1.58D-04 at cycle   6 NSaved=   6.
 NSaved= 6 IEnMin= 6 EnMin= -1136.11920102413     IErMin= 6 ErrMin= 1.58D-04
 ErrMax= 1.58D-04  0.00D+00 EMaxC= 1.00D-01 BMatC= 1.19D-05 BMatP= 4.95D-05
 IDIUse=3 WtCom= 9.98D-01 WtEn= 1.58D-03
 Coeff-Com:  0.369D-02-0.579D-02-0.784D-01-0.848D-01 0.252D+00 0.914D+00
 Coeff-En:   0.000D+00 0.000D+00 0.000D+00 0.000D+00 0.000D+00 0.100D+01
 Coeff:      0.368D-02-0.578D-02-0.783D-01-0.847D-01 0.251D+00 0.914D+00
 Gap=     0.036 Goal=   None    Shift=    0.000
 Gap=     0.040 Goal=   None    Shift=    0.000
 RMSDP=1.77D-04 MaxDP=5.49D-03 DE=-7.32D-05 OVMax= 1.42D-02

 Cycle   7  Pass 1  IDiag  1:
 E= -1136.11924295457     Delta-E=       -0.000041930438 Rises=F Damp=F
 DIIS: error= 8.45D-05 at cycle   7 NSaved=   7.
 NSaved= 7 IEnMin= 7 EnMin= -1136.11924295457     IErMin= 7 ErrMin= 8.45D-05
 ErrMax= 8.45D-05  0.00D+00 EMaxC= 1.00D-01 BMatC= 1.55D-06 BMatP= 1.19D-05
 IDIUse=1 WtCom= 1.00D+00 WtEn= 0.00D+00
 Coeff-Com:  0.127D-02-0.160D-02-0.597D-01-0.564D-01-0.637D-01 0.978D-01
 Coeff-Com:  0.108D+01
 Coeff:      0.127D-02-0.160D-02-0.597D-01-0.564D-01-0.637D-01 0.978D-01
 Coeff:      0.108D+01
 Gap=     0.037 Goal=   None    Shift=    0.000
 Gap=     0.041 Goal=   None    Shift=    0.000
 RMSDP=1.22D-04 MaxDP=4.35D-03 DE=-4.19D-05 OVMax= 1.05D-02

 Cycle   8  Pass 1  IDiag  1:
 E= -1136.11925410197     Delta-E=       -0.000011147397 Rises=F Damp=F
 DIIS: error= 3.40D-05 at cycle   8 NSaved=   8.
 NSaved= 8 IEnMin= 8 EnMin= -1136.11925410197     IErMin= 8 ErrMin= 3.40D-05
 ErrMax= 3.40D-05  0.00D+00 EMaxC= 1.00D-01 BMatC= 4.94D-07 BMatP= 1.55D-06
 IDIUse=1 WtCom= 1.00D+00 WtEn= 0.00D+00
 Coeff-Com:  0.912D-03-0.108D-02-0.128D-01-0.113D-01-0.744D-01-0.758D-01
 Coeff-Com:  0.361D+00 0.814D+00
 Coeff:      0.912D-03-0.108D-02-0.128D-01-0.113D-01-0.744D-01-0.758D-01
 Coeff:      0.361D+00 0.814D+00
 Gap=     0.037 Goal=   None    Shift=    0.000
 Gap=     0.041 Goal=   None    Shift=    0.000
 RMSDP=4.90D-05 MaxDP=1.78D-03 DE=-1.11D-05 OVMax= 3.94D-03

 Cycle   9  Pass 1  IDiag  1:
 E= -1136.11925622574     Delta-E=       -0.000002123773 Rises=F Damp=F
 DIIS: error= 2.35D-05 at cycle   9 NSaved=   9.
 NSaved= 9 IEnMin= 9 EnMin= -1136.11925622574     IErMin= 9 ErrMin= 2.35D-05
 ErrMax= 2.35D-05  0.00D+00 EMaxC= 1.00D-01 BMatC= 2.20D-07 BMatP= 4.94D-07
 IDIUse=1 WtCom= 1.00D+00 WtEn= 0.00D+00
 Coeff-Com:  0.413D-03-0.484D-03 0.634D-02 0.587D-02-0.344D-01-0.671D-01
 Coeff-Com: -0.406D-01 0.469D+00 0.661D+00
 Coeff:      0.413D-03-0.484D-03 0.634D-02 0.587D-02-0.344D-01-0.671D-01
 Coeff:     -0.406D-01 0.469D+00 0.661D+00
 Gap=     0.037 Goal=   None    Shift=    0.000
 Gap=     0.041 Goal=   None    Shift=    0.000
 RMSDP=2.68D-05 MaxDP=1.18D-03 DE=-2.12D-06 OVMax= 2.16D-03

 Cycle  10  Pass 1  IDiag  1:
 E= -1136.11925702214     Delta-E=       -0.000000796403 Rises=F Damp=F
 DIIS: error= 1.26D-05 at cycle  10 NSaved=  10.
 NSaved=10 IEnMin=10 EnMin= -1136.11925702214     IErMin=10 ErrMin= 1.26D-05
 ErrMax= 1.26D-05  0.00D+00 EMaxC= 1.00D-01 BMatC= 3.40D-08 BMatP= 2.20D-07
 IDIUse=1 WtCom= 1.00D+00 WtEn= 0.00D+00
 Coeff-Com: -0.262D-03 0.334D-03 0.371D-02 0.258D-02 0.141D-01 0.575D-02
 Coeff-Com: -0.640D-01-0.149D+00 0.438D-01 0.114D+01
 Coeff:     -0.262D-03 0.334D-03 0.371D-02 0.258D-02 0.141D-01 0.575D-02
 Coeff:     -0.640D-01-0.149D+00 0.438D-01 0.114D+01
 Gap=     0.037 Goal=   None    Shift=    0.000
 Gap=     0.041 Goal=   None    Shift=    0.000
 RMSDP=1.86D-05 MaxDP=8.46D-04 DE=-7.96D-07 OVMax= 1.75D-03

 Cycle  11  Pass 1  IDiag  1:
 E= -1136.11925742569     Delta-E=       -0.000000403544 Rises=F Damp=F
 DIIS: error= 8.33D-06 at cycle  11 NSaved=  11.
 NSaved=11 IEnMin=11 EnMin= -1136.11925742569     IErMin=11 ErrMin= 8.33D-06
 ErrMax= 8.33D-06  0.00D+00 EMaxC= 1.00D-01 BMatC= 1.54D-08 BMatP= 3.40D-08
 IDIUse=1 WtCom= 1.00D+00 WtEn= 0.00D+00
 Coeff-Com: -0.105D-03 0.126D-03-0.810D-03-0.860D-03 0.676D-02 0.127D-01
 Coeff-Com:  0.410D-02-0.104D+00-0.159D+00 0.398D-01 0.120D+01
 Coeff:     -0.105D-03 0.126D-03-0.810D-03-0.860D-03 0.676D-02 0.127D-01
 Coeff:      0.410D-02-0.104D+00-0.159D+00 0.398D-01 0.120D+01
 Gap=     0.037 Goal=   None    Shift=    0.000
 Gap=     0.041 Goal=   None    Shift=    0.000
 RMSDP=1.57D-05 MaxDP=7.22D-04 DE=-4.04D-07 OVMax= 1.53D-03

 Cycle  12  Pass 1  IDiag  1:
 E= -1136.11925771444     Delta-E=       -0.000000288752 Rises=F Damp=F
 DIIS: error= 7.33D-06 at cycle  12 NSaved=  12.
 NSaved=12 IEnMin=12 EnMin= -1136.11925771444     IErMin=12 ErrMin= 7.33D-06
 ErrMax= 7.33D-06  0.00D+00 EMaxC= 1.00D-01 BMatC= 1.06D-08 BMatP= 1.54D-08
 IDIUse=1 WtCom= 1.00D+00 WtEn= 0.00D+00
 Coeff-Com:  0.429D-04-0.561D-04-0.125D-02-0.895D-03-0.188D-02 0.263D-02
 Coeff-Com:  0.150D-01 0.104D-01-0.489D-01-0.287D+00 0.291D+00 0.102D+01
 Coeff:      0.429D-04-0.561D-04-0.125D-02-0.895D-03-0.188D-02 0.263D-02
 Coeff:      0.150D-01 0.104D-01-0.489D-01-0.287D+00 0.291D+00 0.102D+01
 Gap=     0.037 Goal=   None    Shift=    0.000
 Gap=     0.041 Goal=   None    Shift=    0.000
 RMSDP=1.20D-05 MaxDP=6.05D-04 DE=-2.89D-07 OVMax= 1.20D-03

 Cycle  13  Pass 1  IDiag  1:
 E= -1136.11925792028     Delta-E=       -0.000000205843 Rises=F Damp=F
 DIIS: error= 5.79D-06 at cycle  13 NSaved=  13.
 NSaved=13 IEnMin=13 EnMin= -1136.11925792028     IErMin=13 ErrMin= 5.79D-06
 ErrMax= 5.79D-06  0.00D+00 EMaxC= 1.00D-01 BMatC= 8.44D-09 BMatP= 1.06D-08
 IDIUse=1 WtCom= 1.00D+00 WtEn= 0.00D+00
 Coeff-Com:  0.168D-03-0.210D-03-0.408D-04 0.365D-03-0.377D-02-0.145D-01
 Coeff-Com: -0.129D-01 0.125D+00 0.181D+00-0.611D-01-0.113D+01-0.428D+00
 Coeff-Com:  0.235D+01
 Coeff:      0.168D-03-0.210D-03-0.408D-04 0.365D-03-0.377D-02-0.145D-01
 Coeff:     -0.129D-01 0.125D+00 0.181D+00-0.611D-01-0.113D+01-0.428D+00
 Coeff:      0.235D+01
 Gap=     0.037 Goal=   None    Shift=    0.000
 Gap=     0.041 Goal=   None    Shift=    0.000
 RMSDP=2.79D-05 MaxDP=1.45D-03 DE=-2.06D-07 OVMax= 2.99D-03

 Cycle  14  Pass 1  IDiag  1:
 E= -1136.11925833796     Delta-E=       -0.000000417675 Rises=F Damp=F
 DIIS: error= 4.71D-06 at cycle  14 NSaved=  14.
 NSaved=14 IEnMin=14 EnMin= -1136.11925833796     IErMin=14 ErrMin= 4.71D-06
 ErrMax= 4.71D-06  0.00D+00 EMaxC= 1.00D-01 BMatC= 5.21D-09 BMatP= 8.44D-09
 IDIUse=1 WtCom= 1.00D+00 WtEn= 0.00D+00
 Coeff-Com: -0.134D-03 0.177D-03 0.727D-03 0.515D-03 0.258D-02 0.313D-02
 Coeff-Com: -0.124D-01-0.399D-01-0.532D-02 0.213D+00 0.207D+00-0.768D+00
 Coeff-Com: -0.909D+00 0.231D+01
 Coeff:     -0.134D-03 0.177D-03 0.727D-03 0.515D-03 0.258D-02 0.313D-02
 Coeff:     -0.124D-01-0.399D-01-0.532D-02 0.213D+00 0.207D+00-0.768D+00
 Coeff:     -0.909D+00 0.231D+01
 Gap=     0.037 Goal=   None    Shift=    0.000
 Gap=     0.041 Goal=   None    Shift=    0.000
 RMSDP=3.68D-05 MaxDP=2.06D-03 DE=-4.18D-07 OVMax= 4.15D-03

 Cycle  15  Pass 1  IDiag  1:
 E= -1136.11925874358     Delta-E=       -0.000000405625 Rises=F Damp=F
 DIIS: error= 3.12D-06 at cycle  15 NSaved=  15.
 NSaved=15 IEnMin=15 EnMin= -1136.11925874358     IErMin=15 ErrMin= 3.12D-06
 ErrMax= 3.12D-06  0.00D+00 EMaxC= 1.00D-01 BMatC= 2.59D-09 BMatP= 5.21D-09
 IDIUse=1 WtCom= 1.00D+00 WtEn= 0.00D+00
 Coeff-Com: -0.194D-03 0.249D-03 0.357D-03 0.423D-04 0.346D-02 0.138D-01
 Coeff-Com: -0.955D-03-0.110D+00-0.130D+00 0.119D+00 0.966D+00 0.808D-01
 Coeff-Com: -0.214D+01 0.742D+00 0.146D+01
 Coeff:     -0.194D-03 0.249D-03 0.357D-03 0.423D-04 0.346D-02 0.138D-01
 Coeff:     -0.955D-03-0.110D+00-0.130D+00 0.119D+00 0.966D+00 0.808D-01
 Coeff:     -0.214D+01 0.742D+00 0.146D+01
 Gap=     0.037 Goal=   None    Shift=    0.000
 Gap=     0.041 Goal=   None    Shift=    0.000
 RMSDP=3.15D-05 MaxDP=1.87D-03 DE=-4.06D-07 OVMax= 3.66D-03

 Cycle  16  Pass 1  IDiag  1:
 E= -1136.11925893937     Delta-E=       -0.000000195786 Rises=F Damp=F
 DIIS: error= 1.70D-06 at cycle  16 NSaved=  16.
 NSaved=16 IEnMin=16 EnMin= -1136.11925893937     IErMin=16 ErrMin= 1.70D-06
 ErrMax= 1.70D-06  0.00D+00 EMaxC= 1.00D-01 BMatC= 9.31D-10 BMatP= 2.59D-09
 IDIUse=1 WtCom= 1.00D+00 WtEn= 0.00D+00
 Coeff-Com: -0.154D-04 0.159D-04-0.170D-03-0.135D-03 0.462D-03 0.426D-02
 Coeff-Com:  0.152D-02-0.257D-01-0.469D-01-0.441D-01 0.321D+00 0.314D+00
 Coeff-Com: -0.531D+00-0.599D+00 0.651D+00 0.954D+00
 Coeff:     -0.154D-04 0.159D-04-0.170D-03-0.135D-03 0.462D-03 0.426D-02
 Coeff:      0.152D-02-0.257D-01-0.469D-01-0.441D-01 0.321D+00 0.314D+00
 Coeff:     -0.531D+00-0.599D+00 0.651D+00 0.954D+00
 Gap=     0.037 Goal=   None    Shift=    0.000
 Gap=     0.041 Goal=   None    Shift=    0.000
 RMSDP=1.40D-05 MaxDP=8.49D-04 DE=-1.96D-07 OVMax= 1.71D-03

 Cycle  17  Pass 1  IDiag  1:
 E= -1136.11925897692     Delta-E=       -0.000000037550 Rises=F Damp=F
 DIIS: error= 1.03D-06 at cycle  17 NSaved=  17.
 NSaved=17 IEnMin=17 EnMin= -1136.11925897692     IErMin=17 ErrMin= 1.03D-06
 ErrMax= 1.03D-06  0.00D+00 EMaxC= 1.00D-01 BMatC= 3.88D-10 BMatP= 9.31D-10
 IDIUse=1 WtCom= 1.00D+00 WtEn= 0.00D+00
 Coeff-Com:  0.584D-04-0.775D-04-0.193D-03-0.440D-04-0.374D-03-0.246D-02
 Coeff-Com: -0.102D-02 0.238D-01 0.277D-01-0.360D-01-0.233D+00 0.124D+00
 Coeff-Com:  0.570D+00-0.587D+00-0.279D+00 0.524D+00 0.870D+00
 Coeff:      0.584D-04-0.775D-04-0.193D-03-0.440D-04-0.374D-03-0.246D-02
 Coeff:     -0.102D-02 0.238D-01 0.277D-01-0.360D-01-0.233D+00 0.124D+00
 Coeff:      0.570D+00-0.587D+00-0.279D+00 0.524D+00 0.870D+00
 Gap=     0.037 Goal=   None    Shift=    0.000
 Gap=     0.041 Goal=   None    Shift=    0.000
 RMSDP=5.20D-06 MaxDP=3.38D-04 DE=-3.75D-08 OVMax= 6.78D-04

 Cycle  18  Pass 1  IDiag  1:
 E= -1136.11925898273     Delta-E=       -0.000000005810 Rises=F Damp=F
 DIIS: error= 3.42D-07 at cycle  18 NSaved=  18.
 NSaved=18 IEnMin=18 EnMin= -1136.11925898273     IErMin=18 ErrMin= 3.42D-07
 ErrMax= 3.42D-07  0.00D+00 EMaxC= 1.00D-01 BMatC= 4.06D-11 BMatP= 3.88D-10
 IDIUse=1 WtCom= 1.00D+00 WtEn= 0.00D+00
 Coeff-Com:  0.758D-05-0.933D-05 0.150D-04 0.474D-04-0.406D-03-0.129D-02
 Coeff-Com: -0.331D-03 0.924D-02 0.157D-01 0.306D-02-0.975D-01-0.742D-01
 Coeff-Com:  0.182D+00 0.124D+00-0.228D+00-0.144D+00 0.451D-01 0.117D+01
 Coeff:      0.758D-05-0.933D-05 0.150D-04 0.474D-04-0.406D-03-0.129D-02
 Coeff:     -0.331D-03 0.924D-02 0.157D-01 0.306D-02-0.975D-01-0.742D-01
 Coeff:      0.182D+00 0.124D+00-0.228D+00-0.144D+00 0.451D-01 0.117D+01
 Gap=     0.037 Goal=   None    Shift=    0.000
 Gap=     0.041 Goal=   None    Shift=    0.000
 RMSDP=1.27D-06 MaxDP=8.63D-05 DE=-5.81D-09 OVMax= 1.67D-04

 Cycle  19  Pass 1  IDiag  1:
 E= -1136.11925898330     Delta-E=       -0.000000000576 Rises=F Damp=F
 DIIS: error= 1.11D-07 at cycle  19 NSaved=  19.
 NSaved=19 IEnMin=19 EnMin= -1136.11925898330     IErMin=19 ErrMin= 1.11D-07
 ErrMax= 1.11D-07  0.00D+00 EMaxC= 1.00D-01 BMatC= 5.41D-12 BMatP= 4.06D-11
 IDIUse=1 WtCom= 1.00D+00 WtEn= 0.00D+00
 Coeff-Com: -0.107D-04 0.141D-04 0.316D-04 0.101D-04-0.496D-04 0.309D-03
 Coeff-Com:  0.770D-03-0.392D-02-0.466D-02 0.222D-02 0.440D-01-0.146D-01
 Coeff-Com: -0.987D-01 0.772D-01 0.629D-01-0.619D-01-0.161D+00-0.210D-01
 Coeff-Com:  0.118D+01
 Coeff:     -0.107D-04 0.141D-04 0.316D-04 0.101D-04-0.496D-04 0.309D-03
 Coeff:      0.770D-03-0.392D-02-0.466D-02 0.222D-02 0.440D-01-0.146D-01
 Coeff:     -0.987D-01 0.772D-01 0.629D-01-0.619D-01-0.161D+00-0.210D-01
 Coeff:      0.118D+01
 Gap=     0.037 Goal=   None    Shift=    0.000
 Gap=     0.041 Goal=   None    Shift=    0.000
 RMSDP=3.21D-07 MaxDP=1.65D-05 DE=-5.76D-10 OVMax= 3.63D-05

 Cycle  20  Pass 1  IDiag  1:
 E= -1136.11925898334     Delta-E=       -0.000000000035 Rises=F Damp=F
 DIIS: error= 4.34D-08 at cycle  20 NSaved=  20.
 NSaved=20 IEnMin=20 EnMin= -1136.11925898334     IErMin=20 ErrMin= 4.34D-08
 ErrMax= 4.34D-08  0.00D+00 EMaxC= 1.00D-01 BMatC= 8.65D-13 BMatP= 5.41D-12
 IDIUse=1 WtCom= 1.00D+00 WtEn= 0.00D+00
 Coeff-Com: -0.227D-05 0.295D-05 0.823D-05 0.138D-06 0.383D-04 0.196D-03
 Coeff-Com: -0.232D-06-0.154D-02-0.224D-02 0.638D-03 0.157D-01 0.648D-02
 Coeff-Com: -0.361D-01 0.548D-02 0.255D-01 0.924D-02-0.286D-01-0.146D+00
 Coeff-Com:  0.139D+00 0.101D+01
 Coeff:     -0.227D-05 0.295D-05 0.823D-05 0.138D-06 0.383D-04 0.196D-03
 Coeff:     -0.232D-06-0.154D-02-0.224D-02 0.638D-03 0.157D-01 0.648D-02
 Coeff:     -0.361D-01 0.548D-02 0.255D-01 0.924D-02-0.286D-01-0.146D+00
 Coeff:      0.139D+00 0.101D+01
 Gap=     0.037 Goal=   None    Shift=    0.000
 Gap=     0.041 Goal=   None    Shift=    0.000
 RMSDP=1.04D-07 MaxDP=4.11D-06 DE=-3.46D-11 OVMax= 7.61D-06

 Cycle  21  Pass 1  IDiag  1:
 E= -1136.11925898334     Delta-E=       -0.000000000002 Rises=F Damp=F
 DIIS: error= 2.60D-08 at cycle  21 NSaved=  20.
 NSaved=20 IEnMin=20 EnMin= -1136.11925898334     IErMin=20 ErrMin= 2.60D-08
 ErrMax= 2.60D-08  0.00D+00 EMaxC= 1.00D-01 BMatC= 1.70D-13 BMatP= 8.65D-13
 IDIUse=1 WtCom= 1.00D+00 WtEn= 0.00D+00
 Coeff-Com:  0.114D-06-0.783D-06 0.128D-06 0.311D-04 0.281D-04-0.165D-03
 Coeff-Com: -0.476D-04 0.970D-04 0.653D-03-0.175D-02 0.199D-02 0.421D-02
 Coeff-Com: -0.779D-02-0.193D-02 0.848D-02 0.135D-01-0.771D-02-0.182D+00
 Coeff-Com:  0.142D+00 0.103D+01
 Coeff:      0.114D-06-0.783D-06 0.128D-06 0.311D-04 0.281D-04-0.165D-03
 Coeff:     -0.476D-04 0.970D-04 0.653D-03-0.175D-02 0.199D-02 0.421D-02
 Coeff:     -0.779D-02-0.193D-02 0.848D-02 0.135D-01-0.771D-02-0.182D+00
 Coeff:      0.142D+00 0.103D+01
 Gap=     0.037 Goal=   None    Shift=    0.000
 Gap=     0.041 Goal=   None    Shift=    0.000
 RMSDP=4.72D-08 MaxDP=2.20D-06 DE=-2.27D-12 OVMax= 3.08D-06

 Cycle  22  Pass 1  IDiag  1:
 E= -1136.11925898336     Delta-E=       -0.000000000020 Rises=F Damp=F
 DIIS: error= 9.63D-09 at cycle  22 NSaved=  20.
 NSaved=20 IEnMin=20 EnMin= -1136.11925898336     IErMin=20 ErrMin= 9.63D-09
 ErrMax= 9.63D-09  0.00D+00 EMaxC= 1.00D-01 BMatC= 3.09D-14 BMatP= 1.70D-13
 IDIUse=1 WtCom= 1.00D+00 WtEn= 0.00D+00
 Coeff-Com: -0.203D-05-0.980D-07-0.653D-05-0.285D-04 0.114D-04 0.242D-03
 Coeff-Com:  0.328D-03-0.433D-03-0.159D-02-0.117D-02 0.470D-02 0.360D-03
 Coeff-Com: -0.476D-02-0.227D-02 0.527D-02 0.248D-01-0.141D-01-0.192D+00
 Coeff-Com: -0.122D+00 0.130D+01
 Coeff:     -0.203D-05-0.980D-07-0.653D-05-0.285D-04 0.114D-04 0.242D-03
 Coeff:      0.328D-03-0.433D-03-0.159D-02-0.117D-02 0.470D-02 0.360D-03
 Coeff:     -0.476D-02-0.227D-02 0.527D-02 0.248D-01-0.141D-01-0.192D+00
 Coeff:     -0.122D+00 0.130D+01
 Gap=     0.037 Goal=   None    Shift=    0.000
 Gap=     0.041 Goal=   None    Shift=    0.000
 RMSDP=2.55D-08 MaxDP=1.15D-06 DE=-2.05D-11 OVMax= 1.46D-06

 Cycle  23  Pass 1  IDiag  1:
 E= -1136.11925898335     Delta-E=        0.000000000005 Rises=F Damp=F
 DIIS: error= 3.66D-09 at cycle  23 NSaved=  20.
 NSaved=20 IEnMin=19 EnMin= -1136.11925898336     IErMin=20 ErrMin= 3.66D-09
 ErrMax= 3.66D-09  0.00D+00 EMaxC= 1.00D-01 BMatC= 5.24D-15 BMatP= 3.09D-14
 IDIUse=1 WtCom= 1.00D+00 WtEn= 0.00D+00
 Large coefficients: NSaved= 20 BigCof=    0.00 CofMax=   10.00 Det=-8.01D-15
 Inversion failed.  Reducing to 19 matrices.
 Coeff-Com: -0.499D-05-0.759D-05 0.339D-04 0.273D-04-0.491D-04-0.157D-03
 Coeff-Com:  0.433D-03-0.546D-03-0.744D-03 0.156D-02 0.164D-03-0.169D-02
 Coeff-Com: -0.241D-02 0.592D-02 0.248D-01-0.239D-01-0.190D+00 0.997D-01
 Coeff-Com:  0.109D+01
 Coeff:     -0.499D-05-0.759D-05 0.339D-04 0.273D-04-0.491D-04-0.157D-03
 Coeff:      0.433D-03-0.546D-03-0.744D-03 0.156D-02 0.164D-03-0.169D-02
 Coeff:     -0.241D-02 0.592D-02 0.248D-01-0.239D-01-0.190D+00 0.997D-01
 Coeff:      0.109D+01
 Gap=     0.037 Goal=   None    Shift=    0.000
 Gap=     0.041 Goal=   None    Shift=    0.000
 RMSDP=8.04D-09 MaxDP=4.60D-07 DE= 4.55D-12 OVMax= 8.89D-07

 SCF Done:  E(UB3LYP) =  -1136.11925898     A.U. after   23 cycles
            NFock= 23  Conv=0.80D-08     -V/T= 2.0029
 <Sx>= 0.0000 <Sy>= 0.0000 <Sz>= 0.5000 <S**2>= 0.7854 S= 0.5176
 <L.S>= 0.000000000000E+00
 KE= 1.132867989733D+03 PE=-3.332479548038D+03 EE= 7.618720647192D+02
 Annihilation of the first spin contaminant:
 S**2 before annihilation     0.7854,   after     0.7508
 Leave Link  502 at Tue Nov 28 19:10:23 2023, MaxMem=  1879048192 cpu:             203.0 elap:              18.4
 (Enter /home/sekinelabo/g16/l601.exe)
 Copying SCF densities to generalized density rwf, IOpCl= 1 IROHF=0.

 **********************************************************************

            Population analysis using the SCF Density.

 **********************************************************************

 Orbital symmetries:
 Alpha Orbitals:
       Occupied  (A) (A) (A) (A) (A) (A) (A) (A) (A) (A) (A) (A)
                 (A) (A) (A) (A) (A) (A) (A) (A) (A) (A) (A) (A)
                 (A) (A) (A) (A) (A) (A) (A) (A) (A) (A) (A) (A)
                 (A) (A) (A)
       Virtual   (A) (A) (A) (A) (A) (A) (A) (A) (A) (A) (A) (A)
                 (A) (A) (A) (A) (A) (A) (A) (A) (A) (A) (A) (A)
                 (A) (A) (A) (A) (A) (A) (A) (A) (A) (A) (A) (A)
                 (A) (A) (A) (A) (A) (A) (A) (A) (A) (A) (A) (A)
                 (A) (A) (A) (A) (A) (A) (A) (A) (A) (A) (A) (A)
                 (A) (A) (A) (A) (A) (A) (A) (A) (A) (A) (A) (A)
                 (A) (A) (A) (A) (A) (A) (A) (A) (A) (A) (A) (A)
                 (A) (A) (A) (A) (A) (A) (A) (A) (A) (A) (A) (A)
                 (A) (A) (A) (A) (A) (A) (A) (A) (A) (A) (A) (A)
                 (A) (A) (A) (A) (A) (A) (A) (A) (A) (A) (A) (A)
                 (A) (A) (A) (A) (A) (A) (A) (A) (A) (A) (A) (A)
                 (A) (A) (A) (A) (A) (A) (A) (A) (A) (A) (A) (A)
                 (A) (A) (A) (A) (A) (A) (A) (A) (A) (A) (A) (A)
                 (A) (A) (A) (A) (A) (A) (A) (A) (A) (A) (A) (A)
                 (A) (A) (A)
 Beta  Orbitals:
       Occupied  (A) (A) (A) (A) (A) (A) (A) (A) (A) (A) (A) (A)
                 (A) (A) (A) (A) (A) (A) (A) (A) (A) (A) (A) (A)
                 (A) (A) (A) (A) (A) (A) (A) (A) (A) (A) (A) (A)
                 (A) (A)
       Virtual   (A) (A) (A) (A) (A) (A) (A) (A) (A) (A) (A) (A)
                 (A) (A) (A) (A) (A) (A) (A) (A) (A) (A) (A) (A)
                 (A) (A) (A) (A) (A) (A) (A) (A) (A) (A) (A) (A)
                 (A) (A) (A) (A) (A) (A) (A) (A) (A) (A) (A) (A)
                 (A) (A) (A) (A) (A) (A) (A) (A) (A) (A) (A) (A)
                 (A) (A) (A) (A) (A) (A) (A) (A) (A) (A) (A) (A)
                 (A) (A) (A) (A) (A) (A) (A) (A) (A) (A) (A) (A)
                 (A) (A) (A) (A) (A) (A) (A) (A) (A) (A) (A) (A)
                 (A) (A) (A) (A) (A) (A) (A) (A) (A) (A) (A) (A)
                 (A) (A) (A) (A) (A) (A) (A) (A) (A) (A) (A) (A)
                 (A) (A) (A) (A) (A) (A) (A) (A) (A) (A) (A) (A)
                 (A) (A) (A) (A) (A) (A) (A) (A) (A) (A) (A) (A)
                 (A) (A) (A) (A) (A) (A) (A) (A) (A) (A) (A) (A)
                 (A) (A) (A) (A) (A) (A) (A) (A) (A) (A) (A) (A)
                 (A) (A) (A) (A)
 The electronic state is 2-A.
 Alpha  occ. eigenvalues --  -38.44757 -38.44525 -38.43819 -38.43812 -38.43724
 Alpha  occ. eigenvalues --  -38.43712 -38.43675  -2.20611  -2.20271  -2.19643
 Alpha  occ. eigenvalues --   -2.19640  -2.19596  -2.19560  -2.19504  -1.14331
 Alpha  occ. eigenvalues --   -1.14291  -1.14195  -1.13946  -1.13942  -1.13878
 Alpha  occ. eigenvalues --   -1.13332  -1.13306  -1.13298  -1.13296  -1.13294
 Alpha  occ. eigenvalues --   -1.13279  -1.13276  -1.13274  -1.13251  -1.13236
 Alpha  occ. eigenvalues --   -1.13209  -1.13181  -1.13161  -1.13131  -1.13105
 Alpha  occ. eigenvalues --   -0.17274  -0.13946  -0.11761  -0.10832
 Alpha virt. eigenvalues --   -0.07169  -0.05074  -0.04308  -0.03359  -0.02868
 Alpha virt. eigenvalues --   -0.02752  -0.01925  -0.01360  -0.01133  -0.00556
 Alpha virt. eigenvalues --   -0.00250   0.00073   0.00441   0.00639   0.00686
 Alpha virt. eigenvalues --    0.00812   0.00950   0.01123   0.01205   0.01329
 Alpha virt. eigenvalues --    0.01468   0.01538   0.01588   0.01702   0.01805
 Alpha virt. eigenvalues --    0.01957   0.02182   0.02239   0.02471   0.02529
 Alpha virt. eigenvalues --    0.02606   0.02736   0.02860   0.02954   0.03031
 Alpha virt. eigenvalues --    0.03235   0.03295   0.03457   0.03662   0.03691
 Alpha virt. eigenvalues --    0.03855   0.03877   0.03967   0.04265   0.04367
 Alpha virt. eigenvalues --    0.04534   0.04790   0.05127   0.05340   0.05415
 Alpha virt. eigenvalues --    0.06106   0.06280   0.06500   0.06901   0.06991
 Alpha virt. eigenvalues --    0.07352   0.07668   0.07968   0.08497   0.08654
 Alpha virt. eigenvalues --    0.09012   0.09110   0.09662   0.10161   0.10185
 Alpha virt. eigenvalues --    0.10592   0.11419   0.11600   0.11762   0.12198
 Alpha virt. eigenvalues --    0.12918   0.13059   0.13603   0.13870   0.14147
 Alpha virt. eigenvalues --    0.14450   0.14637   0.16338   0.16687   0.17629
 Alpha virt. eigenvalues --    0.25322   0.27392   0.28384   0.29360   0.29659
 Alpha virt. eigenvalues --    0.30459   0.31175   0.31974   0.32469   0.32660
 Alpha virt. eigenvalues --    0.33753   0.34100   0.35342   0.36329   0.36917
 Alpha virt. eigenvalues --    0.37733   0.37834   0.38229   0.39191   0.39836
 Alpha virt. eigenvalues --    0.41262   0.41787   0.42724   0.43211   0.43409
 Alpha virt. eigenvalues --    0.44104   0.44498   0.44531   0.44621   0.44807
 Alpha virt. eigenvalues --    0.45056   0.45446   0.45547   0.46002   0.46624
 Alpha virt. eigenvalues --    0.47056   0.47158   0.47960   0.49243   0.49608
 Alpha virt. eigenvalues --    0.50362   0.50782   0.51142   0.51552   0.52756
 Alpha virt. eigenvalues --    0.54028   0.54143   0.56190   0.57420   0.58370
 Alpha virt. eigenvalues --    0.59095   0.60432   0.61276   0.62301   0.64227
 Alpha virt. eigenvalues --    0.67409   2.03488   2.08250   2.09828   2.14591
 Alpha virt. eigenvalues --    2.16198   2.18959   2.22582   4.42784   4.43719
 Alpha virt. eigenvalues --    4.44203   4.44892   4.45019   4.45357   4.45554
 Alpha virt. eigenvalues --    4.45714   4.46092   4.46402   4.46561   4.47454
 Alpha virt. eigenvalues --    4.47942   4.48282   4.50082   4.51443   4.52870
 Alpha virt. eigenvalues --    4.54292   4.55913   4.57518   4.58611  96.23121
 Alpha virt. eigenvalues --   96.28519  96.30873  96.36304  96.38388  96.41237
 Alpha virt. eigenvalues --   96.46090
  Beta  occ. eigenvalues --  -38.44746 -38.44510 -38.43785 -38.43774 -38.43700
  Beta  occ. eigenvalues --  -38.43676 -38.43633  -2.20592  -2.20242  -2.19577
  Beta  occ. eigenvalues --   -2.19570  -2.19540  -2.19512  -2.19432  -1.14311
  Beta  occ. eigenvalues --   -1.14280  -1.14178  -1.13927  -1.13921  -1.13860
  Beta  occ. eigenvalues --   -1.13293  -1.13257  -1.13252  -1.13250  -1.13249
  Beta  occ. eigenvalues --   -1.13244  -1.13236  -1.13230  -1.13213  -1.13196
  Beta  occ. eigenvalues --   -1.13141  -1.13133  -1.13109  -1.13097  -1.13025
  Beta  occ. eigenvalues --   -0.16739  -0.13540  -0.11358
  Beta virt. eigenvalues --   -0.07284  -0.06924  -0.04794  -0.03890  -0.03063
  Beta virt. eigenvalues --   -0.02640  -0.02510  -0.01511  -0.01074  -0.00795
  Beta virt. eigenvalues --   -0.00365  -0.00165   0.00230   0.00627   0.00735
  Beta virt. eigenvalues --    0.00787   0.00860   0.00958   0.01168   0.01231
  Beta virt. eigenvalues --    0.01394   0.01572   0.01605   0.01632   0.01796
  Beta virt. eigenvalues --    0.01923   0.02033   0.02233   0.02334   0.02563
  Beta virt. eigenvalues --    0.02605   0.02652   0.02809   0.02918   0.03014
  Beta virt. eigenvalues --    0.03065   0.03261   0.03442   0.03499   0.03713
  Beta virt. eigenvalues --    0.03747   0.03909   0.03931   0.04050   0.04356
  Beta virt. eigenvalues --    0.04441   0.04591   0.04865   0.05225   0.05474
  Beta virt. eigenvalues --    0.05485   0.06169   0.06363   0.06548   0.06975
  Beta virt. eigenvalues --    0.07061   0.07462   0.07829   0.08163   0.08607
  Beta virt. eigenvalues --    0.08722   0.09202   0.09360   0.09843   0.10245
  Beta virt. eigenvalues --    0.10401   0.10759   0.11589   0.11729   0.12010
  Beta virt. eigenvalues --    0.12439   0.13121   0.13207   0.13708   0.14033
  Beta virt. eigenvalues --    0.14348   0.14502   0.14868   0.16504   0.16922
  Beta virt. eigenvalues --    0.17862   0.25554   0.27699   0.28614   0.29557
  Beta virt. eigenvalues --    0.29819   0.30782   0.31390   0.32277   0.32718
  Beta virt. eigenvalues --    0.32880   0.34045   0.34349   0.35563   0.36574
  Beta virt. eigenvalues --    0.37131   0.37921   0.38157   0.38472   0.39573
  Beta virt. eigenvalues --    0.40173   0.41496   0.41933   0.42866   0.43355
  Beta virt. eigenvalues --    0.43610   0.44250   0.44573   0.44688   0.44745
  Beta virt. eigenvalues --    0.44957   0.45199   0.45636   0.45754   0.46124
  Beta virt. eigenvalues --    0.46743   0.47128   0.47314   0.48060   0.49317
  Beta virt. eigenvalues --    0.49800   0.50470   0.50957   0.51215   0.51660
  Beta virt. eigenvalues --    0.52939   0.54106   0.54258   0.56383   0.57499
  Beta virt. eigenvalues --    0.58460   0.59184   0.60644   0.61449   0.62489
  Beta virt. eigenvalues --    0.64418   0.67584   2.03592   2.08341   2.09964
  Beta virt. eigenvalues --    2.14745   2.16285   2.19096   2.22674   4.42827
  Beta virt. eigenvalues --    4.43749   4.44277   4.44937   4.45063   4.45398
  Beta virt. eigenvalues --    4.45610   4.45742   4.46129   4.46437   4.46601
  Beta virt. eigenvalues --    4.47482   4.47994   4.48309   4.50125   4.51493
  Beta virt. eigenvalues --    4.52906   4.54338   4.55997   4.57554   4.58651
  Beta virt. eigenvalues --   96.23157  96.28549  96.30920  96.36350  96.38422
  Beta virt. eigenvalues --   96.41283  96.46123
          Condensed to atoms (all electrons):
               1          2          3          4          5          6
     1  Na  11.195390   0.148621  -0.026343  -0.020011   0.006389  -0.074365
     2  Na   0.148621  11.731932  -0.445597   0.110669   0.005376  -0.070052
     3  Na  -0.026343  -0.445597  10.967410   0.073577   0.052408   0.087597
     4  Na  -0.020011   0.110669   0.073577  11.559890  -0.147525  -0.134332
     5  Na   0.006389   0.005376   0.052408  -0.147525  10.558258   0.084167
     6  Na  -0.074365  -0.070052   0.087597  -0.134332   0.084167  11.118731
     7  Na  -0.048106   0.022464   0.125388  -0.055729  -0.037047  -0.042637
               7
     1  Na  -0.048106
     2  Na   0.022464
     3  Na   0.125388
     4  Na  -0.055729
     5  Na  -0.037047
     6  Na  -0.042637
     7  Na  10.638564
          Atomic-Atomic Spin Densities.
               1          2          3          4          5          6
     1  Na  -0.036867  -0.096063  -0.021798   0.149004   0.002014   0.056569
     2  Na  -0.096063   0.085523   0.106758   0.007833  -0.028286  -0.007973
     3  Na  -0.021798   0.106758   0.094711  -0.122520   0.090159  -0.085799
     4  Na   0.149004   0.007833  -0.122520   0.312372  -0.050047   0.047795
     5  Na   0.002014  -0.028286   0.090159  -0.050047   0.136382   0.000117
     6  Na   0.056569  -0.007973  -0.085799   0.047795   0.000117   0.125592
     7  Na  -0.010772   0.127202   0.006325  -0.097118   0.013974  -0.056840
               7
     1  Na  -0.010772
     2  Na   0.127202
     3  Na   0.006325
     4  Na  -0.097118
     5  Na   0.013974
     6  Na  -0.056840
     7  Na   0.221220
 Mulliken charges and spin densities:
               1          2
     1  Na  -0.181573   0.042087
     2  Na  -0.503413   0.194994
     3  Na   0.165559   0.067836
     4  Na  -0.386539   0.247318
     5  Na   0.477973   0.164313
     6  Na   0.030890   0.079462
     7  Na   0.397104   0.203990
 Sum of Mulliken charges =  -0.00000   1.00000
 Mulliken charges and spin densities with hydrogens summed into heavy atoms:
               1          2
     1  Na  -0.181573   0.042087
     2  Na  -0.503413   0.194994
     3  Na   0.165559   0.067836
     4  Na  -0.386539   0.247318
     5  Na   0.477973   0.164313
     6  Na   0.030890   0.079462
     7  Na   0.397104   0.203990
 Electronic spatial extent (au):  <R**2>=           3235.5263
 Charge=             -0.0000 electrons
 Dipole moment (field-independent basis, Debye):
    X=             -0.4566    Y=              0.6353    Z=              0.4929  Tot=              0.9247
 Quadrupole moment (field-independent basis, Debye-Ang):
   XX=            -59.1542   YY=            -73.3532   ZZ=            -65.3096
   XY=             -1.6738   XZ=             -1.4392   YZ=              2.3654
 Traceless Quadrupole moment (field-independent basis, Debye-Ang):
   XX=              6.7848   YY=             -7.4142   ZZ=              0.6294
   XY=             -1.6738   XZ=             -1.4392   YZ=              2.3654
 Octapole moment (field-independent basis, Debye-Ang**2):
  XXX=              0.6901  YYY=              4.6893  ZZZ=             -0.3799  XYY=              0.1231
  XXY=             -5.0329  XXZ=              8.3545  XZZ=             -9.2717  YZZ=             15.4796
  YYZ=             17.2447  XYZ=             -3.4591
 Hexadecapole moment (field-independent basis, Debye-Ang**3):
 XXXX=          -2898.8956 YYYY=          -1443.1299 ZZZZ=           -685.6952 XXXY=             43.6703
 XXXZ=            -20.8358 YYYX=            -49.5652 YYYZ=             62.9294 ZZZX=             -4.0582
 ZZZY=             23.1375 XXYY=           -826.4165 XXZZ=           -722.8206 YYZZ=           -333.4692
 XXYZ=             -4.4091 YYXZ=            -10.2557 ZZXY=            -15.1290
 N-N= 3.016202346024D+02 E-N=-3.332479547787D+03  KE= 1.132867989733D+03
                          Isotropic Fermi Contact Couplings
        Atom                 a.u.       MegaHertz       Gauss      10(-4) cm-1
     1  Na(23)             0.12559     148.58047      53.01721      49.56111
     2  Na(23)             0.02866      33.90764      12.09909      11.31037
     3  Na(23)             0.03415      40.39571      14.41419      13.47456
     4  Na(23)             0.14528     171.86944      61.32729      57.32947
     5  Na(23)             0.14765     174.67577      62.32866      58.26557
     6  Na(23)             0.06438      76.15939      27.17556      25.40404
     7  Na(23)             0.16720     197.80095      70.58030      65.97930
 --------------------------------------------------------
       Center         ----  Spin Dipole Couplings  ----
                      3XX-RR        3YY-RR        3ZZ-RR
 --------------------------------------------------------
     1   Atom        0.034783     -0.020517     -0.014266
     2   Atom        0.013937     -0.013503     -0.000434
     3   Atom        0.010978     -0.010820     -0.000159
     4   Atom        0.034098     -0.014978     -0.019120
     5   Atom       -0.007088      0.003122      0.003966
     6   Atom       -0.001284      0.003148     -0.001864
     7   Atom       -0.004859      0.002747      0.002112
 --------------------------------------------------------
                        XY            XZ            YZ
 --------------------------------------------------------
     1   Atom        0.003934     -0.019168     -0.001443
     2   Atom        0.005367     -0.015898     -0.000021
     3   Atom       -0.004839      0.013828      0.003659
     4   Atom       -0.016648      0.015669     -0.002561
     5   Atom        0.003504     -0.005774     -0.003366
     6   Atom       -0.000630      0.001287     -0.002122
     7   Atom       -0.008167      0.004906     -0.002697
 --------------------------------------------------------


 ---------------------------------------------------------------------------------
              Anisotropic Spin Dipole Couplings in Principal Axis System
 ---------------------------------------------------------------------------------

       Atom             a.u.   MegaHertz   Gauss  10(-4) cm-1        Axes

              Baa    -0.0209    -2.955    -1.054    -0.986  0.2353  0.5550  0.7979
     1 Na(23) Bbb    -0.0207    -2.929    -1.045    -0.977 -0.2340  0.8291 -0.5077
              Bcc     0.0417     5.884     2.100     1.963  0.9433  0.0672 -0.3250
 
              Baa    -0.0157    -2.216    -0.791    -0.739 -0.3525  0.8612 -0.3661
     2 Na(23) Bbb    -0.0090    -1.277    -0.456    -0.426  0.4135  0.4943  0.7646
              Bcc     0.0247     3.493     1.246     1.165  0.8395  0.1181 -0.5304
 
              Baa    -0.0160    -2.259    -0.806    -0.753  0.4037  0.7489 -0.5255
     3 Na(23) Bbb    -0.0044    -0.628    -0.224    -0.210 -0.3764  0.6595  0.6507
              Bcc     0.0204     2.887     1.030     0.963  0.8339 -0.0649  0.5481
 
              Baa    -0.0242    -3.412    -1.218    -1.138 -0.3390 -0.3737  0.8634
     4 Na(23) Bbb    -0.0190    -2.687    -0.959    -0.896  0.1473  0.8853  0.4411
              Bcc     0.0432     6.099     2.176     2.034  0.9292 -0.2767  0.2450
 
              Baa    -0.0099    -1.393    -0.497    -0.464  0.9242 -0.1595  0.3471
     5 Na(23) Bbb     0.0003     0.036     0.013     0.012 -0.0849  0.8002  0.5936
              Bcc     0.0096     1.357     0.484     0.453 -0.3724 -0.5781  0.7260
 
              Baa    -0.0032    -0.452    -0.161    -0.151 -0.4885  0.2327  0.8409
     6 Na(23) Bbb    -0.0009    -0.131    -0.047    -0.044  0.8510  0.3398  0.4003
              Bcc     0.0041     0.583     0.208     0.195 -0.1926  0.9112 -0.3641
 
              Baa    -0.0107    -1.510    -0.539    -0.504  0.8518  0.4721 -0.2269
     7 Na(23) Bbb    -0.0001    -0.020    -0.007    -0.007 -0.0815  0.5474  0.8329
              Bcc     0.0108     1.530     0.546     0.510 -0.5174  0.6910 -0.5048
 

 ---------------------------------------------------------------------------------

 No NMR shielding tensors so no spin-rotation constants.
 Leave Link  601 at Tue Nov 28 19:10:23 2023, MaxMem=  1879048192 cpu:               2.2 elap:               0.2
 (Enter /home/sekinelabo/g16/l701.exe)
 ... and contract with generalized density number  0.
 Compute integral first derivatives.
 Leave Link  701 at Tue Nov 28 19:10:23 2023, MaxMem=  1879048192 cpu:               1.5 elap:               0.1
 (Enter /home/sekinelabo/g16/l702.exe)
 L702 exits ... SP integral derivatives will be done elsewhere.
 Leave Link  702 at Tue Nov 28 19:10:23 2023, MaxMem=  1879048192 cpu:               0.4 elap:               0.0
 (Enter /home/sekinelabo/g16/l703.exe)
 Integral derivatives from FoFJK, PRISM(SPDF).
 Compute integral first derivatives, UseDBF=F ICtDFT=           0.
 Calling FoFJK, ICntrl=      2127 FMM=F ISym2X=0 I1Cent= 0 IOpClX= 1 NMat=1 NMatS=1 NMatT=0.
 FoFJK:  IHMeth= 1 ICntrl=    2127 DoSepK=F KAlg= 0 I1Cent=           0 FoldK=F
 IRaf=         0 NMat=       1 IRICut=       1 DoRegI=T DoRafI=F ISym2E= 0 IDoP0=0 IntGTp=1.
 FoFCou: FMM=F IPFlag=           0 FMFlag=      100000 FMFlg1=         800
         NFxFlg=           0 DoJE=F BraDBF=F KetDBF=F FulRan=T
         wScrn=  0.000000 ICntrl=      2127 IOpCl=  1 I1Cent=           0 NGrid=           0
         NMat0=    1 NMatS0=      1 NMatT0=    0 NMatD0=    1 NMtDS0=    0 NMtDT0=    0
 Symmetry not used in FoFCou.
 Leave Link  703 at Tue Nov 28 19:10:25 2023, MaxMem=  1879048192 cpu:              30.6 elap:               2.1
 (Enter /home/sekinelabo/g16/l716.exe)
 Dipole        =-1.79656045D-01 2.49953474D-01 1.93936481D-01
 ***** Axes restored to original set *****
 -------------------------------------------------------------------
 Center     Atomic                   Forces (Hartrees/Bohr)
 Number     Number              X              Y              Z
 -------------------------------------------------------------------
      1       11           0.000835488    0.000179265   -0.000734577
      2       11          -0.002747177    0.001697659   -0.003083183
      3       11          -0.001396275    0.000025277   -0.004422686
      4       11          -0.001525390    0.000530421    0.000945982
      5       11           0.000602134   -0.000072583    0.001207447
      6       11           0.004278065   -0.002492362    0.004552446
      7       11          -0.000046846    0.000132324    0.001534572
 -------------------------------------------------------------------
 Cartesian Forces:  Max     0.004552446 RMS     0.002134268
 Z-matrix is all fixed cartesians, so copy forces.
 Force constants in Cartesian coordinates: 
                1             2             3             4             5 
      1  0.462949D-01
      2  0.625780D-02  0.368997D-01
      3 -0.107454D-01  0.142011D-01  0.462451D-01
      4 -0.158027D-01  0.396635D-03  0.198184D-02  0.729819D-01
      5 -0.145911D-02 -0.902422D-02 -0.772774D-03  0.371981D-02  0.640696D-01
      6  0.345360D-02 -0.309680D-02 -0.132151D-01 -0.567624D-02  0.701833D-02
      7  0.477968D-02  0.182237D-02 -0.387326D-03 -0.245160D-01 -0.947234D-02
      8  0.297804D-02 -0.197553D-02 -0.186360D-02  0.126989D-01 -0.250661D-01
      9  0.194644D-02 -0.545136D-02 -0.418683D-03  0.640580D-02 -0.255063D-03
     10 -0.240980D-01  0.821411D-02  0.608972D-02 -0.486926D-02 -0.213979D-02
     11 -0.370877D-02 -0.152871D-01 -0.238445D-02 -0.510428D-02  0.251646D-02
     12 -0.584043D-02 -0.527962D-02 -0.198768D-01  0.247765D-02  0.166675D-02
     13  0.374209D-02 -0.317713D-02  0.116021D-02  0.328859D-02 -0.143808D-02
     14 -0.893764D-03  0.105373D-02 -0.670816D-03 -0.486660D-02  0.206080D-02
     15  0.201969D-02 -0.255040D-02  0.170837D-02 -0.799321D-03  0.160487D-03
     16  0.281150D-02  0.349852D-04  0.255528D-02 -0.156890D-01  0.513127D-02
     17 -0.676678D-03  0.959163D-04 -0.663498D-03  0.688000D-03 -0.108500D-01
     18 -0.227827D-02 -0.482549D-05 -0.210367D-02  0.292368D-05  0.180058D-02
     19 -0.177275D-01 -0.135488D-01 -0.654350D-03 -0.153936D-01  0.565824D-02
     20 -0.249752D-02 -0.117625D-01 -0.784592D-02 -0.753244D-02 -0.237065D-01
     21  0.114443D-01  0.218194D-02 -0.123392D-01 -0.439264D-02 -0.961832D-02
                6             7             8             9            10 
      6  0.636514D-01
      7  0.489299D-02  0.819344D-01
      8 -0.351824D-03 -0.114476D-01  0.760653D-01
      9 -0.240773D-01 -0.324603D-02  0.563055D-02  0.446175D-01
     10 -0.302373D-04 -0.267242D-01  0.568944D-02  0.426634D-02  0.664808D-01
     11  0.148616D-02  0.435520D-02 -0.222046D-01 -0.402327D-02 -0.328198D-02
     12  0.274512D-02  0.105984D-02 -0.294433D-02 -0.112154D-01 -0.649457D-03
     13 -0.360252D-03 -0.276538D-01 -0.120555D-01 -0.178476D-02 -0.116949D-01
     14  0.717908D-03  0.993075D-02 -0.175504D-01 -0.166873D-02 -0.607521D-02
     15  0.209659D-02  0.110058D-02  0.122334D-02 -0.830040D-02 -0.616664D-02
     16 -0.103023D-01 -0.996021D-02  0.279676D-02 -0.515965D-02  0.183048D-03
     17 -0.410591D-02  0.418190D-02 -0.936012D-02  0.939024D-02 -0.543803D-04
     18 -0.954157D-02 -0.232517D-02 -0.168538D-02 -0.528128D-02 -0.162262D-03
     19  0.802240D-02  0.214016D-02 -0.659972D-03 -0.242814D-02  0.722562D-03
     20 -0.166786D-02  0.629760D-03  0.914785D-04 -0.362237D-02 -0.235219D-02
     21 -0.216591D-01 -0.109489D-02 -0.876528D-05  0.467561D-02 -0.334747D-02
               11            12            13            14            15 
     11  0.562590D-01
     12  0.101212D-01  0.335618D-01
     13  0.109098D-01 -0.266474D-03  0.301067D-01
     14 -0.224589D-01 -0.403977D-02  0.493756D-02  0.381333D-01
     15 -0.622464D-02 -0.687534D-02  0.109795D-02  0.578864D-02  0.109919D-01
     16 -0.270964D-02  0.327407D-02  0.219292D-02 -0.307937D-02  0.295441D-02
     17  0.744486D-03 -0.963971D-03  0.865499D-03 -0.119914D-02  0.145109D-02
     18  0.196858D-02 -0.243605D-02  0.124851D-03 -0.156725D-03  0.494906D-03
     19 -0.460346D-03 -0.552003D-04  0.184449D-04  0.466380D-04 -0.206673D-03
     20  0.430572D-03  0.143977D-02 -0.421381D-04 -0.394065D-04  0.151482D-03
     21 -0.943543D-03  0.409662D-02  0.284735D-04  0.294984D-04 -0.116070D-03
               16            17            18            19            20 
     16  0.186979D-01
     17 -0.120986D-02  0.178428D-01
     18  0.583797D-02 -0.253423D-02  0.193876D-01
     19  0.176382D-02 -0.379448D-02 -0.120005D-02  0.284762D-01
     20 -0.964149D-03  0.272604D-02  0.612004D-03  0.127587D-01  0.322603D-01
     21  0.840169D-03 -0.257371D-02 -0.519936D-03 -0.347799D-02  0.109329D-01
               21 
     21  0.258622D-01
 Leave Link  716 at Tue Nov 28 19:10:26 2023, MaxMem=  1879048192 cpu:               0.3 elap:               0.0
 (Enter /home/sekinelabo/g16/l103.exe)

 GradGradGradGradGradGradGradGradGradGradGradGradGradGradGradGradGradGrad
 Berny optimization.
 Search for a local minimum.
 Step number   1 out of a maximum of    2
 All quantities printed in internal units (Hartrees-Bohrs-Radians)
 Second derivative matrix not updated -- first step.
 ITU=  0
     Eigenvalues ---    0.01066   0.01607   0.02035   0.02320   0.02581
     Eigenvalues ---    0.04694   0.05486   0.06188   0.06213   0.07368
     Eigenvalues ---    0.08571   0.08842   0.09195   0.11183   0.13287
 Angle between quadratic step and forces=  22.39 degrees.
 Linear search not attempted -- first point.
 B after Tr=     0.000000    0.000000    0.000000
         Rot=    1.000000   -0.000000   -0.000000    0.000000 Ang=   0.00 deg.
 Variable       Old X    -DE/DX   Delta X   Delta X   Delta X     New X
                                 (Linear)    (Quad)   (Total)
    X1       28.07547   0.00084   0.00000  -0.00059  -0.00059  28.07488
    Y1       32.21511   0.00018   0.00000   0.00404   0.00404  32.21915
    Z1       33.57080  -0.00073   0.00000  -0.02590  -0.02590  33.54490
    X2       32.84287  -0.00275   0.00000  -0.02836  -0.02836  32.81451
    Y2       30.87699   0.00170   0.00000   0.02148   0.02148  30.89847
    Z2       28.37575  -0.00308   0.00000  -0.05974  -0.05974  28.31601
    X3       30.22126  -0.00140   0.00000  -0.01286  -0.01286  30.20839
    Y3       24.94646   0.00003   0.00000   0.01532   0.01532  24.96178
    Z3       27.72701  -0.00442   0.00000  -0.09210  -0.09210  27.63491
    X4       25.16038  -0.00153   0.00000  -0.01905  -0.01905  25.14134
    Y4       27.51403   0.00053   0.00000   0.00896   0.00896  27.52300
    Z4       30.13055   0.00095   0.00000  -0.00313  -0.00313  30.12742
    X5       24.89147   0.00060   0.00000  -0.00085  -0.00085  24.89062
    Y5       21.34748  -0.00007   0.00000   0.00287   0.00287  21.35035
    Z5       27.93185   0.00121   0.00000   0.02339   0.02339  27.95525
    X6       28.30318   0.00428   0.00000   0.07173   0.07173  28.37492
    Y6       30.50604  -0.00249   0.00000  -0.04993  -0.04993  30.45611
    Z6       22.87627   0.00455   0.00000   0.14799   0.14799  23.02426
    X7       33.51051  -0.00005   0.00000  -0.01002  -0.01002  33.50049
    Y7       35.59866   0.00013   0.00000  -0.00275  -0.00275  35.59591
    Z7       32.39255   0.00153   0.00000   0.00949   0.00949  32.40204
         Item               Value     Threshold  Converged?
 Maximum Force            0.004552     0.000450     NO 
 RMS     Force            0.002134     0.000300     NO 
 Maximum Displacement     0.147987     0.001800     NO 
 RMS     Displacement     0.046368     0.001200     NO 
 Predicted change in Energy=-9.607747D-04
 GradGradGradGradGradGradGradGradGradGradGradGradGradGradGradGradGradGrad

 Leave Link  103 at Tue Nov 28 19:10:26 2023, MaxMem=  1879048192 cpu:               0.2 elap:               0.0
 (Enter /home/sekinelabo/g16/l9999.exe)
 1\1\GINC-SEKINELABO-XA7R-R37\Force\UB3LYP\6-311+G(d)\Na7(2)\SEKINELABO
 \28-Nov-2023\0\\#P B3LYP/6-311+g(d) force\\DPGEN\\0,2\Na,14.8569,17.04
 75,17.7649\Na,17.3797,16.3394,15.0158\Na,15.9924,13.2011,14.6725\Na,13
 .3143,14.5598,15.9444\Na,13.172,11.2966,14.7809\Na,14.9774,16.1431,12.
 1056\Na,17.733,18.838,17.1414\\Version=ES64L-G16RevB.01\State=2-A\HF=-
 1136.119259\S2=0.785421\S2-1=0.\S2A=0.750809\RMSD=8.039e-09\RMSF=2.134
 e-03\Dipole=-0.1393388,-0.0072991,-0.3359997\Quadrupole=-0.1858293,2.4
 573649,-2.2715356,1.6260664,4.7030841,1.8523561\PG=C01 [X(Na7)]\\@


 WHEN YOU REACH FOR THE STARS, YOU MAY NOT QUITE GET ONE,
 BUT YOU WON'T COME UP WITH A HANDFUL OF MUD, EITHER.

                                         -- LEO BURNETT (AD AGENCY HEAD)
 Job cpu time:       0 days  0 hours  4 minutes  9.0 seconds.
 Elapsed time:       0 days  0 hours  0 minutes 21.5 seconds.
 File lengths (MBytes):  RWF=     32 Int=      0 D2E=      0 Chk=      4 Scr=      1
 Normal termination of Gaussian 16 at Tue Nov 28 19:10:26 2023.
