 Set GAUSS_MDEF to "14GB".
 Entering Gaussian System, Link 0=g16
 Initial command:
 /home/sekinelabo/g16/l1.exe "/home/sekinelabo/g16temp/Gau-321417.inp" -scrdir="/home/sekinelabo/g16temp/"
 Entering Link 1 = /home/sekinelabo/g16/l1.exe PID=    321419.
  
 Copyright (c) 1988-2017, Gaussian, Inc.  All Rights Reserved.
  
 This is part of the Gaussian(R) 16 program.  It is based on
 the Gaussian(R) 09 system (copyright 2009, Gaussian, Inc.),
 the Gaussian(R) 03 system (copyright 2003, Gaussian, Inc.),
 the Gaussian(R) 98 system (copyright 1998, Gaussian, Inc.),
 the Gaussian(R) 94 system (copyright 1995, Gaussian, Inc.),
 the Gaussian 92(TM) system (copyright 1992, Gaussian, Inc.),
 the Gaussian 90(TM) system (copyright 1990, Gaussian, Inc.),
 the Gaussian 88(TM) system (copyright 1988, Gaussian, Inc.),
 the Gaussian 86(TM) system (copyright 1986, Carnegie Mellon
 University), and the Gaussian 82(TM) system (copyright 1983,
 Carnegie Mellon University). Gaussian is a federally registered
 trademark of Gaussian, Inc.
  
 This software contains proprietary and confidential information,
 including trade secrets, belonging to Gaussian, Inc.
  
 This software is provided under written license and may be
 used, copied, transmitted, or stored only in accord with that
 written license.
  
 The following legend is applicable only to US Government
 contracts under FAR:
  
                    RESTRICTED RIGHTS LEGEND
  
 Use, reproduction and disclosure by the US Government is
 subject to restrictions as set forth in subparagraphs (a)
 and (c) of the Commercial Computer Software - Restricted
 Rights clause in FAR 52.227-19.
  
 Gaussian, Inc.
 340 Quinnipiac St., Bldg. 40, Wallingford CT 06492
  
  
 ---------------------------------------------------------------
 Warning -- This program may not be used in any manner that
 competes with the business of Gaussian, Inc. or will provide
 assistance to any competitor of Gaussian, Inc.  The licensee
 of this program is prohibited from giving any competitor of
 Gaussian, Inc. access to this program.  By using this program,
 the user acknowledges that Gaussian, Inc. is engaged in the
 business of creating and licensing software in the field of
 computational chemistry and represents and warrants to the
 licensee that it is not a competitor of Gaussian, Inc. and that
 it will not use this program in any manner prohibited above.
 ---------------------------------------------------------------
  

 Cite this work as:
 Gaussian 16, Revision B.01,
 M. J. Frisch, G. W. Trucks, H. B. Schlegel, G. E. Scuseria, 
 M. A. Robb, J. R. Cheeseman, G. Scalmani, V. Barone, 
 G. A. Petersson, H. Nakatsuji, X. Li, M. Caricato, A. V. Marenich, 
 J. Bloino, B. G. Janesko, R. Gomperts, B. Mennucci, H. P. Hratchian, 
 J. V. Ortiz, A. F. Izmaylov, J. L. Sonnenberg, D. Williams-Young, 
 F. Ding, F. Lipparini, F. Egidi, J. Goings, B. Peng, A. Petrone, 
 T. Henderson, D. Ranasinghe, V. G. Zakrzewski, J. Gao, N. Rega, 
 G. Zheng, W. Liang, M. Hada, M. Ehara, K. Toyota, R. Fukuda, 
 J. Hasegawa, M. Ishida, T. Nakajima, Y. Honda, O. Kitao, H. Nakai, 
 T. Vreven, K. Throssell, J. A. Montgomery, Jr., J. E. Peralta, 
 F. Ogliaro, M. J. Bearpark, J. J. Heyd, E. N. Brothers, K. N. Kudin, 
 V. N. Staroverov, T. A. Keith, R. Kobayashi, J. Normand, 
 K. Raghavachari, A. P. Rendell, J. C. Burant, S. S. Iyengar, 
 J. Tomasi, M. Cossi, J. M. Millam, M. Klene, C. Adamo, R. Cammi, 
 J. W. Ochterski, R. L. Martin, K. Morokuma, O. Farkas, 
 J. B. Foresman, and D. J. Fox, Gaussian, Inc., Wallingford CT, 2016.
 
 ******************************************
 Gaussian 16:  ES64L-G16RevB.01 20-Dec-2017
                29-Nov-2023 
 ******************************************
 %nproc=15
 Will use up to   15 processors via shared memory.
 -------------------------
 #P B3LYP/6-311+g(d) force
 -------------------------
 1/10=7,30=1,38=1/1,3;
 2/12=2,17=6,18=5,40=1/2;
 3/5=4,6=6,7=11,11=2,25=1,30=1,71=1,74=-5/1,2,3;
 4//1;
 5/5=2,38=5/2;
 6/7=2,8=2,9=2,10=2,28=1/1;
 7/29=1/1,2,3,16;
 1/10=7,30=1/3;
 99//99;
 Leave Link    1 at Wed Nov 29 02:38:20 2023, MaxMem=           0 cpu:               0.3 elap:               0.0
 (Enter /home/sekinelabo/g16/l101.exe)
 -----
 DPGEN
 -----
 Symbolic Z-matrix:
 Charge =  0 Multiplicity = 2
 Na                    13.3004   16.3735   14.2716 
 Na                    16.5318   15.8108   16.7097 
 Na                    17.6198   13.8744   13.9661 
 Na                    14.2464   13.1792   15.8901 
 Na                    10.9922   13.8986   14.2167 
 Na                    20.2591   15.4322   15.3258 
 Na                    14.4758   18.857    17.0455 
 
 ITRead=  0  0  0  0  0  0  0
 MicOpt= -1 -1 -1 -1 -1 -1 -1
 NAtoms=      7 NQM=        7 NQMF=       0 NMMI=      0 NMMIF=      0
                NMic=       0 NMicF=      0.
                    Isotopes and Nuclear Properties:
 (Nuclear quadrupole moments (NQMom) in fm**2, nuclear magnetic moments (NMagM)
  in nuclear magnetons)

  Atom         1           2           3           4           5           6           7
 IAtWgt=          23          23          23          23          23          23          23
 AtmWgt=  22.9897697  22.9897697  22.9897697  22.9897697  22.9897697  22.9897697  22.9897697
 NucSpn=           3           3           3           3           3           3           3
 AtZEff=  -0.0000000  -0.0000000  -0.0000000  -0.0000000  -0.0000000  -0.0000000  -0.0000000
 NQMom=   10.4000000  10.4000000  10.4000000  10.4000000  10.4000000  10.4000000  10.4000000
 NMagM=    2.2175200   2.2175200   2.2175200   2.2175200   2.2175200   2.2175200   2.2175200
 AtZNuc=  11.0000000  11.0000000  11.0000000  11.0000000  11.0000000  11.0000000  11.0000000
 Leave Link  101 at Wed Nov 29 02:38:20 2023, MaxMem=  1879048192 cpu:               2.4 elap:               0.2
 (Enter /home/sekinelabo/g16/l103.exe)

 GradGradGradGradGradGradGradGradGradGradGradGradGradGradGradGradGradGrad
 Berny optimization.
 Initialization pass.
 Trust Radius=3.00D-01 FncErr=1.00D-07 GrdErr=1.00D-07 EigMax=2.50D+02 EigMin=1.00D-04
 Number of steps in this run=      2 maximum allowed number of steps=      2.
 GradGradGradGradGradGradGradGradGradGradGradGradGradGradGradGradGradGrad

 Leave Link  103 at Wed Nov 29 02:38:20 2023, MaxMem=  1879048192 cpu:               0.2 elap:               0.0
 (Enter /home/sekinelabo/g16/l202.exe)
                          Input orientation:                          
 ---------------------------------------------------------------------
 Center     Atomic      Atomic             Coordinates (Angstroms)
 Number     Number       Type             X           Y           Z
 ---------------------------------------------------------------------
      1         11           0       13.300400   16.373500   14.271600
      2         11           0       16.531800   15.810800   16.709700
      3         11           0       17.619800   13.874400   13.966100
      4         11           0       14.246400   13.179200   15.890100
      5         11           0       10.992200   13.898600   14.216700
      6         11           0       20.259100   15.432200   15.325800
      7         11           0       14.475800   18.857000   17.045500
 ---------------------------------------------------------------------
                    Distance matrix (angstroms):
                    1          2          3          4          5
     1  Na   0.000000
     2  Na   4.086919   0.000000
     3  Na   4.999605   3.529976   0.000000
     4  Na   3.703783   3.580519   3.945238   0.000000
     5  Na   3.384661   6.368573   6.632380   3.729292   0.000000
     6  Na   7.100767   3.993906   3.352824   6.445697   9.458196
     7  Na   3.904338   3.690424   6.647837   5.798706   6.687549
                    6          7
     6  Na   0.000000
     7  Na   6.937808   0.000000
 Stoichiometry    Na7(2)
 Framework group  C1[X(Na7)]
 Deg. of freedom    15
 Full point group                 C1      NOp   1
 Largest Abelian subgroup         C1      NOp   1
 Largest concise Abelian subgroup C1      NOp   1
                         Standard orientation:                         
 ---------------------------------------------------------------------
 Center     Atomic      Atomic             Coordinates (Angstroms)
 Number     Number       Type             X           Y           Z
 ---------------------------------------------------------------------
      1         11           0       -2.069140    0.654008   -1.299054
      2         11           0        1.316105    0.888139    0.978711
      3         11           0        2.070389   -2.095431   -0.750479
      4         11           0       -1.166644   -1.646559    1.459733
      5         11           0       -4.503578   -1.419383   -0.189778
      6         11           0        4.891916   -0.338724   -0.309569
      7         11           0       -0.539049    3.957949    0.110435
 ---------------------------------------------------------------------
 Rotational constants (GHZ):           0.6957293           0.3565845           0.2671772
 Leave Link  202 at Wed Nov 29 02:38:20 2023, MaxMem=  1879048192 cpu:               0.0 elap:               0.0
 (Enter /home/sekinelabo/g16/l301.exe)
 Standard basis: 6-311+G(d) (5D, 7F)
 Ernie: Thresh=  0.10000D-02 Tol=  0.10000D-05 Strict=F.
 There are   217 symmetry adapted cartesian basis functions of A   symmetry.
 There are   210 symmetry adapted basis functions of A   symmetry.
   210 basis functions,   350 primitive gaussians,   217 cartesian basis functions
    39 alpha electrons       38 beta electrons
       nuclear repulsion energy       287.8883103282 Hartrees.
 IExCor=  402 DFT=T Ex+Corr=B3LYP ExCW=0 ScaHFX=  0.200000
 ScaDFX=  0.800000  0.720000  1.000000  0.810000 ScalE2=  1.000000  1.000000
 IRadAn=      5 IRanWt=     -1 IRanGd=            0 ICorTp=0 IEmpDi=  4
 NAtoms=    7 NActive=    7 NUniq=    7 SFac= 1.00D+00 NAtFMM=   60 NAOKFM=F Big=F
 Integral buffers will be    131072 words long.
 Raffenetti 2 integral format.
 Two-electron integral symmetry is turned on.
 Leave Link  301 at Wed Nov 29 02:38:20 2023, MaxMem=  1879048192 cpu:               0.5 elap:               0.0
 (Enter /home/sekinelabo/g16/l302.exe)
 NPDir=0 NMtPBC=     1 NCelOv=     1 NCel=       1 NClECP=     1 NCelD=      1
         NCelK=      1 NCelE2=     1 NClLst=     1 CellRange=     0.0.
 One-electron integrals computed using PRISM.
 One-electron integral symmetry used in STVInt
 NBasis=   210 RedAO= T EigKep=  1.49D-05  NBF=   210
 NBsUse=   210 1.00D-06 EigRej= -1.00D+00 NBFU=   210
 Precomputing XC quadrature grid using
 IXCGrd= 4 IRadAn=           5 IRanWt=          -1 IRanGd=           0 AccXCQ= 0.00D+00.
 Generated NRdTot=       0 NPtTot=           0 NUsed=           0 NTot=          32
 NSgBfM=   206   206   206   206   206 MxSgAt=     7 MxSgA2=     7.
 Leave Link  302 at Wed Nov 29 02:38:20 2023, MaxMem=  1879048192 cpu:               1.9 elap:               0.1
 (Enter /home/sekinelabo/g16/l303.exe)
 DipDrv:  MaxL=1.
 Leave Link  303 at Wed Nov 29 02:38:20 2023, MaxMem=  1879048192 cpu:               0.5 elap:               0.0
 (Enter /home/sekinelabo/g16/l401.exe)
 ExpMin= 7.60D-03 ExpMax= 3.62D+04 ExpMxC= 1.21D+03 IAcc=3 IRadAn=         5 AccDes= 0.00D+00
 Harris functional with IExCor=  402 and IRadAn=       5 diagonalized for initial guess.
 HarFok:  IExCor=  402 AccDes= 0.00D+00 IRadAn=         5 IDoV= 1 UseB2=F ITyADJ=14
 ICtDFT=  3500011 ScaDFX=  1.000000  1.000000  1.000000  1.000000
 FoFCou: FMM=F IPFlag=           0 FMFlag=      100000 FMFlg1=           0
         NFxFlg=           0 DoJE=T BraDBF=F KetDBF=T FulRan=T
         wScrn=  0.000000 ICntrl=       500 IOpCl=  0 I1Cent=   200000004 NGrid=           0
         NMat0=    1 NMatS0=      1 NMatT0=    0 NMatD0=    1 NMtDS0=    0 NMtDT0=    0
 Petite list used in FoFCou.
 Harris En= -1135.89042470494    
 JPrj=0 DoOrth=F DoCkMO=F.
 Initial guess <Sx>= 0.0000 <Sy>= 0.0000 <Sz>= 0.5000 <S**2>= 0.7500 S= 0.5000
 Leave Link  401 at Wed Nov 29 02:38:20 2023, MaxMem=  1879048192 cpu:               4.3 elap:               0.3
 (Enter /home/sekinelabo/g16/l502.exe)
 Keep R1 and R2 ints in memory in canonical form, NReq=506573293.
 FoFCou: FMM=F IPFlag=           0 FMFlag=           0 FMFlg1=           0
         NFxFlg=           0 DoJE=F BraDBF=F KetDBF=F FulRan=T
         wScrn=  0.000000 ICntrl=       600 IOpCl=  0 I1Cent=           0 NGrid=           0
         NMat0=    1 NMatS0=  22155 NMatT0=    0 NMatD0=    1 NMtDS0=    0 NMtDT0=    0
 Symmetry not used in FoFCou.
 Two-electron integral symmetry not used.
 UHF open shell SCF:
 Using DIIS extrapolation, IDIIS=  1040.
 NGot=  1879048192 LenX=  1388082607 LenY=  1388035077
 Requested convergence on RMS density matrix=1.00D-08 within 128 cycles.
 Requested convergence on MAX density matrix=1.00D-06.
 Requested convergence on             energy=1.00D-06.
 No special actions if energy rises.

 Cycle   1  Pass 1  IDiag  1:
 E= -1136.09375718308    
 DIIS: error= 1.04D-02 at cycle   1 NSaved=   1.
 NSaved= 1 IEnMin= 1 EnMin= -1136.09375718308     IErMin= 1 ErrMin= 1.04D-02
 ErrMax= 1.04D-02  0.00D+00 EMaxC= 1.00D-01 BMatC= 1.85D-01 BMatP= 1.85D-01
 IDIUse=3 WtCom= 8.96D-01 WtEn= 1.04D-01
 Coeff-Com:  0.100D+01
 Coeff-En:   0.100D+01
 Coeff:      0.100D+01
 Gap=     0.043 Goal=   None    Shift=    0.000
 Gap=     0.033 Goal=   None    Shift=    0.000
 GapD=    0.033 DampG=0.250 DampE=0.500 DampFc=0.2500 IDamp=-1.
 Damping current iteration by 2.50D-01
 RMSDP=7.15D-03 MaxDP=5.97D-01              OVMax= 1.83D-01

 Cycle   2  Pass 1  IDiag  1:
 E= -1136.10291890164     Delta-E=       -0.009161718555 Rises=F Damp=T
 DIIS: error= 7.24D-03 at cycle   2 NSaved=   2.
 NSaved= 2 IEnMin= 2 EnMin= -1136.10291890164     IErMin= 2 ErrMin= 7.24D-03
 ErrMax= 7.24D-03  0.00D+00 EMaxC= 1.00D-01 BMatC= 7.11D-02 BMatP= 1.85D-01
 IDIUse=3 WtCom= 9.28D-01 WtEn= 7.24D-02
 Coeff-Com: -0.129D+01 0.229D+01
 Coeff-En:   0.000D+00 0.100D+01
 Coeff:     -0.120D+01 0.220D+01
 Gap=     0.045 Goal=   None    Shift=    0.000
 Gap=     0.043 Goal=   None    Shift=    0.000
 RMSDP=3.87D-03 MaxDP=3.86D-01 DE=-9.16D-03 OVMax= 1.38D-01

 Cycle   3  Pass 1  IDiag  1:
 E= -1136.12005514212     Delta-E=       -0.017136240481 Rises=F Damp=F
 DIIS: error= 1.98D-03 at cycle   3 NSaved=   3.
 NSaved= 3 IEnMin= 3 EnMin= -1136.12005514212     IErMin= 3 ErrMin= 1.98D-03
 ErrMax= 1.98D-03  0.00D+00 EMaxC= 1.00D-01 BMatC= 1.38D-03 BMatP= 7.11D-02
 IDIUse=3 WtCom= 9.80D-01 WtEn= 1.98D-02
 Coeff-Com: -0.127D+00 0.220D+00 0.907D+00
 Coeff-En:   0.000D+00 0.000D+00 0.100D+01
 Coeff:     -0.124D+00 0.216D+00 0.909D+00
 Gap=     0.044 Goal=   None    Shift=    0.000
 Gap=     0.040 Goal=   None    Shift=    0.000
 RMSDP=1.42D-03 MaxDP=5.72D-02 DE=-1.71D-02 OVMax= 7.80D-02

 Cycle   4  Pass 1  IDiag  1:
 E= -1136.11952857448     Delta-E=        0.000526567641 Rises=F Damp=F
 DIIS: error= 2.44D-03 at cycle   4 NSaved=   4.
 NSaved= 4 IEnMin= 3 EnMin= -1136.12005514212     IErMin= 3 ErrMin= 1.98D-03
 ErrMax= 2.44D-03  0.00D+00 EMaxC= 1.00D-01 BMatC= 2.03D-03 BMatP= 1.38D-03
 IDIUse=3 WtCom= 1.68D-01 WtEn= 8.32D-01
 Coeff-Com: -0.354D-02 0.395D-02 0.548D+00 0.451D+00
 Coeff-En:   0.000D+00 0.000D+00 0.565D+00 0.435D+00
 Coeff:     -0.596D-03 0.665D-03 0.563D+00 0.437D+00
 Gap=     0.043 Goal=   None    Shift=    0.000
 Gap=     0.040 Goal=   None    Shift=    0.000
 RMSDP=7.39D-04 MaxDP=2.84D-02 DE= 5.27D-04 OVMax= 3.96D-02

 Cycle   5  Pass 1  IDiag  1:
 E= -1136.12159629360     Delta-E=       -0.002067719125 Rises=F Damp=F
 DIIS: error= 1.59D-04 at cycle   5 NSaved=   5.
 NSaved= 5 IEnMin= 5 EnMin= -1136.12159629360     IErMin= 5 ErrMin= 1.59D-04
 ErrMax= 1.59D-04  0.00D+00 EMaxC= 1.00D-01 BMatC= 1.37D-05 BMatP= 1.38D-03
 IDIUse=3 WtCom= 9.98D-01 WtEn= 1.59D-03
 Coeff-Com:  0.216D-02-0.408D-02 0.143D+00 0.935D-01 0.766D+00
 Coeff-En:   0.000D+00 0.000D+00 0.000D+00 0.000D+00 0.100D+01
 Coeff:      0.216D-02-0.407D-02 0.143D+00 0.933D-01 0.766D+00
 Gap=     0.043 Goal=   None    Shift=    0.000
 Gap=     0.041 Goal=   None    Shift=    0.000
 RMSDP=1.50D-04 MaxDP=8.82D-03 DE=-2.07D-03 OVMax= 8.12D-03

 Cycle   6  Pass 1  IDiag  1:
 E= -1136.12161742188     Delta-E=       -0.000021128273 Rises=F Damp=F
 DIIS: error= 1.46D-04 at cycle   6 NSaved=   6.
 NSaved= 6 IEnMin= 6 EnMin= -1136.12161742188     IErMin= 6 ErrMin= 1.46D-04
 ErrMax= 1.46D-04  0.00D+00 EMaxC= 1.00D-01 BMatC= 7.09D-06 BMatP= 1.37D-05
 IDIUse=3 WtCom= 9.99D-01 WtEn= 1.46D-03
 Coeff-Com:  0.147D-02-0.246D-02-0.986D-01-0.972D-01 0.445D+00 0.752D+00
 Coeff-En:   0.000D+00 0.000D+00 0.000D+00 0.000D+00 0.000D+00 0.100D+01
 Coeff:      0.147D-02-0.245D-02-0.985D-01-0.970D-01 0.444D+00 0.752D+00
 Gap=     0.043 Goal=   None    Shift=    0.000
 Gap=     0.041 Goal=   None    Shift=    0.000
 RMSDP=1.23D-04 MaxDP=7.79D-03 DE=-2.11D-05 OVMax= 6.11D-03

 Cycle   7  Pass 1  IDiag  1:
 E= -1136.12163334274     Delta-E=       -0.000015920865 Rises=F Damp=F
 DIIS: error= 4.70D-05 at cycle   7 NSaved=   7.
 NSaved= 7 IEnMin= 7 EnMin= -1136.12163334274     IErMin= 7 ErrMin= 4.70D-05
 ErrMax= 4.70D-05  0.00D+00 EMaxC= 1.00D-01 BMatC= 5.86D-07 BMatP= 7.09D-06
 IDIUse=1 WtCom= 1.00D+00 WtEn= 0.00D+00
 Coeff-Com:  0.895D-04-0.992D-05-0.473D-01-0.341D-01-0.624D-01 0.154D+00
 Coeff-Com:  0.990D+00
 Coeff:      0.895D-04-0.992D-05-0.473D-01-0.341D-01-0.624D-01 0.154D+00
 Coeff:      0.990D+00
 Gap=     0.043 Goal=   None    Shift=    0.000
 Gap=     0.042 Goal=   None    Shift=    0.000
 RMSDP=6.67D-05 MaxDP=5.11D-03 DE=-1.59D-05 OVMax= 2.71D-03

 Cycle   8  Pass 1  IDiag  1:
 E= -1136.12163601695     Delta-E=       -0.000002674210 Rises=F Damp=F
 DIIS: error= 9.28D-06 at cycle   8 NSaved=   8.
 NSaved= 8 IEnMin= 8 EnMin= -1136.12163601695     IErMin= 8 ErrMin= 9.28D-06
 ErrMax= 9.28D-06  0.00D+00 EMaxC= 1.00D-01 BMatC= 6.80D-08 BMatP= 5.86D-07
 IDIUse=1 WtCom= 1.00D+00 WtEn= 0.00D+00
 Coeff-Com:  0.477D-03-0.558D-03 0.449D-02 0.532D-02-0.543D-01-0.584D-01
 Coeff-Com:  0.204D-01 0.108D+01
 Coeff:      0.477D-03-0.558D-03 0.449D-02 0.532D-02-0.543D-01-0.584D-01
 Coeff:      0.204D-01 0.108D+01
 Gap=     0.043 Goal=   None    Shift=    0.000
 Gap=     0.042 Goal=   None    Shift=    0.000
 RMSDP=2.78D-05 MaxDP=1.54D-03 DE=-2.67D-06 OVMax= 1.39D-03

 Cycle   9  Pass 1  IDiag  1:
 E= -1136.12163647562     Delta-E=       -0.000000458665 Rises=F Damp=F
 DIIS: error= 8.24D-06 at cycle   9 NSaved=   9.
 NSaved= 9 IEnMin= 9 EnMin= -1136.12163647562     IErMin= 9 ErrMin= 8.24D-06
 ErrMax= 8.24D-06  0.00D+00 EMaxC= 1.00D-01 BMatC= 2.65D-08 BMatP= 6.80D-08
 IDIUse=1 WtCom= 1.00D+00 WtEn= 0.00D+00
 Coeff-Com:  0.128D-03-0.147D-03 0.764D-02 0.579D-02-0.949D-02-0.406D-01
 Coeff-Com: -0.126D+00 0.409D+00 0.754D+00
 Coeff:      0.128D-03-0.147D-03 0.764D-02 0.579D-02-0.949D-02-0.406D-01
 Coeff:     -0.126D+00 0.409D+00 0.754D+00
 Gap=     0.043 Goal=   None    Shift=    0.000
 Gap=     0.042 Goal=   None    Shift=    0.000
 RMSDP=9.50D-06 MaxDP=7.59D-04 DE=-4.59D-07 OVMax= 6.40D-04

 Cycle  10  Pass 1  IDiag  1:
 E= -1136.12163657025     Delta-E=       -0.000000094639 Rises=F Damp=F
 DIIS: error= 5.58D-06 at cycle  10 NSaved=  10.
 NSaved=10 IEnMin=10 EnMin= -1136.12163657025     IErMin=10 ErrMin= 5.58D-06
 ErrMax= 5.58D-06  0.00D+00 EMaxC= 1.00D-01 BMatC= 1.30D-08 BMatP= 2.65D-08
 IDIUse=1 WtCom= 1.00D+00 WtEn= 0.00D+00
 Coeff-Com: -0.164D-03 0.205D-03 0.327D-02 0.154D-02 0.178D-01-0.284D-02
 Coeff-Com: -0.104D+00-0.160D+00 0.479D+00 0.765D+00
 Coeff:     -0.164D-03 0.205D-03 0.327D-02 0.154D-02 0.178D-01-0.284D-02
 Coeff:     -0.104D+00-0.160D+00 0.479D+00 0.765D+00
 Gap=     0.043 Goal=   None    Shift=    0.000
 Gap=     0.042 Goal=   None    Shift=    0.000
 RMSDP=6.52D-06 MaxDP=2.74D-04 DE=-9.46D-08 OVMax= 4.32D-04

 Cycle  11  Pass 1  IDiag  1:
 E= -1136.12163661868     Delta-E=       -0.000000048424 Rises=F Damp=F
 DIIS: error= 1.71D-06 at cycle  11 NSaved=  11.
 NSaved=11 IEnMin=11 EnMin= -1136.12163661868     IErMin=11 ErrMin= 1.71D-06
 ErrMax= 1.71D-06  0.00D+00 EMaxC= 1.00D-01 BMatC= 1.29D-09 BMatP= 1.30D-08
 IDIUse=1 WtCom= 1.00D+00 WtEn= 0.00D+00
 Coeff-Com: -0.903D-04 0.108D-03-0.642D-03-0.700D-03 0.748D-02 0.924D-02
 Coeff-Com: -0.789D-02-0.132D+00-0.367D-01 0.178D+00 0.983D+00
 Coeff:     -0.903D-04 0.108D-03-0.642D-03-0.700D-03 0.748D-02 0.924D-02
 Coeff:     -0.789D-02-0.132D+00-0.367D-01 0.178D+00 0.983D+00
 Gap=     0.043 Goal=   None    Shift=    0.000
 Gap=     0.042 Goal=   None    Shift=    0.000
 RMSDP=3.05D-06 MaxDP=1.25D-04 DE=-4.84D-08 OVMax= 2.42D-04

 Cycle  12  Pass 1  IDiag  1:
 E= -1136.12163662713     Delta-E=       -0.000000008454 Rises=F Damp=F
 DIIS: error= 7.85D-07 at cycle  12 NSaved=  12.
 NSaved=12 IEnMin=12 EnMin= -1136.12163662713     IErMin=12 ErrMin= 7.85D-07
 ErrMax= 7.85D-07  0.00D+00 EMaxC= 1.00D-01 BMatC= 3.09D-10 BMatP= 1.29D-09
 IDIUse=1 WtCom= 1.00D+00 WtEn= 0.00D+00
 Coeff-Com: -0.142D-04 0.155D-04-0.641D-03-0.455D-03 0.929D-03 0.415D-02
 Coeff-Com:  0.110D-01-0.421D-01-0.714D-01-0.105D-01 0.353D+00 0.756D+00
 Coeff:     -0.142D-04 0.155D-04-0.641D-03-0.455D-03 0.929D-03 0.415D-02
 Coeff:      0.110D-01-0.421D-01-0.714D-01-0.105D-01 0.353D+00 0.756D+00
 Gap=     0.043 Goal=   None    Shift=    0.000
 Gap=     0.042 Goal=   None    Shift=    0.000
 RMSDP=1.17D-06 MaxDP=6.49D-05 DE=-8.45D-09 OVMax= 7.98D-05

 Cycle  13  Pass 1  IDiag  1:
 E= -1136.12163662834     Delta-E=       -0.000000001204 Rises=F Damp=F
 DIIS: error= 3.68D-07 at cycle  13 NSaved=  13.
 NSaved=13 IEnMin=13 EnMin= -1136.12163662834     IErMin=13 ErrMin= 3.68D-07
 ErrMax= 3.68D-07  0.00D+00 EMaxC= 1.00D-01 BMatC= 9.11D-11 BMatP= 3.09D-10
 IDIUse=1 WtCom= 1.00D+00 WtEn= 0.00D+00
 Coeff-Com:  0.363D-04-0.466D-04-0.619D-04 0.682D-04-0.228D-02-0.151D-02
 Coeff-Com:  0.735D-02 0.307D-01-0.284D-01-0.704D-01-0.135D+00 0.300D+00
 Coeff-Com:  0.899D+00
 Coeff:      0.363D-04-0.466D-04-0.619D-04 0.682D-04-0.228D-02-0.151D-02
 Coeff:      0.735D-02 0.307D-01-0.284D-01-0.704D-01-0.135D+00 0.300D+00
 Coeff:      0.899D+00
 Gap=     0.043 Goal=   None    Shift=    0.000
 Gap=     0.042 Goal=   None    Shift=    0.000
 RMSDP=8.28D-07 MaxDP=4.79D-05 DE=-1.20D-09 OVMax= 4.12D-05

 Cycle  14  Pass 1  IDiag  1:
 E= -1136.12163662876     Delta-E=       -0.000000000420 Rises=F Damp=F
 DIIS: error= 1.66D-07 at cycle  14 NSaved=  14.
 NSaved=14 IEnMin=14 EnMin= -1136.12163662876     IErMin=14 ErrMin= 1.66D-07
 ErrMax= 1.66D-07  0.00D+00 EMaxC= 1.00D-01 BMatC= 1.63D-11 BMatP= 9.11D-11
 IDIUse=1 WtCom= 1.00D+00 WtEn= 0.00D+00
 Coeff-Com:  0.113D-04-0.138D-04 0.110D-04 0.312D-04-0.798D-03-0.783D-03
 Coeff-Com:  0.155D-02 0.134D-01 0.123D-02-0.208D-01-0.934D-01 0.131D-02
 Coeff-Com:  0.234D+00 0.864D+00
 Coeff:      0.113D-04-0.138D-04 0.110D-04 0.312D-04-0.798D-03-0.783D-03
 Coeff:      0.155D-02 0.134D-01 0.123D-02-0.208D-01-0.934D-01 0.131D-02
 Coeff:      0.234D+00 0.864D+00
 Gap=     0.043 Goal=   None    Shift=    0.000
 Gap=     0.042 Goal=   None    Shift=    0.000
 RMSDP=3.27D-07 MaxDP=1.06D-05 DE=-4.20D-10 OVMax= 1.96D-05

 Cycle  15  Pass 1  IDiag  1:
 E= -1136.12163662886     Delta-E=       -0.000000000103 Rises=F Damp=F
 DIIS: error= 1.07D-07 at cycle  15 NSaved=  15.
 NSaved=15 IEnMin=15 EnMin= -1136.12163662886     IErMin=15 ErrMin= 1.07D-07
 ErrMax= 1.07D-07  0.00D+00 EMaxC= 1.00D-01 BMatC= 6.13D-12 BMatP= 1.63D-11
 IDIUse=1 WtCom= 1.00D+00 WtEn= 0.00D+00
 Coeff-Com: -0.120D-04 0.158D-04 0.481D-04-0.160D-04 0.624D-03 0.349D-03
 Coeff-Com: -0.246D-02-0.855D-02 0.145D-01 0.228D-01 0.135D-01-0.120D+00
 Coeff-Com: -0.281D+00 0.236D+00 0.112D+01
 Coeff:     -0.120D-04 0.158D-04 0.481D-04-0.160D-04 0.624D-03 0.349D-03
 Coeff:     -0.246D-02-0.855D-02 0.145D-01 0.228D-01 0.135D-01-0.120D+00
 Coeff:     -0.281D+00 0.236D+00 0.112D+01
 Gap=     0.043 Goal=   None    Shift=    0.000
 Gap=     0.042 Goal=   None    Shift=    0.000
 RMSDP=2.94D-07 MaxDP=1.02D-05 DE=-1.03D-10 OVMax= 2.16D-05

 Cycle  16  Pass 1  IDiag  1:
 E= -1136.12163662892     Delta-E=       -0.000000000061 Rises=F Damp=F
 DIIS: error= 5.27D-08 at cycle  16 NSaved=  16.
 NSaved=16 IEnMin=16 EnMin= -1136.12163662892     IErMin=16 ErrMin= 5.27D-08
 ErrMax= 5.27D-08  0.00D+00 EMaxC= 1.00D-01 BMatC= 1.17D-12 BMatP= 6.13D-12
 IDIUse=1 WtCom= 1.00D+00 WtEn= 0.00D+00
 Coeff-Com: -0.358D-05 0.447D-05 0.714D-05-0.508D-05 0.211D-03 0.217D-03
 Coeff-Com: -0.412D-03-0.419D-02 0.851D-03 0.728D-02 0.256D-01-0.850D-02
 Coeff-Com: -0.798D-01-0.172D+00 0.284D-01 0.120D+01
 Coeff:     -0.358D-05 0.447D-05 0.714D-05-0.508D-05 0.211D-03 0.217D-03
 Coeff:     -0.412D-03-0.419D-02 0.851D-03 0.728D-02 0.256D-01-0.850D-02
 Coeff:     -0.798D-01-0.172D+00 0.284D-01 0.120D+01
 Gap=     0.043 Goal=   None    Shift=    0.000
 Gap=     0.042 Goal=   None    Shift=    0.000
 RMSDP=1.35D-07 MaxDP=6.06D-06 DE=-6.07D-11 OVMax= 1.26D-05

 Cycle  17  Pass 1  IDiag  1:
 E= -1136.12163662893     Delta-E=       -0.000000000013 Rises=F Damp=F
 DIIS: error= 2.66D-08 at cycle  17 NSaved=  17.
 NSaved=17 IEnMin=17 EnMin= -1136.12163662893     IErMin=17 ErrMin= 2.66D-08
 ErrMax= 2.66D-08  0.00D+00 EMaxC= 1.00D-01 BMatC= 2.53D-13 BMatP= 1.17D-12
 IDIUse=1 WtCom= 1.00D+00 WtEn= 0.00D+00
 Coeff-Com:  0.319D-05-0.422D-05-0.146D-04 0.279D-05-0.132D-03-0.131D-03
 Coeff-Com:  0.618D-03 0.207D-02-0.271D-02-0.520D-02-0.920D-02 0.282D-01
 Coeff-Com:  0.738D-01-0.206D-01-0.277D+00-0.200D+00 0.141D+01
 Coeff:      0.319D-05-0.422D-05-0.146D-04 0.279D-05-0.132D-03-0.131D-03
 Coeff:      0.618D-03 0.207D-02-0.271D-02-0.520D-02-0.920D-02 0.282D-01
 Coeff:      0.738D-01-0.206D-01-0.277D+00-0.200D+00 0.141D+01
 Gap=     0.043 Goal=   None    Shift=    0.000
 Gap=     0.042 Goal=   None    Shift=    0.000
 RMSDP=7.52D-08 MaxDP=2.83D-06 DE=-1.32D-11 OVMax= 7.51D-06

 Cycle  18  Pass 1  IDiag  1:
 E= -1136.12163662894     Delta-E=       -0.000000000004 Rises=F Damp=F
 DIIS: error= 1.08D-08 at cycle  18 NSaved=  18.
 NSaved=18 IEnMin=18 EnMin= -1136.12163662894     IErMin=18 ErrMin= 1.08D-08
 ErrMax= 1.08D-08  0.00D+00 EMaxC= 1.00D-01 BMatC= 4.55D-14 BMatP= 2.53D-13
 IDIUse=1 WtCom= 1.00D+00 WtEn= 0.00D+00
 Coeff-Com:  0.663D-06-0.834D-06-0.312D-05 0.109D-07-0.438D-04-0.281D-04
 Coeff-Com:  0.109D-03 0.788D-03-0.518D-03-0.161D-02-0.335D-02 0.380D-02
 Coeff-Com:  0.138D-01 0.192D-01-0.274D-02-0.214D+00 0.514D-01 0.113D+01
 Coeff:      0.663D-06-0.834D-06-0.312D-05 0.109D-07-0.438D-04-0.281D-04
 Coeff:      0.109D-03 0.788D-03-0.518D-03-0.161D-02-0.335D-02 0.380D-02
 Coeff:      0.138D-01 0.192D-01-0.274D-02-0.214D+00 0.514D-01 0.113D+01
 Gap=     0.043 Goal=   None    Shift=    0.000
 Gap=     0.042 Goal=   None    Shift=    0.000
 RMSDP=2.54D-08 MaxDP=9.37D-07 DE=-4.09D-12 OVMax= 2.41D-06

 Cycle  19  Pass 1  IDiag  1:
 E= -1136.12163662894     Delta-E=        0.000000000003 Rises=F Damp=F
 DIIS: error= 6.09D-09 at cycle  19 NSaved=  19.
 NSaved=19 IEnMin=18 EnMin= -1136.12163662894     IErMin=19 ErrMin= 6.09D-09
 ErrMax= 6.09D-09  0.00D+00 EMaxC= 1.00D-01 BMatC= 1.36D-14 BMatP= 4.55D-14
 IDIUse=1 WtCom= 1.00D+00 WtEn= 0.00D+00
 Coeff-Com: -0.772D-06 0.102D-05 0.274D-05-0.113D-05 0.360D-04 0.323D-04
 Coeff-Com: -0.155D-03-0.518D-03 0.697D-03 0.125D-02 0.188D-02-0.714D-02
 Coeff-Com: -0.154D-01 0.677D-02 0.575D-01 0.535D-01-0.338D+00 0.108D+00
 Coeff-Com:  0.113D+01
 Coeff:     -0.772D-06 0.102D-05 0.274D-05-0.113D-05 0.360D-04 0.323D-04
 Coeff:     -0.155D-03-0.518D-03 0.697D-03 0.125D-02 0.188D-02-0.714D-02
 Coeff:     -0.154D-01 0.677D-02 0.575D-01 0.535D-01-0.338D+00 0.108D+00
 Coeff:      0.113D+01
 Gap=     0.043 Goal=   None    Shift=    0.000
 Gap=     0.042 Goal=   None    Shift=    0.000
 RMSDP=1.16D-08 MaxDP=5.73D-07 DE= 2.73D-12 OVMax= 1.08D-06

 Cycle  20  Pass 1  IDiag  1:
 E= -1136.12163662894     Delta-E=       -0.000000000001 Rises=F Damp=F
 DIIS: error= 3.89D-09 at cycle  20 NSaved=  20.
 NSaved=20 IEnMin=18 EnMin= -1136.12163662894     IErMin=20 ErrMin= 3.89D-09
 ErrMax= 3.89D-09  0.00D+00 EMaxC= 1.00D-01 BMatC= 3.65D-15 BMatP= 1.36D-14
 IDIUse=1 WtCom= 1.00D+00 WtEn= 0.00D+00
 Large coefficients: NSaved= 20 BigCof=    0.00 CofMax=   10.00 Det=-4.25D-15
 Inversion failed.  Reducing to 19 matrices.
 Large coefficients: NSaved= 19 BigCof=    0.00 CofMax=   10.00 Det=-5.46D-15
 Inversion failed.  Reducing to 18 matrices.
 Large coefficients: NSaved= 18 BigCof=    0.00 CofMax=   10.00 Det=-5.53D-15
 Inversion failed.  Reducing to 17 matrices.
 Large coefficients: NSaved= 17 BigCof=    0.00 CofMax=   10.00 Det=-5.53D-15
 Inversion failed.  Reducing to 16 matrices.
 Large coefficients: NSaved= 16 BigCof=    0.00 CofMax=   10.00 Det=-5.87D-15
 Inversion failed.  Reducing to 15 matrices.
 Coeff-Com:  0.201D-06 0.138D-04-0.480D-04-0.876D-04 0.863D-04 0.639D-03
 Coeff-Com:  0.144D-03-0.108D-02-0.695D-02-0.397D-02 0.479D-01 0.114D-01
 Coeff-Com: -0.341D+00 0.222D-02 0.129D+01
 Coeff:      0.201D-06 0.138D-04-0.480D-04-0.876D-04 0.863D-04 0.639D-03
 Coeff:      0.144D-03-0.108D-02-0.695D-02-0.397D-02 0.479D-01 0.114D-01
 Coeff:     -0.341D+00 0.222D-02 0.129D+01
 Gap=     0.043 Goal=   None    Shift=    0.000
 Gap=     0.042 Goal=   None    Shift=    0.000
 RMSDP=8.05D-09 MaxDP=3.26D-07 DE=-1.36D-12 OVMax= 7.49D-07

 SCF Done:  E(UB3LYP) =  -1136.12163663     A.U. after   20 cycles
            NFock= 20  Conv=0.81D-08     -V/T= 2.0029
 <Sx>= 0.0000 <Sy>= 0.0000 <Sz>= 0.5000 <S**2>= 0.7795 S= 0.5146
 <L.S>= 0.000000000000E+00
 KE= 1.132800783143D+03 PE=-3.304926125785D+03 EE= 7.481153956853D+02
 Annihilation of the first spin contaminant:
 S**2 before annihilation     0.7795,   after     0.7505
 Leave Link  502 at Wed Nov 29 02:38:37 2023, MaxMem=  1879048192 cpu:             181.3 elap:              16.5
 (Enter /home/sekinelabo/g16/l601.exe)
 Copying SCF densities to generalized density rwf, IOpCl= 1 IROHF=0.

 **********************************************************************

            Population analysis using the SCF Density.

 **********************************************************************

 Orbital symmetries:
 Alpha Orbitals:
       Occupied  (A) (A) (A) (A) (A) (A) (A) (A) (A) (A) (A) (A)
                 (A) (A) (A) (A) (A) (A) (A) (A) (A) (A) (A) (A)
                 (A) (A) (A) (A) (A) (A) (A) (A) (A) (A) (A) (A)
                 (A) (A) (A)
       Virtual   (A) (A) (A) (A) (A) (A) (A) (A) (A) (A) (A) (A)
                 (A) (A) (A) (A) (A) (A) (A) (A) (A) (A) (A) (A)
                 (A) (A) (A) (A) (A) (A) (A) (A) (A) (A) (A) (A)
                 (A) (A) (A) (A) (A) (A) (A) (A) (A) (A) (A) (A)
                 (A) (A) (A) (A) (A) (A) (A) (A) (A) (A) (A) (A)
                 (A) (A) (A) (A) (A) (A) (A) (A) (A) (A) (A) (A)
                 (A) (A) (A) (A) (A) (A) (A) (A) (A) (A) (A) (A)
                 (A) (A) (A) (A) (A) (A) (A) (A) (A) (A) (A) (A)
                 (A) (A) (A) (A) (A) (A) (A) (A) (A) (A) (A) (A)
                 (A) (A) (A) (A) (A) (A) (A) (A) (A) (A) (A) (A)
                 (A) (A) (A) (A) (A) (A) (A) (A) (A) (A) (A) (A)
                 (A) (A) (A) (A) (A) (A) (A) (A) (A) (A) (A) (A)
                 (A) (A) (A) (A) (A) (A) (A) (A) (A) (A) (A) (A)
                 (A) (A) (A) (A) (A) (A) (A) (A) (A) (A) (A) (A)
                 (A) (A) (A)
 Beta  Orbitals:
       Occupied  (A) (A) (A) (A) (A) (A) (A) (A) (A) (A) (A) (A)
                 (A) (A) (A) (A) (A) (A) (A) (A) (A) (A) (A) (A)
                 (A) (A) (A) (A) (A) (A) (A) (A) (A) (A) (A) (A)
                 (A) (A)
       Virtual   (A) (A) (A) (A) (A) (A) (A) (A) (A) (A) (A) (A)
                 (A) (A) (A) (A) (A) (A) (A) (A) (A) (A) (A) (A)
                 (A) (A) (A) (A) (A) (A) (A) (A) (A) (A) (A) (A)
                 (A) (A) (A) (A) (A) (A) (A) (A) (A) (A) (A) (A)
                 (A) (A) (A) (A) (A) (A) (A) (A) (A) (A) (A) (A)
                 (A) (A) (A) (A) (A) (A) (A) (A) (A) (A) (A) (A)
                 (A) (A) (A) (A) (A) (A) (A) (A) (A) (A) (A) (A)
                 (A) (A) (A) (A) (A) (A) (A) (A) (A) (A) (A) (A)
                 (A) (A) (A) (A) (A) (A) (A) (A) (A) (A) (A) (A)
                 (A) (A) (A) (A) (A) (A) (A) (A) (A) (A) (A) (A)
                 (A) (A) (A) (A) (A) (A) (A) (A) (A) (A) (A) (A)
                 (A) (A) (A) (A) (A) (A) (A) (A) (A) (A) (A) (A)
                 (A) (A) (A) (A) (A) (A) (A) (A) (A) (A) (A) (A)
                 (A) (A) (A) (A) (A) (A) (A) (A) (A) (A) (A) (A)
                 (A) (A) (A) (A)
 The electronic state is 2-A.
 Alpha  occ. eigenvalues --  -38.44724 -38.44580 -38.44287 -38.44172 -38.43997
 Alpha  occ. eigenvalues --  -38.43836 -38.43087  -2.20521  -2.20378  -2.20094
 Alpha  occ. eigenvalues --   -2.19998  -2.19820  -2.19640  -2.18847  -1.14213
 Alpha  occ. eigenvalues --   -1.14185  -1.14163  -1.14083  -1.14058  -1.13971
 Alpha  occ. eigenvalues --   -1.13743  -1.13739  -1.13703  -1.13679  -1.13663
 Alpha  occ. eigenvalues --   -1.13603  -1.13525  -1.13513  -1.13405  -1.13299
 Alpha  occ. eigenvalues --   -1.13297  -1.13258  -1.12521  -1.12514  -1.12477
 Alpha  occ. eigenvalues --   -0.16919  -0.13845  -0.11640  -0.10860
 Alpha virt. eigenvalues --   -0.06545  -0.05296  -0.04736  -0.03561  -0.03068
 Alpha virt. eigenvalues --   -0.02226  -0.01675  -0.01437  -0.01314  -0.00793
 Alpha virt. eigenvalues --   -0.00381  -0.00240   0.00298   0.00529   0.00600
 Alpha virt. eigenvalues --    0.00776   0.00954   0.01023   0.01076   0.01274
 Alpha virt. eigenvalues --    0.01308   0.01330   0.01602   0.01772   0.01811
 Alpha virt. eigenvalues --    0.02007   0.02039   0.02165   0.02280   0.02468
 Alpha virt. eigenvalues --    0.02566   0.02656   0.02863   0.02958   0.03033
 Alpha virt. eigenvalues --    0.03107   0.03186   0.03356   0.03412   0.03514
 Alpha virt. eigenvalues --    0.03628   0.03692   0.03791   0.04246   0.04416
 Alpha virt. eigenvalues --    0.04523   0.04909   0.05013   0.05233   0.05290
 Alpha virt. eigenvalues --    0.05504   0.05622   0.06438   0.06783   0.07019
 Alpha virt. eigenvalues --    0.07522   0.07753   0.07869   0.08225   0.08559
 Alpha virt. eigenvalues --    0.08667   0.09106   0.09394   0.09956   0.10208
 Alpha virt. eigenvalues --    0.10941   0.11428   0.11754   0.11927   0.12205
 Alpha virt. eigenvalues --    0.12418   0.12637   0.13111   0.13382   0.13775
 Alpha virt. eigenvalues --    0.14025   0.14292   0.15119   0.15349   0.15652
 Alpha virt. eigenvalues --    0.26528   0.28152   0.28859   0.29417   0.29876
 Alpha virt. eigenvalues --    0.30458   0.30872   0.31344   0.31754   0.33047
 Alpha virt. eigenvalues --    0.33719   0.34054   0.35612   0.36222   0.36648
 Alpha virt. eigenvalues --    0.37856   0.38108   0.38821   0.39060   0.39526
 Alpha virt. eigenvalues --    0.40046   0.41198   0.42033   0.42833   0.43386
 Alpha virt. eigenvalues --    0.43701   0.44010   0.44114   0.44396   0.44692
 Alpha virt. eigenvalues --    0.45020   0.45151   0.45612   0.45696   0.46107
 Alpha virt. eigenvalues --    0.46298   0.47209   0.47409   0.47857   0.48645
 Alpha virt. eigenvalues --    0.48770   0.49482   0.50502   0.51889   0.52228
 Alpha virt. eigenvalues --    0.52796   0.53654   0.54701   0.55191   0.56488
 Alpha virt. eigenvalues --    0.56862   0.57912   0.58758   0.60327   0.61818
 Alpha virt. eigenvalues --    0.62337   2.01967   2.07127   2.10135   2.13092
 Alpha virt. eigenvalues --    2.14925   2.16477   2.17380   4.43166   4.43947
 Alpha virt. eigenvalues --    4.44834   4.45027   4.45290   4.45471   4.45831
 Alpha virt. eigenvalues --    4.46079   4.46301   4.46636   4.46972   4.47321
 Alpha virt. eigenvalues --    4.47915   4.48218   4.48671   4.49553   4.50502
 Alpha virt. eigenvalues --    4.51629   4.53055   4.54575   4.54787  96.21217
 Alpha virt. eigenvalues --   96.27181  96.30843  96.34327  96.36486  96.38504
 Alpha virt. eigenvalues --   96.39315
  Beta  occ. eigenvalues --  -38.44727 -38.44560 -38.44217 -38.44116 -38.43980
  Beta  occ. eigenvalues --  -38.43795 -38.43086  -2.20532  -2.20342  -2.19961
  Beta  occ. eigenvalues --   -2.19898  -2.19792  -2.19566  -2.18846  -1.14226
  Beta  occ. eigenvalues --   -1.14198  -1.14128  -1.14055  -1.14031  -1.13939
  Beta  occ. eigenvalues --   -1.13651  -1.13648  -1.13621  -1.13610  -1.13597
  Beta  occ. eigenvalues --   -1.13517  -1.13511  -1.13460  -1.13394  -1.13247
  Beta  occ. eigenvalues --   -1.13238  -1.13215  -1.12521  -1.12513  -1.12476
  Beta  occ. eigenvalues --   -0.16252  -0.13242  -0.11517
  Beta virt. eigenvalues --   -0.07347  -0.06317  -0.05166  -0.04155  -0.03236
  Beta virt. eigenvalues --   -0.02737  -0.02122  -0.01507  -0.01146  -0.00819
  Beta virt. eigenvalues --   -0.00439  -0.00270  -0.00043   0.00378   0.00608
  Beta virt. eigenvalues --    0.00687   0.00837   0.01020   0.01102   0.01183
  Beta virt. eigenvalues --    0.01324   0.01345   0.01400   0.01651   0.01855
  Beta virt. eigenvalues --    0.01909   0.02127   0.02171   0.02256   0.02325
  Beta virt. eigenvalues --    0.02535   0.02664   0.02727   0.02916   0.03002
  Beta virt. eigenvalues --    0.03081   0.03170   0.03223   0.03384   0.03445
  Beta virt. eigenvalues --    0.03603   0.03685   0.03752   0.03863   0.04377
  Beta virt. eigenvalues --    0.04524   0.04594   0.04987   0.05065   0.05276
  Beta virt. eigenvalues --    0.05362   0.05621   0.05748   0.06568   0.06862
  Beta virt. eigenvalues --    0.07067   0.07647   0.07844   0.08063   0.08298
  Beta virt. eigenvalues --    0.08734   0.08887   0.09231   0.09525   0.10093
  Beta virt. eigenvalues --    0.10408   0.11092   0.11640   0.11834   0.12050
  Beta virt. eigenvalues --    0.12281   0.12526   0.12850   0.13237   0.13596
  Beta virt. eigenvalues --    0.13853   0.14226   0.14432   0.15232   0.15478
  Beta virt. eigenvalues --    0.15784   0.26846   0.28395   0.29157   0.29569
  Beta virt. eigenvalues --    0.30151   0.30757   0.31090   0.31483   0.32150
  Beta virt. eigenvalues --    0.33379   0.34061   0.34400   0.35978   0.36624
  Beta virt. eigenvalues --    0.37022   0.38093   0.38275   0.38981   0.39118
  Beta virt. eigenvalues --    0.39858   0.40282   0.41387   0.42158   0.42983
  Beta virt. eigenvalues --    0.43579   0.43851   0.44063   0.44249   0.44541
  Beta virt. eigenvalues --    0.44780   0.45114   0.45340   0.45743   0.45810
  Beta virt. eigenvalues --    0.46189   0.46526   0.47263   0.47495   0.47950
  Beta virt. eigenvalues --    0.48769   0.48966   0.49564   0.50660   0.52004
  Beta virt. eigenvalues --    0.52344   0.52929   0.53765   0.54755   0.55432
  Beta virt. eigenvalues --    0.56584   0.56945   0.57988   0.58726   0.60478
  Beta virt. eigenvalues --    0.62010   0.62494   2.02089   2.07285   2.10175
  Beta virt. eigenvalues --    2.13291   2.15027   2.16561   2.17469   4.43218
  Beta virt. eigenvalues --    4.44010   4.44914   4.45096   4.45322   4.45525
  Beta virt. eigenvalues --    4.45866   4.46111   4.46316   4.46678   4.47007
  Beta virt. eigenvalues --    4.47355   4.47944   4.48256   4.48712   4.49593
  Beta virt. eigenvalues --    4.50534   4.51700   4.53087   4.54623   4.54831
  Beta virt. eigenvalues --   96.21258  96.27232  96.30857  96.34394  96.36524
  Beta virt. eigenvalues --   96.38537  96.39345
          Condensed to atoms (all electrons):
               1          2          3          4          5          6
     1  Na  11.298260  -0.006489  -0.281135  -0.009132   0.126122   0.153075
     2  Na  -0.006489  11.513304   0.300428  -0.392639   0.120118   0.032434
     3  Na  -0.281135   0.300428  10.787928   0.112894   0.017481   0.060798
     4  Na  -0.009132  -0.392639   0.112894  11.061967   0.013706  -0.071608
     5  Na   0.126122   0.120118   0.017481   0.013706  10.565203   0.004475
     6  Na   0.153075   0.032434   0.060798  -0.071608   0.004475  10.596688
     7  Na   0.003634   0.082932  -0.000264   0.038418   0.000180  -0.026808
               7
     1  Na   0.003634
     2  Na   0.082932
     3  Na  -0.000264
     4  Na   0.038418
     5  Na   0.000180
     6  Na  -0.026808
     7  Na  10.619416
          Atomic-Atomic Spin Densities.
               1          2          3          4          5          6
     1  Na   0.357165   0.121434  -0.049236  -0.239456   0.077409   0.005416
     2  Na   0.121434  -0.121662  -0.094362   0.080513  -0.026030   0.086936
     3  Na  -0.049236  -0.094362  -0.062319   0.149924  -0.004041   0.056177
     4  Na  -0.239456   0.080513   0.149924   0.214784   0.011981  -0.047160
     5  Na   0.077409  -0.026030  -0.004041   0.011981   0.123051   0.004709
     6  Na   0.005416   0.086936   0.056177  -0.047160   0.004709   0.260567
     7  Na  -0.058050   0.016120   0.030929   0.017259  -0.001504  -0.017215
               7
     1  Na  -0.058050
     2  Na   0.016120
     3  Na   0.030929
     4  Na   0.017259
     5  Na  -0.001504
     6  Na  -0.017215
     7  Na  -0.015090
 Mulliken charges and spin densities:
               1          2
     1  Na  -0.284334   0.214681
     2  Na  -0.650087   0.062949
     3  Na   0.001871   0.027073
     4  Na   0.246396   0.187845
     5  Na   0.152717   0.185575
     6  Na   0.250946   0.349430
     7  Na   0.282492  -0.027552
 Sum of Mulliken charges =  -0.00000   1.00000
 Mulliken charges and spin densities with hydrogens summed into heavy atoms:
               1          2
     1  Na  -0.284334   0.214681
     2  Na  -0.650087   0.062949
     3  Na   0.001871   0.027073
     4  Na   0.246396   0.187845
     5  Na   0.152717   0.185575
     6  Na   0.250946   0.349430
     7  Na   0.282492  -0.027552
 Electronic spatial extent (au):  <R**2>=           3594.9906
 Charge=             -0.0000 electrons
 Dipole moment (field-independent basis, Debye):
    X=              0.1946    Y=             -0.9658    Z=              0.0632  Tot=              0.9872
 Quadrupole moment (field-independent basis, Debye-Ang):
   XX=            -63.0501   YY=            -68.4390   ZZ=            -67.0005
   XY=              2.9045   XZ=             -0.0955   YZ=              1.3942
 Traceless Quadrupole moment (field-independent basis, Debye-Ang):
   XX=              3.1131   YY=             -2.2758   ZZ=             -0.8373
   XY=              2.9045   XZ=             -0.0955   YZ=              1.3942
 Octapole moment (field-independent basis, Debye-Ang**2):
  XXX=              7.3820  YYY=              6.4428  ZZZ=              3.6712  XYY=             -6.7990
  XXY=             -6.5165  XXZ=             11.3492  XZZ=             -4.1667  YZZ=             -8.5742
  YYZ=             -0.9819  XYZ=             10.9390
 Hexadecapole moment (field-independent basis, Debye-Ang**3):
 XXXX=          -3216.3506 YYYY=          -1739.0763 ZZZZ=           -564.5826 XXXY=            192.9335
 XXXZ=             -6.5751 YYYX=            -45.9091 YYYZ=             31.4899 ZZZX=              1.1711
 ZZZY=             -2.6211 XXYY=           -951.3778 XXZZ=           -747.1836 YYZZ=           -424.3826
 XXYZ=             -4.4937 YYXZ=            -22.5429 ZZXY=              5.6246
 N-N= 2.878883103282D+02 E-N=-3.304926125967D+03  KE= 1.132800783143D+03
                          Isotropic Fermi Contact Couplings
        Atom                 a.u.       MegaHertz       Gauss      10(-4) cm-1
     1  Na(23)             0.05949      70.38371      25.11466      23.47748
     2  Na(23)             0.03441      40.70507      14.52458      13.57775
     3  Na(23)            -0.07542     -89.22332     -31.83710     -29.76170
     4  Na(23)             0.20590     243.58932      86.91873      81.25265
     5  Na(23)             0.17063     201.85695      72.02758      67.33223
     6  Na(23)             0.31241     369.59273     131.87988     123.28286
     7  Na(23)             0.00148       1.75661       0.62680       0.58594
 --------------------------------------------------------
       Center         ----  Spin Dipole Couplings  ----
                      3XX-RR        3YY-RR        3ZZ-RR
 --------------------------------------------------------
     1   Atom        0.021185     -0.010865     -0.010319
     2   Atom        0.004991      0.007144     -0.012135
     3   Atom        0.034398     -0.024348     -0.010050
     4   Atom        0.025960     -0.010810     -0.015150
     5   Atom       -0.008786      0.005473      0.003313
     6   Atom       -0.006275      0.002227      0.004048
     7   Atom       -0.000380     -0.000088      0.000467
 --------------------------------------------------------
                        XY            XZ            YZ
 --------------------------------------------------------
     1   Atom        0.001391      0.010236      0.001138
     2   Atom        0.029455     -0.008300     -0.013319
     3   Atom        0.005691     -0.027968     -0.002561
     4   Atom        0.007446     -0.000018      0.000571
     5   Atom        0.000371     -0.003271     -0.006572
     6   Atom       -0.003257      0.000456      0.000372
     7   Atom        0.000656      0.000911      0.000501
 --------------------------------------------------------


 ---------------------------------------------------------------------------------
              Anisotropic Spin Dipole Couplings in Principal Axis System
 ---------------------------------------------------------------------------------

       Atom             a.u.   MegaHertz   Gauss  10(-4) cm-1        Axes

              Baa    -0.0135    -1.912    -0.682    -0.638 -0.2636 -0.2585  0.9294
     1 Na(23) Bbb    -0.0108    -1.519    -0.542    -0.507 -0.1173  0.9649  0.2351
              Bcc     0.0243     3.431     1.224     1.144  0.9575  0.0471  0.2847
 
              Baa    -0.0246    -3.481    -1.242    -1.161 -0.6075  0.7111  0.3539
     2 Na(23) Bbb    -0.0154    -2.177    -0.777    -0.726  0.4491 -0.0600  0.8915
              Bcc     0.0401     5.658     2.019     1.887  0.6552  0.7005 -0.2829
 
              Baa    -0.0249    -3.517    -1.255    -1.173 -0.1293  0.9889 -0.0729
     3 Na(23) Bbb    -0.0235    -3.323    -1.186    -1.108  0.4219  0.1214  0.8985
              Bcc     0.0484     6.839     2.440     2.281  0.8974  0.0854 -0.4329
 
              Baa    -0.0153    -2.154    -0.769    -0.719  0.0333 -0.1820  0.9827
     4 Na(23) Bbb    -0.0122    -1.716    -0.612    -0.573 -0.1883  0.9645  0.1850
              Bcc     0.0274     3.871     1.381     1.291  0.9815  0.1913  0.0022
 
              Baa    -0.0097    -1.376    -0.491    -0.459  0.9517  0.1020  0.2897
     5 Na(23) Bbb    -0.0016    -0.226    -0.081    -0.075 -0.2825  0.6608  0.6954
              Bcc     0.0113     1.602     0.572     0.534  0.1205  0.7436 -0.6576
 
              Baa    -0.0074    -1.046    -0.373    -0.349  0.9457  0.3216 -0.0481
     6 Na(23) Bbb     0.0033     0.463     0.165     0.154 -0.3231  0.9129 -0.2495
              Bcc     0.0041     0.583     0.208     0.194 -0.0363  0.2515  0.9672
 
              Baa    -0.0011    -0.152    -0.054    -0.051  0.8475 -0.3700 -0.3805
     7 Na(23) Bbb    -0.0004    -0.053    -0.019    -0.018  0.0919  0.8085 -0.5813
              Bcc     0.0014     0.205     0.073     0.068  0.5227  0.4577  0.7192
 

 ---------------------------------------------------------------------------------

 No NMR shielding tensors so no spin-rotation constants.
 Leave Link  601 at Wed Nov 29 02:38:37 2023, MaxMem=  1879048192 cpu:               2.3 elap:               0.2
 (Enter /home/sekinelabo/g16/l701.exe)
 ... and contract with generalized density number  0.
 Compute integral first derivatives.
 Leave Link  701 at Wed Nov 29 02:38:37 2023, MaxMem=  1879048192 cpu:               1.5 elap:               0.1
 (Enter /home/sekinelabo/g16/l702.exe)
 L702 exits ... SP integral derivatives will be done elsewhere.
 Leave Link  702 at Wed Nov 29 02:38:37 2023, MaxMem=  1879048192 cpu:               0.4 elap:               0.0
 (Enter /home/sekinelabo/g16/l703.exe)
 Integral derivatives from FoFJK, PRISM(SPDF).
 Compute integral first derivatives, UseDBF=F ICtDFT=           0.
 Calling FoFJK, ICntrl=      2127 FMM=F ISym2X=0 I1Cent= 0 IOpClX= 1 NMat=1 NMatS=1 NMatT=0.
 FoFJK:  IHMeth= 1 ICntrl=    2127 DoSepK=F KAlg= 0 I1Cent=           0 FoldK=F
 IRaf=         0 NMat=       1 IRICut=       1 DoRegI=T DoRafI=F ISym2E= 0 IDoP0=0 IntGTp=1.
 FoFCou: FMM=F IPFlag=           0 FMFlag=      100000 FMFlg1=         800
         NFxFlg=           0 DoJE=F BraDBF=F KetDBF=F FulRan=T
         wScrn=  0.000000 ICntrl=      2127 IOpCl=  1 I1Cent=           0 NGrid=           0
         NMat0=    1 NMatS0=      1 NMatT0=    0 NMatD0=    1 NMtDS0=    0 NMtDT0=    0
 Symmetry not used in FoFCou.
 Leave Link  703 at Wed Nov 29 02:38:39 2023, MaxMem=  1879048192 cpu:              29.9 elap:               2.0
 (Enter /home/sekinelabo/g16/l716.exe)
 Dipole        = 7.65629101D-02-3.79970622D-01 2.48684271D-02
 ***** Axes restored to original set *****
 -------------------------------------------------------------------
 Center     Atomic                   Forces (Hartrees/Bohr)
 Number     Number              X              Y              Z
 -------------------------------------------------------------------
      1       11           0.001061313    0.000203701    0.005024841
      2       11          -0.001301862    0.003139298   -0.002107263
      3       11          -0.000402687   -0.000118798    0.003187272
      4       11          -0.000772898    0.001120264   -0.003229316
      5       11           0.002029918   -0.000008768    0.000068983
      6       11          -0.001599001   -0.000428664   -0.000631056
      7       11           0.000985218   -0.003907033   -0.002313462
 -------------------------------------------------------------------
 Cartesian Forces:  Max     0.005024841 RMS     0.002114296
 Z-matrix is all fixed cartesians, so copy forces.
 Force constants in Cartesian coordinates: 
                1             2             3             4             5 
      1  0.504314D-01
      2  0.532416D-02  0.593900D-01
      3  0.394416D-02 -0.100152D-01  0.644290D-01
      4 -0.113969D-01 -0.323086D-02 -0.458078D-04  0.807159D-01
      5  0.349144D-02 -0.108299D-01  0.529252D-02 -0.216077D-02  0.823164D-01
      6 -0.322389D-02 -0.817443D-04 -0.207277D-01  0.569574D-02  0.518621D-02
      7 -0.342175D-02  0.236305D-02  0.376838D-02 -0.139690D-01  0.261843D-03
      8  0.448695D-02 -0.290117D-03 -0.309279D-02  0.215547D-02 -0.166469D-01
      9 -0.292296D-02  0.122843D-02  0.291245D-02 -0.135408D-02 -0.494827D-02
     10 -0.108903D-01  0.642800D-03 -0.176505D-02 -0.233373D-01 -0.822938D-03
     11 -0.287590D-02 -0.192872D-01  0.290166D-02  0.628337D-02 -0.281339D-01
     12 -0.125752D-02  0.808558D-02 -0.163839D-01 -0.726152D-02 -0.124775D-01
     13 -0.166387D-01 -0.361514D-04 -0.471466D-02 -0.130093D-02 -0.181957D-02
     14 -0.142990D-01 -0.199240D-01 -0.513539D-03 -0.273181D-02  0.599969D-02
     15  0.527714D-02  0.983824D-02 -0.166097D-01 -0.248511D-02 -0.264879D-02
     16 -0.950024D-03 -0.163736D-04  0.122964D-02 -0.121989D-01 -0.457506D-02
     17  0.492504D-03  0.261570D-03 -0.529319D-03  0.364376D-02 -0.149667D-01
     18 -0.267381D-02 -0.871627D-04  0.350137D-02  0.122531D-01  0.644790D-03
     19 -0.713365D-02 -0.504663D-02 -0.241667D-02 -0.185129D-01  0.562506D-02
     20  0.337982D-02 -0.932033D-02  0.595666D-02 -0.395916D-02 -0.177387D-01
     21  0.856869D-03 -0.896815D-02 -0.171215D-01 -0.680231D-02  0.895107D-02
                6             7             8             9            10 
      6  0.881233D-01
      7 -0.477291D-02  0.460813D-01
      8 -0.375059D-02  0.421306D-02  0.318475D-01
      9 -0.274718D-01  0.230621D-02  0.141355D-01  0.546038D-01
     10  0.523993D-02 -0.978400D-02 -0.937379D-02 -0.633183D-03  0.560218D-01
     11  0.575041D-02  0.537566D-02 -0.752785D-02 -0.241211D-02  0.184196D-02
     12 -0.127242D-01  0.494347D-02  0.828200D-02 -0.198542D-01  0.332586D-02
     13 -0.250726D-03 -0.129151D-02  0.737625D-03 -0.195438D-02 -0.144063D-01
     14 -0.229525D-02 -0.716159D-03  0.532618D-03 -0.110233D-02  0.102624D-01
     15  0.256776D-02  0.219320D-02 -0.122471D-02  0.333615D-02 -0.838346D-02
     16 -0.562353D-02 -0.181562D-01 -0.223064D-02  0.431276D-02 -0.177587D-02
     17 -0.634549D-03 -0.115782D-01 -0.835133D-02 -0.662766D-02 -0.371313D-02
     18 -0.139250D-01 -0.109381D-01 -0.103441D-01 -0.173261D-01  0.759457D-03
     19  0.293538D-02  0.541218D-03  0.113224D-04  0.245626D-03  0.417192D-02
     20 -0.417448D-02  0.807161D-04  0.436107D-03 -0.273606D-03  0.116272D-02
     21 -0.158422D-01  0.249975D-02 -0.400534D-02  0.379974D-02  0.145644D-02
               11            12            13            14            15 
     11  0.686583D-01
     12 -0.102299D-01  0.521032D-01
     13 -0.760160D-02  0.832919D-03  0.327343D-01
     14 -0.128404D-01  0.807921D-02  0.828016D-02  0.265293D-01
     15  0.102541D-02 -0.121290D-01  0.688794D-02 -0.481948D-02  0.193685D-01
     16 -0.723170D-03 -0.131265D-02 -0.107454D-04 -0.188415D-04  0.970518D-05
     17  0.304167D-02  0.176471D-02 -0.177689D-04  0.833192D-04  0.457454D-04
     18  0.231732D-02  0.576028D-02 -0.229775D-04 -0.140951D-04  0.370366D-04
     19 -0.230031D-02  0.729432D-03  0.913857D-03 -0.776743D-03 -0.349942D-02
     20 -0.391054D-02 -0.350404D-02  0.457317D-03 -0.380490D-03 -0.221640D-02
     21  0.647248D-03  0.322787D-02 -0.778121D-03  0.665491D-03  0.342927D-02
               16            17            18            19            20 
     16  0.329536D-01
     17  0.748457D-02  0.172183D-01
     18  0.125911D-02  0.801136D-02  0.210604D-01
     19  0.138213D-03  0.368824D-02 -0.636756D-03  0.198814D-01
     20  0.795089D-04  0.271315D-02 -0.528105D-03 -0.120093D-02  0.282008D-01
     21  0.124972D-03 -0.203029D-02  0.892026D-03  0.264240D-02  0.473997D-02
               21 
     21  0.216148D-01
 Leave Link  716 at Wed Nov 29 02:38:40 2023, MaxMem=  1879048192 cpu:               0.4 elap:               0.0
 (Enter /home/sekinelabo/g16/l103.exe)

 GradGradGradGradGradGradGradGradGradGradGradGradGradGradGradGradGradGrad
 Berny optimization.
 Search for a local minimum.
 Step number   1 out of a maximum of    2
 All quantities printed in internal units (Hartrees-Bohrs-Radians)
 Second derivative matrix not updated -- first step.
 ITU=  0
     Eigenvalues ---    0.01223   0.01679   0.02031   0.02386   0.03705
     Eigenvalues ---    0.05224   0.05694   0.06311   0.06873   0.07576
     Eigenvalues ---    0.08563   0.09591   0.10552   0.11569   0.11887
 Angle between quadratic step and forces=  39.17 degrees.
 Linear search not attempted -- first point.
 B after Tr=    -0.000000   -0.000000    0.000000
         Rot=    1.000000    0.000000   -0.000000    0.000000 Ang=   0.00 deg.
 Variable       Old X    -DE/DX   Delta X   Delta X   Delta X     New X
                                 (Linear)    (Quad)   (Total)
    X1       25.13411   0.00106   0.00000   0.06178   0.06178  25.19589
    Y1       30.94143   0.00020   0.00000   0.01266   0.01266  30.95410
    Z1       26.96942   0.00502   0.00000   0.06968   0.06968  27.03910
    X2       31.24057  -0.00130   0.00000  -0.03420  -0.03420  31.20638
    Y2       29.87808   0.00314   0.00000   0.02400   0.02400  29.90208
    Z2       31.57676  -0.00211   0.00000  -0.02357  -0.02357  31.55319
    X3       33.29660  -0.00040   0.00000  -0.06384  -0.06384  33.23276
    Y3       26.21882  -0.00012   0.00000  -0.01286  -0.01286  26.20596
    Z3       26.39210   0.00319   0.00000   0.06246   0.06246  26.45457
    X4       26.92179  -0.00077   0.00000  -0.00090  -0.00090  26.92089
    Y4       24.90508   0.00112   0.00000   0.04689   0.04689  24.95197
    Z4       30.02794  -0.00323   0.00000  -0.01741  -0.01741  30.01053
    X5       20.77225   0.00203   0.00000   0.10922   0.10922  20.88147
    Y5       26.26455  -0.00001   0.00000   0.02641   0.02641  26.29096
    Z5       26.86567   0.00007   0.00000  -0.00375  -0.00375  26.86192
    X6       38.28415  -0.00160   0.00000  -0.11429  -0.11429  38.16986
    Y6       29.16263  -0.00043   0.00000   0.04021   0.04021  29.20284
    Z6       28.96156  -0.00063   0.00000  -0.02727  -0.02727  28.93429
    X7       27.35530   0.00099   0.00000   0.04223   0.04223  27.39753
    Y7       35.63457  -0.00391   0.00000  -0.13732  -0.13732  35.49724
    Z7       32.21133  -0.00231   0.00000  -0.06015  -0.06015  32.15118
         Item               Value     Threshold  Converged?
 Maximum Force            0.005025     0.000450     NO 
 RMS     Force            0.002114     0.000300     NO 
 Maximum Displacement     0.137321     0.001800     NO 
 RMS     Displacement     0.059403     0.001200     NO 
 Predicted change in Energy=-1.022407D-03
 GradGradGradGradGradGradGradGradGradGradGradGradGradGradGradGradGradGrad

 Leave Link  103 at Wed Nov 29 02:38:40 2023, MaxMem=  1879048192 cpu:               0.2 elap:               0.0
 (Enter /home/sekinelabo/g16/l9999.exe)
 1\1\GINC-SEKINELABO-XA7R-R37\Force\UB3LYP\6-311+G(d)\Na7(2)\SEKINELABO
 \29-Nov-2023\0\\#P B3LYP/6-311+g(d) force\\DPGEN\\0,2\Na,13.3004,16.37
 35,14.2716\Na,16.5318,15.8108,16.7097\Na,17.6198,13.8744,13.9661\Na,14
 .2464,13.1792,15.8901\Na,10.9922,13.8986,14.2167\Na,20.2591,15.4322,15
 .3258\Na,14.4758,18.857,17.0455\\Version=ES64L-G16RevB.01\State=2-A\HF
 =-1136.1216366\S2=0.779505\S2-1=0.\S2A=0.750476\RMSD=8.051e-09\RMSF=2.
 114e-03\Dipole=0.1064429,-0.3505753,-0.1289375\Quadrupole=1.9384974,-2
 .0673583,0.1288608,2.1919494,0.989605,0.4880847\PG=C01 [X(Na7)]\\@


 THE MORE ACCURATE THE CALCULATIONS BECOME, THE MORE THE CONCEPTS
 TEND TO VANISH INTO THIN AIR.
     -- R.S. MULLIKEN, J.C.P. 43,S2(1965)
 Job cpu time:       0 days  0 hours  3 minutes 46.9 seconds.
 Elapsed time:       0 days  0 hours  0 minutes 19.5 seconds.
 File lengths (MBytes):  RWF=     32 Int=      0 D2E=      0 Chk=      4 Scr=      1
 Normal termination of Gaussian 16 at Wed Nov 29 02:38:40 2023.
