 Set GAUSS_MDEF to "14GB".
 Entering Gaussian System, Link 0=g16
 Initial command:
 /home/sekinelabo/g16/l1.exe "/home/sekinelabo/g16temp/Gau-234858.inp" -scrdir="/home/sekinelabo/g16temp/"
 Entering Link 1 = /home/sekinelabo/g16/l1.exe PID=    234860.
  
 Copyright (c) 1988-2017, Gaussian, Inc.  All Rights Reserved.
  
 This is part of the Gaussian(R) 16 program.  It is based on
 the Gaussian(R) 09 system (copyright 2009, Gaussian, Inc.),
 the Gaussian(R) 03 system (copyright 2003, Gaussian, Inc.),
 the Gaussian(R) 98 system (copyright 1998, Gaussian, Inc.),
 the Gaussian(R) 94 system (copyright 1995, Gaussian, Inc.),
 the Gaussian 92(TM) system (copyright 1992, Gaussian, Inc.),
 the Gaussian 90(TM) system (copyright 1990, Gaussian, Inc.),
 the Gaussian 88(TM) system (copyright 1988, Gaussian, Inc.),
 the Gaussian 86(TM) system (copyright 1986, Carnegie Mellon
 University), and the Gaussian 82(TM) system (copyright 1983,
 Carnegie Mellon University). Gaussian is a federally registered
 trademark of Gaussian, Inc.
  
 This software contains proprietary and confidential information,
 including trade secrets, belonging to Gaussian, Inc.
  
 This software is provided under written license and may be
 used, copied, transmitted, or stored only in accord with that
 written license.
  
 The following legend is applicable only to US Government
 contracts under FAR:
  
                    RESTRICTED RIGHTS LEGEND
  
 Use, reproduction and disclosure by the US Government is
 subject to restrictions as set forth in subparagraphs (a)
 and (c) of the Commercial Computer Software - Restricted
 Rights clause in FAR 52.227-19.
  
 Gaussian, Inc.
 340 Quinnipiac St., Bldg. 40, Wallingford CT 06492
  
  
 ---------------------------------------------------------------
 Warning -- This program may not be used in any manner that
 competes with the business of Gaussian, Inc. or will provide
 assistance to any competitor of Gaussian, Inc.  The licensee
 of this program is prohibited from giving any competitor of
 Gaussian, Inc. access to this program.  By using this program,
 the user acknowledges that Gaussian, Inc. is engaged in the
 business of creating and licensing software in the field of
 computational chemistry and represents and warrants to the
 licensee that it is not a competitor of Gaussian, Inc. and that
 it will not use this program in any manner prohibited above.
 ---------------------------------------------------------------
  

 Cite this work as:
 Gaussian 16, Revision B.01,
 M. J. Frisch, G. W. Trucks, H. B. Schlegel, G. E. Scuseria, 
 M. A. Robb, J. R. Cheeseman, G. Scalmani, V. Barone, 
 G. A. Petersson, H. Nakatsuji, X. Li, M. Caricato, A. V. Marenich, 
 J. Bloino, B. G. Janesko, R. Gomperts, B. Mennucci, H. P. Hratchian, 
 J. V. Ortiz, A. F. Izmaylov, J. L. Sonnenberg, D. Williams-Young, 
 F. Ding, F. Lipparini, F. Egidi, J. Goings, B. Peng, A. Petrone, 
 T. Henderson, D. Ranasinghe, V. G. Zakrzewski, J. Gao, N. Rega, 
 G. Zheng, W. Liang, M. Hada, M. Ehara, K. Toyota, R. Fukuda, 
 J. Hasegawa, M. Ishida, T. Nakajima, Y. Honda, O. Kitao, H. Nakai, 
 T. Vreven, K. Throssell, J. A. Montgomery, Jr., J. E. Peralta, 
 F. Ogliaro, M. J. Bearpark, J. J. Heyd, E. N. Brothers, K. N. Kudin, 
 V. N. Staroverov, T. A. Keith, R. Kobayashi, J. Normand, 
 K. Raghavachari, A. P. Rendell, J. C. Burant, S. S. Iyengar, 
 J. Tomasi, M. Cossi, J. M. Millam, M. Klene, C. Adamo, R. Cammi, 
 J. W. Ochterski, R. L. Martin, K. Morokuma, O. Farkas, 
 J. B. Foresman, and D. J. Fox, Gaussian, Inc., Wallingford CT, 2016.
 
 ******************************************
 Gaussian 16:  ES64L-G16RevB.01 20-Dec-2017
                 3-Dec-2023 
 ******************************************
 %nproc=15
 Will use up to   15 processors via shared memory.
 -------------------------
 #P B3LYP/6-311+g(d) force
 -------------------------
 1/10=7,30=1,38=1/1,3;
 2/12=2,17=6,18=5,40=1/2;
 3/5=4,6=6,7=11,11=2,25=1,30=1,71=1,74=-5/1,2,3;
 4//1;
 5/5=2,38=5/2;
 6/7=2,8=2,9=2,10=2,28=1/1;
 7/29=1/1,2,3,16;
 1/10=7,30=1/3;
 99//99;
 Leave Link    1 at Sun Dec  3 12:26:26 2023, MaxMem=           0 cpu:               0.3 elap:               0.0
 (Enter /home/sekinelabo/g16/l101.exe)
 -----
 DPGEN
 -----
 Symbolic Z-matrix:
 Charge =  0 Multiplicity = 2
 Na                    9.09028   12.1787   13.643 
 Na                    14.7785   13.4308   15.5736 
 Na                    11.3791   14.3484   16.0067 
 Na                    17.4251   13.4512   12.7121 
 Na                    14.7924   13.4459   11.1756 
 Na                    12.2956   11.1246   9.4841 
 Na                    9.38155   11.1629   10.5474 
 
 ITRead=  0  0  0  0  0  0  0
 MicOpt= -1 -1 -1 -1 -1 -1 -1
 NAtoms=      7 NQM=        7 NQMF=       0 NMMI=      0 NMMIF=      0
                NMic=       0 NMicF=      0.
                    Isotopes and Nuclear Properties:
 (Nuclear quadrupole moments (NQMom) in fm**2, nuclear magnetic moments (NMagM)
  in nuclear magnetons)

  Atom         1           2           3           4           5           6           7
 IAtWgt=          23          23          23          23          23          23          23
 AtmWgt=  22.9897697  22.9897697  22.9897697  22.9897697  22.9897697  22.9897697  22.9897697
 NucSpn=           3           3           3           3           3           3           3
 AtZEff=  -0.0000000  -0.0000000  -0.0000000  -0.0000000  -0.0000000  -0.0000000  -0.0000000
 NQMom=   10.4000000  10.4000000  10.4000000  10.4000000  10.4000000  10.4000000  10.4000000
 NMagM=    2.2175200   2.2175200   2.2175200   2.2175200   2.2175200   2.2175200   2.2175200
 AtZNuc=  11.0000000  11.0000000  11.0000000  11.0000000  11.0000000  11.0000000  11.0000000
 Leave Link  101 at Sun Dec  3 12:26:26 2023, MaxMem=  1879048192 cpu:               2.5 elap:               0.2
 (Enter /home/sekinelabo/g16/l103.exe)

 GradGradGradGradGradGradGradGradGradGradGradGradGradGradGradGradGradGrad
 Berny optimization.
 Initialization pass.
 Trust Radius=3.00D-01 FncErr=1.00D-07 GrdErr=1.00D-07 EigMax=2.50D+02 EigMin=1.00D-04
 Number of steps in this run=      2 maximum allowed number of steps=      2.
 GradGradGradGradGradGradGradGradGradGradGradGradGradGradGradGradGradGrad

 Leave Link  103 at Sun Dec  3 12:26:26 2023, MaxMem=  1879048192 cpu:               0.2 elap:               0.0
 (Enter /home/sekinelabo/g16/l202.exe)
                          Input orientation:                          
 ---------------------------------------------------------------------
 Center     Atomic      Atomic             Coordinates (Angstroms)
 Number     Number       Type             X           Y           Z
 ---------------------------------------------------------------------
      1         11           0        9.090280   12.178700   13.643000
      2         11           0       14.778500   13.430800   15.573600
      3         11           0       11.379100   14.348400   16.006700
      4         11           0       17.425100   13.451200   12.712100
      5         11           0       14.792400   13.445900   11.175600
      6         11           0       12.295600   11.124600    9.484100
      7         11           0        9.381550   11.162900   10.547400
 ---------------------------------------------------------------------
                    Distance matrix (angstroms):
                    1          2          3          4          5
     1  Na   0.000000
     2  Na   6.136026   0.000000
     3  Na   3.941240   3.547603   0.000000
     4  Na   8.482633   3.897831   6.943592   0.000000
     5  Na   6.340980   4.398048   5.983699   3.048273   0.000000
     6  Na   5.355525   6.968885   7.333292   6.491904   3.805735
     7  Na   3.270998   7.715771   6.628844   8.638341   5.906270
                    6          7
     6  Na   0.000000
     7  Na   3.102219   0.000000
 Stoichiometry    Na7(2)
 Framework group  C1[X(Na7)]
 Deg. of freedom    15
 Full point group                 C1      NOp   1
 Largest Abelian subgroup         C1      NOp   1
 Largest concise Abelian subgroup C1      NOp   1
                         Standard orientation:                         
 ---------------------------------------------------------------------
 Center     Atomic      Atomic             Coordinates (Angstroms)
 Number     Number       Type             X           Y           Z
 ---------------------------------------------------------------------
      1         11           0        3.204186    2.028915   -0.179705
      2         11           0       -2.907270    1.936592   -0.720444
      3         11           0       -0.211744    3.843139    0.577517
      4         11           0       -4.466204   -1.593250   -0.169960
      5         11           0       -1.612498   -1.968650    0.833736
      6         11           0        1.836047   -3.148261   -0.261559
      7         11           0        4.157483   -1.098484   -0.079585
 ---------------------------------------------------------------------
 Rotational constants (GHZ):           0.5252447           0.3453678           0.2152314
 Leave Link  202 at Sun Dec  3 12:26:26 2023, MaxMem=  1879048192 cpu:               0.0 elap:               0.0
 (Enter /home/sekinelabo/g16/l301.exe)
 Standard basis: 6-311+G(d) (5D, 7F)
 Ernie: Thresh=  0.10000D-02 Tol=  0.10000D-05 Strict=F.
 There are   217 symmetry adapted cartesian basis functions of A   symmetry.
 There are   210 symmetry adapted basis functions of A   symmetry.
   210 basis functions,   350 primitive gaussians,   217 cartesian basis functions
    39 alpha electrons       38 beta electrons
       nuclear repulsion energy       267.2806964737 Hartrees.
 IExCor=  402 DFT=T Ex+Corr=B3LYP ExCW=0 ScaHFX=  0.200000
 ScaDFX=  0.800000  0.720000  1.000000  0.810000 ScalE2=  1.000000  1.000000
 IRadAn=      5 IRanWt=     -1 IRanGd=            0 ICorTp=0 IEmpDi=  4
 NAtoms=    7 NActive=    7 NUniq=    7 SFac= 1.00D+00 NAtFMM=   60 NAOKFM=F Big=F
 Integral buffers will be    131072 words long.
 Raffenetti 2 integral format.
 Two-electron integral symmetry is turned on.
 Leave Link  301 at Sun Dec  3 12:26:26 2023, MaxMem=  1879048192 cpu:               0.5 elap:               0.0
 (Enter /home/sekinelabo/g16/l302.exe)
 NPDir=0 NMtPBC=     1 NCelOv=     1 NCel=       1 NClECP=     1 NCelD=      1
         NCelK=      1 NCelE2=     1 NClLst=     1 CellRange=     0.0.
 One-electron integrals computed using PRISM.
 One-electron integral symmetry used in STVInt
 NBasis=   210 RedAO= T EigKep=  1.59D-05  NBF=   210
 NBsUse=   210 1.00D-06 EigRej= -1.00D+00 NBFU=   210
 Precomputing XC quadrature grid using
 IXCGrd= 4 IRadAn=           5 IRanWt=          -1 IRanGd=           0 AccXCQ= 0.00D+00.
 Generated NRdTot=       0 NPtTot=           0 NUsed=           0 NTot=          32
 NSgBfM=   204   204   204   204   204 MxSgAt=     7 MxSgA2=     7.
 Leave Link  302 at Sun Dec  3 12:26:26 2023, MaxMem=  1879048192 cpu:               2.2 elap:               0.2
 (Enter /home/sekinelabo/g16/l303.exe)
 DipDrv:  MaxL=1.
 Leave Link  303 at Sun Dec  3 12:26:26 2023, MaxMem=  1879048192 cpu:               0.5 elap:               0.0
 (Enter /home/sekinelabo/g16/l401.exe)
 ExpMin= 7.60D-03 ExpMax= 3.62D+04 ExpMxC= 1.21D+03 IAcc=3 IRadAn=         5 AccDes= 0.00D+00
 Harris functional with IExCor=  402 and IRadAn=       5 diagonalized for initial guess.
 HarFok:  IExCor=  402 AccDes= 0.00D+00 IRadAn=         5 IDoV= 1 UseB2=F ITyADJ=14
 ICtDFT=  3500011 ScaDFX=  1.000000  1.000000  1.000000  1.000000
 FoFCou: FMM=F IPFlag=           0 FMFlag=      100000 FMFlg1=           0
         NFxFlg=           0 DoJE=T BraDBF=F KetDBF=T FulRan=T
         wScrn=  0.000000 ICntrl=       500 IOpCl=  0 I1Cent=   200000004 NGrid=           0
         NMat0=    1 NMatS0=      1 NMatT0=    0 NMatD0=    1 NMtDS0=    0 NMtDT0=    0
 Petite list used in FoFCou.
 Harris En= -1135.87921139828    
 JPrj=0 DoOrth=F DoCkMO=F.
 Initial guess <Sx>= 0.0000 <Sy>= 0.0000 <Sz>= 0.5000 <S**2>= 0.7500 S= 0.5000
 Leave Link  401 at Sun Dec  3 12:26:27 2023, MaxMem=  1879048192 cpu:               4.8 elap:               0.3
 (Enter /home/sekinelabo/g16/l502.exe)
 Keep R1 and R2 ints in memory in canonical form, NReq=506573279.
 FoFCou: FMM=F IPFlag=           0 FMFlag=           0 FMFlg1=           0
         NFxFlg=           0 DoJE=F BraDBF=F KetDBF=F FulRan=T
         wScrn=  0.000000 ICntrl=       600 IOpCl=  0 I1Cent=           0 NGrid=           0
         NMat0=    1 NMatS0=  22155 NMatT0=    0 NMatD0=    1 NMtDS0=    0 NMtDT0=    0
 Symmetry not used in FoFCou.
 Two-electron integral symmetry not used.
 UHF open shell SCF:
 Using DIIS extrapolation, IDIIS=  1040.
 NGot=  1879048192 LenX=  1388082621 LenY=  1388035091
 Requested convergence on RMS density matrix=1.00D-08 within 128 cycles.
 Requested convergence on MAX density matrix=1.00D-06.
 Requested convergence on             energy=1.00D-06.
 No special actions if energy rises.

 Cycle   1  Pass 1  IDiag  1:
 E= -1136.08630887690    
 DIIS: error= 1.10D-02 at cycle   1 NSaved=   1.
 NSaved= 1 IEnMin= 1 EnMin= -1136.08630887690     IErMin= 1 ErrMin= 1.10D-02
 ErrMax= 1.10D-02  0.00D+00 EMaxC= 1.00D-01 BMatC= 1.82D-01 BMatP= 1.82D-01
 IDIUse=3 WtCom= 8.90D-01 WtEn= 1.10D-01
 Coeff-Com:  0.100D+01
 Coeff-En:   0.100D+01
 Coeff:      0.100D+01
 Gap=     0.028 Goal=   None    Shift=    0.000
 Gap=     0.046 Goal=   None    Shift=    0.000
 GapD=    0.028 DampG=0.250 DampE=0.500 DampFc=0.2500 IDamp=-1.
 Damping current iteration by 2.50D-01
 RMSDP=4.82D-03 MaxDP=4.69D-01              OVMax= 1.36D-01

 Cycle   2  Pass 1  IDiag  1:
 E= -1136.09391341255     Delta-E=       -0.007604535646 Rises=F Damp=T
 DIIS: error= 7.67D-03 at cycle   2 NSaved=   2.
 NSaved= 2 IEnMin= 2 EnMin= -1136.09391341255     IErMin= 2 ErrMin= 7.67D-03
 ErrMax= 7.67D-03  0.00D+00 EMaxC= 1.00D-01 BMatC= 7.05D-02 BMatP= 1.82D-01
 IDIUse=3 WtCom= 9.23D-01 WtEn= 7.67D-02
 Coeff-Com: -0.130D+01 0.230D+01
 Coeff-En:   0.000D+00 0.100D+01
 Coeff:     -0.120D+01 0.220D+01
 Gap=     0.034 Goal=   None    Shift=    0.000
 Gap=     0.047 Goal=   None    Shift=    0.000
 RMSDP=4.98D-03 MaxDP=4.74D-01 DE=-7.60D-03 OVMax= 1.38D-01

 Cycle   3  Pass 1  IDiag  1:
 E= -1136.10851353219     Delta-E=       -0.014600119640 Rises=F Damp=F
 DIIS: error= 1.82D-03 at cycle   3 NSaved=   3.
 NSaved= 3 IEnMin= 3 EnMin= -1136.10851353219     IErMin= 3 ErrMin= 1.82D-03
 ErrMax= 1.82D-03  0.00D+00 EMaxC= 1.00D-01 BMatC= 9.26D-04 BMatP= 7.05D-02
 IDIUse=3 WtCom= 9.82D-01 WtEn= 1.82D-02
 Coeff-Com: -0.783D-01 0.140D+00 0.938D+00
 Coeff-En:   0.000D+00 0.000D+00 0.100D+01
 Coeff:     -0.768D-01 0.137D+00 0.939D+00
 Gap=     0.032 Goal=   None    Shift=    0.000
 Gap=     0.048 Goal=   None    Shift=    0.000
 RMSDP=1.48D-03 MaxDP=6.48D-02 DE=-1.46D-02 OVMax= 1.40D-01

 Cycle   4  Pass 1  IDiag  1:
 E= -1136.10557823485     Delta-E=        0.002935297341 Rises=F Damp=F
 DIIS: error= 3.06D-03 at cycle   4 NSaved=   4.
 NSaved= 4 IEnMin= 3 EnMin= -1136.10851353219     IErMin= 3 ErrMin= 1.82D-03
 ErrMax= 3.06D-03  0.00D+00 EMaxC= 1.00D-01 BMatC= 2.73D-03 BMatP= 9.26D-04
 IDIUse=3 WtCom= 1.53D-01 WtEn= 8.47D-01
 Coeff-Com:  0.684D-02-0.941D-02 0.637D+00 0.366D+00
 Coeff-En:   0.000D+00 0.000D+00 0.704D+00 0.296D+00
 Coeff:      0.105D-02-0.144D-02 0.694D+00 0.307D+00
 Gap=     0.033 Goal=   None    Shift=    0.000
 Gap=     0.049 Goal=   None    Shift=    0.000
 RMSDP=8.01D-04 MaxDP=3.84D-02 DE= 2.94D-03 OVMax= 8.56D-02

 Cycle   5  Pass 1  IDiag  1:
 E= -1136.11002159013     Delta-E=       -0.004443355278 Rises=F Damp=F
 DIIS: error= 5.91D-04 at cycle   5 NSaved=   5.
 NSaved= 5 IEnMin= 5 EnMin= -1136.11002159013     IErMin= 5 ErrMin= 5.91D-04
 ErrMax= 5.91D-04  0.00D+00 EMaxC= 1.00D-01 BMatC= 8.38D-05 BMatP= 9.26D-04
 IDIUse=3 WtCom= 9.94D-01 WtEn= 5.91D-03
 Coeff-Com: -0.726D-03-0.966D-04 0.205D+00-0.917D-02 0.805D+00
 Coeff-En:   0.000D+00 0.000D+00 0.000D+00 0.000D+00 0.100D+01
 Coeff:     -0.721D-03-0.960D-04 0.204D+00-0.911D-02 0.806D+00
 Gap=     0.033 Goal=   None    Shift=    0.000
 Gap=     0.048 Goal=   None    Shift=    0.000
 RMSDP=2.20D-04 MaxDP=9.08D-03 DE=-4.44D-03 OVMax= 2.32D-02

 Cycle   6  Pass 1  IDiag  1:
 E= -1136.11018206455     Delta-E=       -0.000160474428 Rises=F Damp=F
 DIIS: error= 2.81D-04 at cycle   6 NSaved=   6.
 NSaved= 6 IEnMin= 6 EnMin= -1136.11018206455     IErMin= 6 ErrMin= 2.81D-04
 ErrMax= 2.81D-04  0.00D+00 EMaxC= 1.00D-01 BMatC= 9.99D-06 BMatP= 8.38D-05
 IDIUse=3 WtCom= 9.97D-01 WtEn= 2.81D-03
 Coeff-Com: -0.329D-02 0.384D-02-0.909D-01-0.111D+00 0.381D+00 0.820D+00
 Coeff-En:   0.000D+00 0.000D+00 0.000D+00 0.000D+00 0.000D+00 0.100D+01
 Coeff:     -0.328D-02 0.383D-02-0.907D-01-0.110D+00 0.380D+00 0.820D+00
 Gap=     0.033 Goal=   None    Shift=    0.000
 Gap=     0.049 Goal=   None    Shift=    0.000
 RMSDP=1.54D-04 MaxDP=7.04D-03 DE=-1.60D-04 OVMax= 1.62D-02

 Cycle   7  Pass 1  IDiag  1:
 E= -1136.11023446012     Delta-E=       -0.000052395561 Rises=F Damp=F
 DIIS: error= 1.54D-04 at cycle   7 NSaved=   7.
 NSaved= 7 IEnMin= 7 EnMin= -1136.11023446012     IErMin= 7 ErrMin= 1.54D-04
 ErrMax= 1.54D-04  0.00D+00 EMaxC= 1.00D-01 BMatC= 3.54D-06 BMatP= 9.99D-06
 IDIUse=3 WtCom= 9.98D-01 WtEn= 1.54D-03
 Coeff-Com: -0.868D-03 0.123D-02-0.107D+00-0.431D-01-0.886D-01 0.283D+00
 Coeff-Com:  0.955D+00
 Coeff-En:   0.000D+00 0.000D+00 0.000D+00 0.000D+00 0.000D+00 0.000D+00
 Coeff-En:   0.100D+01
 Coeff:     -0.867D-03 0.123D-02-0.107D+00-0.430D-01-0.885D-01 0.283D+00
 Coeff:      0.955D+00
 Gap=     0.033 Goal=   None    Shift=    0.000
 Gap=     0.049 Goal=   None    Shift=    0.000
 RMSDP=1.40D-04 MaxDP=4.99D-03 DE=-5.24D-05 OVMax= 1.26D-02

 Cycle   8  Pass 1  IDiag  1:
 E= -1136.11026972108     Delta-E=       -0.000035260965 Rises=F Damp=F
 DIIS: error= 1.22D-04 at cycle   8 NSaved=   8.
 NSaved= 8 IEnMin= 8 EnMin= -1136.11026972108     IErMin= 8 ErrMin= 1.22D-04
 ErrMax= 1.22D-04  0.00D+00 EMaxC= 1.00D-01 BMatC= 1.82D-06 BMatP= 3.54D-06
 IDIUse=3 WtCom= 9.99D-01 WtEn= 1.22D-03
 Coeff-Com:  0.167D-02-0.193D-02-0.276D-01 0.210D-01-0.206D+00-0.230D+00
 Coeff-Com:  0.465D+00 0.978D+00
 Coeff-En:   0.000D+00 0.000D+00 0.000D+00 0.000D+00 0.000D+00 0.000D+00
 Coeff-En:   0.000D+00 0.100D+01
 Coeff:      0.167D-02-0.192D-02-0.276D-01 0.210D-01-0.205D+00-0.230D+00
 Coeff:      0.464D+00 0.978D+00
 Gap=     0.033 Goal=   None    Shift=    0.000
 Gap=     0.049 Goal=   None    Shift=    0.000
 RMSDP=1.34D-04 MaxDP=4.22D-03 DE=-3.53D-05 OVMax= 1.44D-02

 Cycle   9  Pass 1  IDiag  1:
 E= -1136.11029240352     Delta-E=       -0.000022682443 Rises=F Damp=F
 DIIS: error= 5.76D-05 at cycle   9 NSaved=   9.
 NSaved= 9 IEnMin= 9 EnMin= -1136.11029240352     IErMin= 9 ErrMin= 5.76D-05
 ErrMax= 5.76D-05  0.00D+00 EMaxC= 1.00D-01 BMatC= 5.34D-07 BMatP= 1.82D-06
 IDIUse=1 WtCom= 1.00D+00 WtEn= 0.00D+00
 Coeff-Com:  0.805D-03-0.101D-02 0.289D-01 0.173D-01-0.833D-04-0.132D+00
 Coeff-Com: -0.305D+00 0.825D-01 0.131D+01
 Coeff:      0.805D-03-0.101D-02 0.289D-01 0.173D-01-0.833D-04-0.132D+00
 Coeff:     -0.305D+00 0.825D-01 0.131D+01
 Gap=     0.034 Goal=   None    Shift=    0.000
 Gap=     0.049 Goal=   None    Shift=    0.000
 RMSDP=1.13D-04 MaxDP=4.05D-03 DE=-2.27D-05 OVMax= 1.18D-02

 Cycle  10  Pass 1  IDiag  1:
 E= -1136.11030268033     Delta-E=       -0.000010276803 Rises=F Damp=F
 DIIS: error= 2.60D-05 at cycle  10 NSaved=  10.
 NSaved=10 IEnMin=10 EnMin= -1136.11030268033     IErMin=10 ErrMin= 2.60D-05
 ErrMax= 2.60D-05  0.00D+00 EMaxC= 1.00D-01 BMatC= 1.95D-07 BMatP= 5.34D-07
 IDIUse=1 WtCom= 1.00D+00 WtEn= 0.00D+00
 Coeff-Com: -0.673D-03 0.835D-03 0.203D-01-0.292D-02 0.861D-01 0.211D-01
 Coeff-Com: -0.306D+00-0.303D+00 0.548D+00 0.936D+00
 Coeff:     -0.673D-03 0.835D-03 0.203D-01-0.292D-02 0.861D-01 0.211D-01
 Coeff:     -0.306D+00-0.303D+00 0.548D+00 0.936D+00
 Gap=     0.034 Goal=   None    Shift=    0.000
 Gap=     0.049 Goal=   None    Shift=    0.000
 RMSDP=5.59D-05 MaxDP=2.00D-03 DE=-1.03D-05 OVMax= 6.04D-03

 Cycle  11  Pass 1  IDiag  1:
 E= -1136.11030489318     Delta-E=       -0.000002212849 Rises=F Damp=F
 DIIS: error= 1.14D-05 at cycle  11 NSaved=  11.
 NSaved=11 IEnMin=11 EnMin= -1136.11030489318     IErMin=11 ErrMin= 1.14D-05
 ErrMax= 1.14D-05  0.00D+00 EMaxC= 1.00D-01 BMatC= 4.32D-08 BMatP= 1.95D-07
 IDIUse=1 WtCom= 1.00D+00 WtEn= 0.00D+00
 Coeff-Com: -0.746D-03 0.948D-03 0.980D-03-0.868D-02 0.527D-01 0.408D-01
 Coeff-Com: -0.748D-01-0.150D+00-0.951D-01 0.374D+00 0.860D+00
 Coeff:     -0.746D-03 0.948D-03 0.980D-03-0.868D-02 0.527D-01 0.408D-01
 Coeff:     -0.748D-01-0.150D+00-0.951D-01 0.374D+00 0.860D+00
 Gap=     0.034 Goal=   None    Shift=    0.000
 Gap=     0.049 Goal=   None    Shift=    0.000
 RMSDP=2.23D-05 MaxDP=8.38D-04 DE=-2.21D-06 OVMax= 2.37D-03

 Cycle  12  Pass 1  IDiag  1:
 E= -1136.11030519415     Delta-E=       -0.000000300970 Rises=F Damp=F
 DIIS: error= 2.83D-06 at cycle  12 NSaved=  12.
 NSaved=12 IEnMin=12 EnMin= -1136.11030519415     IErMin=12 ErrMin= 2.83D-06
 ErrMax= 2.83D-06  0.00D+00 EMaxC= 1.00D-01 BMatC= 3.21D-09 BMatP= 4.32D-08
 IDIUse=1 WtCom= 1.00D+00 WtEn= 0.00D+00
 Coeff-Com:  0.140D-03-0.183D-03-0.253D-02-0.160D-03-0.780D-02-0.476D-02
 Coeff-Com:  0.319D-01 0.387D-01-0.546D-01-0.118D+00-0.455D-01 0.116D+01
 Coeff:      0.140D-03-0.183D-03-0.253D-02-0.160D-03-0.780D-02-0.476D-02
 Coeff:      0.319D-01 0.387D-01-0.546D-01-0.118D+00-0.455D-01 0.116D+01
 Gap=     0.034 Goal=   None    Shift=    0.000
 Gap=     0.049 Goal=   None    Shift=    0.000
 RMSDP=5.75D-06 MaxDP=2.31D-04 DE=-3.01D-07 OVMax= 6.12D-04

 Cycle  13  Pass 1  IDiag  1:
 E= -1136.11030522353     Delta-E=       -0.000000029387 Rises=F Damp=F
 DIIS: error= 1.48D-06 at cycle  13 NSaved=  13.
 NSaved=13 IEnMin=13 EnMin= -1136.11030522353     IErMin=13 ErrMin= 1.48D-06
 ErrMax= 1.48D-06  0.00D+00 EMaxC= 1.00D-01 BMatC= 9.06D-10 BMatP= 3.21D-09
 IDIUse=1 WtCom= 1.00D+00 WtEn= 0.00D+00
 Coeff-Com:  0.160D-03-0.205D-03-0.512D-03 0.139D-02-0.918D-02-0.657D-02
 Coeff-Com:  0.123D-01 0.279D-01 0.208D-01-0.776D-01-0.183D+00 0.231D+00
 Coeff-Com:  0.984D+00
 Coeff:      0.160D-03-0.205D-03-0.512D-03 0.139D-02-0.918D-02-0.657D-02
 Coeff:      0.123D-01 0.279D-01 0.208D-01-0.776D-01-0.183D+00 0.231D+00
 Coeff:      0.984D+00
 Gap=     0.034 Goal=   None    Shift=    0.000
 Gap=     0.049 Goal=   None    Shift=    0.000
 RMSDP=2.01D-06 MaxDP=8.11D-05 DE=-2.94D-08 OVMax= 2.46D-04

 Cycle  14  Pass 1  IDiag  1:
 E= -1136.11030522975     Delta-E=       -0.000000006220 Rises=F Damp=F
 DIIS: error= 8.36D-07 at cycle  14 NSaved=  14.
 NSaved=14 IEnMin=14 EnMin= -1136.11030522975     IErMin=14 ErrMin= 8.36D-07
 ErrMax= 8.36D-07  0.00D+00 EMaxC= 1.00D-01 BMatC= 2.59D-10 BMatP= 9.06D-10
 IDIUse=1 WtCom= 1.00D+00 WtEn= 0.00D+00
 Coeff-Com: -0.331D-04 0.445D-04 0.662D-03 0.144D-03 0.189D-02 0.553D-03
 Coeff-Com: -0.878D-02-0.798D-02 0.205D-01 0.239D-01-0.179D-01-0.304D+00
 Coeff-Com:  0.215D+00 0.108D+01
 Coeff:     -0.331D-04 0.445D-04 0.662D-03 0.144D-03 0.189D-02 0.553D-03
 Coeff:     -0.878D-02-0.798D-02 0.205D-01 0.239D-01-0.179D-01-0.304D+00
 Coeff:      0.215D+00 0.108D+01
 Gap=     0.034 Goal=   None    Shift=    0.000
 Gap=     0.049 Goal=   None    Shift=    0.000
 RMSDP=1.17D-06 MaxDP=6.54D-05 DE=-6.22D-09 OVMax= 1.56D-04

 Cycle  15  Pass 1  IDiag  1:
 E= -1136.11030523196     Delta-E=       -0.000000002211 Rises=F Damp=F
 DIIS: error= 5.12D-07 at cycle  15 NSaved=  15.
 NSaved=15 IEnMin=15 EnMin= -1136.11030523196     IErMin=15 ErrMin= 5.12D-07
 ErrMax= 5.12D-07  0.00D+00 EMaxC= 1.00D-01 BMatC= 5.03D-11 BMatP= 2.59D-10
 IDIUse=1 WtCom= 1.00D+00 WtEn= 0.00D+00
 Coeff-Com: -0.346D-04 0.447D-04 0.210D-03-0.320D-03 0.233D-02 0.626D-03
 Coeff-Com: -0.306D-02-0.520D-02-0.228D-02 0.128D-01 0.334D-01-0.179D-01
 Coeff-Com: -0.210D+00-0.106D+00 0.130D+01
 Coeff:     -0.346D-04 0.447D-04 0.210D-03-0.320D-03 0.233D-02 0.626D-03
 Coeff:     -0.306D-02-0.520D-02-0.228D-02 0.128D-01 0.334D-01-0.179D-01
 Coeff:     -0.210D+00-0.106D+00 0.130D+01
 Gap=     0.034 Goal=   None    Shift=    0.000
 Gap=     0.049 Goal=   None    Shift=    0.000
 RMSDP=6.11D-07 MaxDP=3.98D-05 DE=-2.21D-09 OVMax= 9.56D-05

 Cycle  16  Pass 1  IDiag  1:
 E= -1136.11030523259     Delta-E=       -0.000000000628 Rises=F Damp=F
 DIIS: error= 3.17D-07 at cycle  16 NSaved=  16.
 NSaved=16 IEnMin=16 EnMin= -1136.11030523259     IErMin=16 ErrMin= 3.17D-07
 ErrMax= 3.17D-07  0.00D+00 EMaxC= 1.00D-01 BMatC= 1.34D-11 BMatP= 5.03D-11
 IDIUse=1 WtCom= 1.00D+00 WtEn= 0.00D+00
 Coeff-Com:  0.129D-04-0.172D-04-0.110D-03 0.645D-05-0.583D-03-0.217D-03
 Coeff-Com:  0.181D-02 0.174D-02-0.260D-02-0.707D-02-0.319D-02 0.833D-01
 Coeff-Com: -0.460D-01-0.266D+00 0.480D-01 0.119D+01
 Coeff:      0.129D-04-0.172D-04-0.110D-03 0.645D-05-0.583D-03-0.217D-03
 Coeff:      0.181D-02 0.174D-02-0.260D-02-0.707D-02-0.319D-02 0.833D-01
 Coeff:     -0.460D-01-0.266D+00 0.480D-01 0.119D+01
 Gap=     0.034 Goal=   None    Shift=    0.000
 Gap=     0.049 Goal=   None    Shift=    0.000
 RMSDP=3.42D-07 MaxDP=1.64D-05 DE=-6.28D-10 OVMax= 5.80D-05

 Cycle  17  Pass 1  IDiag  1:
 E= -1136.11030523276     Delta-E=       -0.000000000173 Rises=F Damp=F
 DIIS: error= 1.76D-07 at cycle  17 NSaved=  17.
 NSaved=17 IEnMin=17 EnMin= -1136.11030523276     IErMin=17 ErrMin= 1.76D-07
 ErrMax= 1.76D-07  0.00D+00 EMaxC= 1.00D-01 BMatC= 4.35D-12 BMatP= 1.34D-11
 IDIUse=1 WtCom= 1.00D+00 WtEn= 0.00D+00
 Coeff-Com:  0.115D-04-0.151D-04-0.738D-04 0.797D-04-0.680D-03-0.208D-03
 Coeff-Com:  0.114D-02 0.160D-02 0.742D-04-0.416D-02-0.886D-02 0.132D-01
 Coeff-Com:  0.561D-01-0.208D-02-0.380D+00 0.183D+00 0.114D+01
 Coeff:      0.115D-04-0.151D-04-0.738D-04 0.797D-04-0.680D-03-0.208D-03
 Coeff:      0.114D-02 0.160D-02 0.742D-04-0.416D-02-0.886D-02 0.132D-01
 Coeff:      0.561D-01-0.208D-02-0.380D+00 0.183D+00 0.114D+01
 Gap=     0.034 Goal=   None    Shift=    0.000
 Gap=     0.049 Goal=   None    Shift=    0.000
 RMSDP=2.22D-07 MaxDP=1.12D-05 DE=-1.73D-10 OVMax= 3.47D-05

 Cycle  18  Pass 1  IDiag  1:
 E= -1136.11030523281     Delta-E=       -0.000000000050 Rises=F Damp=F
 DIIS: error= 1.00D-07 at cycle  18 NSaved=  18.
 NSaved=18 IEnMin=18 EnMin= -1136.11030523281     IErMin=18 ErrMin= 1.00D-07
 ErrMax= 1.00D-07  0.00D+00 EMaxC= 1.00D-01 BMatC= 1.32D-12 BMatP= 4.35D-12
 IDIUse=1 WtCom= 1.00D+00 WtEn= 0.00D+00
 Coeff-Com: -0.398D-05 0.530D-05 0.314D-04-0.436D-05 0.185D-03 0.293D-04
 Coeff-Com: -0.371D-03-0.437D-03 0.259D-03 0.191D-02 0.639D-03-0.173D-01
 Coeff-Com:  0.101D-01 0.566D-01 0.229D-01-0.365D+00-0.299D-02 0.129D+01
 Coeff:     -0.398D-05 0.530D-05 0.314D-04-0.436D-05 0.185D-03 0.293D-04
 Coeff:     -0.371D-03-0.437D-03 0.259D-03 0.191D-02 0.639D-03-0.173D-01
 Coeff:      0.101D-01 0.566D-01 0.229D-01-0.365D+00-0.299D-02 0.129D+01
 Gap=     0.034 Goal=   None    Shift=    0.000
 Gap=     0.049 Goal=   None    Shift=    0.000
 RMSDP=1.52D-07 MaxDP=1.19D-05 DE=-5.00D-11 OVMax= 2.06D-05

 Cycle  19  Pass 1  IDiag  1:
 E= -1136.11030523284     Delta-E=       -0.000000000020 Rises=F Damp=F
 DIIS: error= 5.20D-08 at cycle  19 NSaved=  19.
 NSaved=19 IEnMin=19 EnMin= -1136.11030523284     IErMin=19 ErrMin= 5.20D-08
 ErrMax= 5.20D-08  0.00D+00 EMaxC= 1.00D-01 BMatC= 4.50D-13 BMatP= 1.32D-12
 IDIUse=1 WtCom= 1.00D+00 WtEn= 0.00D+00
 Coeff-Com: -0.396D-05 0.520D-05 0.273D-04-0.347D-04 0.257D-03 0.719D-04
 Coeff-Com: -0.432D-03-0.506D-03-0.662D-04 0.132D-02 0.304D-02-0.165D-02
 Coeff-Com: -0.243D-01 0.364D-03 0.130D+00-0.521D-01-0.423D+00-0.344D-01
 Coeff-Com:  0.140D+01
 Coeff:     -0.396D-05 0.520D-05 0.273D-04-0.347D-04 0.257D-03 0.719D-04
 Coeff:     -0.432D-03-0.506D-03-0.662D-04 0.132D-02 0.304D-02-0.165D-02
 Coeff:     -0.243D-01 0.364D-03 0.130D+00-0.521D-01-0.423D+00-0.344D-01
 Coeff:      0.140D+01
 Gap=     0.034 Goal=   None    Shift=    0.000
 Gap=     0.049 Goal=   None    Shift=    0.000
 RMSDP=1.17D-07 MaxDP=8.83D-06 DE=-2.02D-11 OVMax= 1.39D-05

 Cycle  20  Pass 1  IDiag  1:
 E= -1136.11030523284     Delta-E=       -0.000000000008 Rises=F Damp=F
 DIIS: error= 1.74D-08 at cycle  20 NSaved=  20.
 NSaved=20 IEnMin=20 EnMin= -1136.11030523284     IErMin=20 ErrMin= 1.74D-08
 ErrMax= 1.74D-08  0.00D+00 EMaxC= 1.00D-01 BMatC= 9.42D-14 BMatP= 4.50D-13
 IDIUse=1 WtCom= 1.00D+00 WtEn= 0.00D+00
 Coeff-Com: -0.125D-06 0.148D-06-0.624D-06-0.966D-05 0.274D-04 0.305D-04
 Coeff-Com: -0.251D-04-0.131D-03-0.124D-04-0.270D-04 0.712D-03 0.308D-02
 Coeff-Com: -0.697D-02-0.164D-01 0.260D-01 0.874D-01-0.896D-01-0.362D+00
 Coeff-Com:  0.270D+00 0.109D+01
 Coeff:     -0.125D-06 0.148D-06-0.624D-06-0.966D-05 0.274D-04 0.305D-04
 Coeff:     -0.251D-04-0.131D-03-0.124D-04-0.270D-04 0.712D-03 0.308D-02
 Coeff:     -0.697D-02-0.164D-01 0.260D-01 0.874D-01-0.896D-01-0.362D+00
 Coeff:      0.270D+00 0.109D+01
 Gap=     0.034 Goal=   None    Shift=    0.000
 Gap=     0.049 Goal=   None    Shift=    0.000
 RMSDP=4.95D-08 MaxDP=4.43D-06 DE=-8.41D-12 OVMax= 4.99D-06

 Cycle  21  Pass 1  IDiag  1:
 E= -1136.11030523284     Delta-E=        0.000000000005 Rises=F Damp=F
 DIIS: error= 8.74D-09 at cycle  21 NSaved=  20.
 NSaved=20 IEnMin=19 EnMin= -1136.11030523284     IErMin=20 ErrMin= 8.74D-09
 ErrMax= 8.74D-09  0.00D+00 EMaxC= 1.00D-01 BMatC= 1.25D-14 BMatP= 9.42D-14
 IDIUse=1 WtCom= 1.00D+00 WtEn= 0.00D+00
 Coeff-Com:  0.173D-07-0.230D-05-0.685D-06-0.189D-05 0.914D-05 0.234D-05
 Coeff-Com: -0.285D-04 0.138D-04 0.404D-04-0.473D-05 0.520D-04 0.902D-03
 Coeff-Com: -0.101D-02-0.943D-02 0.215D-01 0.344D-01-0.425D-01-0.186D+00
 Coeff-Com:  0.208D+00 0.974D+00
 Coeff:      0.173D-07-0.230D-05-0.685D-06-0.189D-05 0.914D-05 0.234D-05
 Coeff:     -0.285D-04 0.138D-04 0.404D-04-0.473D-05 0.520D-04 0.902D-03
 Coeff:     -0.101D-02-0.943D-02 0.215D-01 0.344D-01-0.425D-01-0.186D+00
 Coeff:      0.208D+00 0.974D+00
 Gap=     0.034 Goal=   None    Shift=    0.000
 Gap=     0.049 Goal=   None    Shift=    0.000
 RMSDP=1.21D-08 MaxDP=9.98D-07 DE= 5.46D-12 OVMax= 8.37D-07

 Cycle  22  Pass 1  IDiag  1:
 E= -1136.11030523284     Delta-E=       -0.000000000006 Rises=F Damp=F
 DIIS: error= 2.05D-09 at cycle  22 NSaved=  20.
 NSaved=20 IEnMin=20 EnMin= -1136.11030523284     IErMin=20 ErrMin= 2.05D-09
 ErrMax= 2.05D-09  0.00D+00 EMaxC= 1.00D-01 BMatC= 1.22D-15 BMatP= 1.25D-14
 IDIUse=1 WtCom= 1.00D+00 WtEn= 0.00D+00
 Large coefficients: NSaved= 20 BigCof=    0.00 CofMax=   10.00 Det=-4.27D-15
 Inversion failed.  Reducing to 19 matrices.
 Large coefficients: NSaved= 19 BigCof=    0.00 CofMax=   10.00 Det=-4.30D-15
 Inversion failed.  Reducing to 18 matrices.
 Large coefficients: NSaved= 18 BigCof=    0.00 CofMax=   10.00 Det=-4.33D-15
 Inversion failed.  Reducing to 17 matrices.
 Large coefficients: NSaved= 17 BigCof=    0.00 CofMax=   10.00 Det=-4.53D-15
 Inversion failed.  Reducing to 16 matrices.
 Large coefficients: NSaved= 16 BigCof=    0.00 CofMax=   10.00 Det=-4.65D-15
 Inversion failed.  Reducing to 15 matrices.
 Coeff-Com:  0.321D-05-0.387D-05-0.161D-04-0.152D-04 0.642D-04 0.203D-03
 Coeff-Com: -0.630D-04-0.132D-02-0.255D-02 0.762D-02 0.180D-01-0.164D-01
 Coeff-Com: -0.905D-01-0.110D-01 0.110D+01
 Coeff:      0.321D-05-0.387D-05-0.161D-04-0.152D-04 0.642D-04 0.203D-03
 Coeff:     -0.630D-04-0.132D-02-0.255D-02 0.762D-02 0.180D-01-0.164D-01
 Coeff:     -0.905D-01-0.110D-01 0.110D+01
 Gap=     0.034 Goal=   None    Shift=    0.000
 Gap=     0.049 Goal=   None    Shift=    0.000
 RMSDP=3.05D-09 MaxDP=1.47D-07 DE=-6.37D-12 OVMax= 2.35D-07

 SCF Done:  E(UB3LYP) =  -1136.11030523     A.U. after   22 cycles
            NFock= 22  Conv=0.30D-08     -V/T= 2.0029
 <Sx>= 0.0000 <Sy>= 0.0000 <Sz>= 0.5000 <S**2>= 0.8203 S= 0.5345
 <L.S>= 0.000000000000E+00
 KE= 1.132838814045D+03 PE=-3.263460813185D+03 EE= 7.272309974336D+02
 Annihilation of the first spin contaminant:
 S**2 before annihilation     0.8203,   after     0.7527
 Leave Link  502 at Sun Dec  3 12:26:44 2023, MaxMem=  1879048192 cpu:             192.6 elap:              17.5
 (Enter /home/sekinelabo/g16/l601.exe)
 Copying SCF densities to generalized density rwf, IOpCl= 1 IROHF=0.

 **********************************************************************

            Population analysis using the SCF Density.

 **********************************************************************

 Orbital symmetries:
 Alpha Orbitals:
       Occupied  (A) (A) (A) (A) (A) (A) (A) (A) (A) (A) (A) (A)
                 (A) (A) (A) (A) (A) (A) (A) (A) (A) (A) (A) (A)
                 (A) (A) (A) (A) (A) (A) (A) (A) (A) (A) (A) (A)
                 (A) (A) (A)
       Virtual   (A) (A) (A) (A) (A) (A) (A) (A) (A) (A) (A) (A)
                 (A) (A) (A) (A) (A) (A) (A) (A) (A) (A) (A) (A)
                 (A) (A) (A) (A) (A) (A) (A) (A) (A) (A) (A) (A)
                 (A) (A) (A) (A) (A) (A) (A) (A) (A) (A) (A) (A)
                 (A) (A) (A) (A) (A) (A) (A) (A) (A) (A) (A) (A)
                 (A) (A) (A) (A) (A) (A) (A) (A) (A) (A) (A) (A)
                 (A) (A) (A) (A) (A) (A) (A) (A) (A) (A) (A) (A)
                 (A) (A) (A) (A) (A) (A) (A) (A) (A) (A) (A) (A)
                 (A) (A) (A) (A) (A) (A) (A) (A) (A) (A) (A) (A)
                 (A) (A) (A) (A) (A) (A) (A) (A) (A) (A) (A) (A)
                 (A) (A) (A) (A) (A) (A) (A) (A) (A) (A) (A) (A)
                 (A) (A) (A) (A) (A) (A) (A) (A) (A) (A) (A) (A)
                 (A) (A) (A) (A) (A) (A) (A) (A) (A) (A) (A) (A)
                 (A) (A) (A) (A) (A) (A) (A) (A) (A) (A) (A) (A)
                 (A) (A) (A)
 Beta  Orbitals:
       Occupied  (A) (A) (A) (A) (A) (A) (A) (A) (A) (A) (A) (A)
                 (A) (A) (A) (A) (A) (A) (A) (A) (A) (A) (A) (A)
                 (A) (A) (A) (A) (A) (A) (A) (A) (A) (A) (A) (A)
                 (A) (A)
       Virtual   (A) (A) (A) (A) (A) (A) (A) (A) (A) (A) (A) (A)
                 (A) (A) (A) (A) (A) (A) (A) (A) (A) (A) (A) (A)
                 (A) (A) (A) (A) (A) (A) (A) (A) (A) (A) (A) (A)
                 (A) (A) (A) (A) (A) (A) (A) (A) (A) (A) (A) (A)
                 (A) (A) (A) (A) (A) (A) (A) (A) (A) (A) (A) (A)
                 (A) (A) (A) (A) (A) (A) (A) (A) (A) (A) (A) (A)
                 (A) (A) (A) (A) (A) (A) (A) (A) (A) (A) (A) (A)
                 (A) (A) (A) (A) (A) (A) (A) (A) (A) (A) (A) (A)
                 (A) (A) (A) (A) (A) (A) (A) (A) (A) (A) (A) (A)
                 (A) (A) (A) (A) (A) (A) (A) (A) (A) (A) (A) (A)
                 (A) (A) (A) (A) (A) (A) (A) (A) (A) (A) (A) (A)
                 (A) (A) (A) (A) (A) (A) (A) (A) (A) (A) (A) (A)
                 (A) (A) (A) (A) (A) (A) (A) (A) (A) (A) (A) (A)
                 (A) (A) (A) (A) (A) (A) (A) (A) (A) (A) (A) (A)
                 (A) (A) (A) (A)
 The electronic state is 2-A.
 Alpha  occ. eigenvalues --  -38.45510 -38.45222 -38.44455 -38.44329 -38.44198
 Alpha  occ. eigenvalues --  -38.43827 -38.43714  -2.21262  -2.21018  -2.20249
 Alpha  occ. eigenvalues --   -2.20159  -2.20036  -2.19586  -2.19542  -1.14950
 Alpha  occ. eigenvalues --   -1.14933  -1.14865  -1.14713  -1.14688  -1.14660
 Alpha  occ. eigenvalues --   -1.13933  -1.13911  -1.13881  -1.13842  -1.13821
 Alpha  occ. eigenvalues --   -1.13790  -1.13704  -1.13675  -1.13653  -1.13264
 Alpha  occ. eigenvalues --   -1.13247  -1.13229  -1.13189  -1.13183  -1.13175
 Alpha  occ. eigenvalues --   -0.15850  -0.14297  -0.13016  -0.10699
 Alpha virt. eigenvalues --   -0.07341  -0.05214  -0.04427  -0.03320  -0.03200
 Alpha virt. eigenvalues --   -0.02594  -0.02360  -0.01961  -0.01343  -0.00586
 Alpha virt. eigenvalues --   -0.00362  -0.00099   0.00271   0.00463   0.00550
 Alpha virt. eigenvalues --    0.00684   0.00775   0.00955   0.01125   0.01251
 Alpha virt. eigenvalues --    0.01381   0.01522   0.01608   0.01644   0.01778
 Alpha virt. eigenvalues --    0.01902   0.01975   0.02137   0.02277   0.02331
 Alpha virt. eigenvalues --    0.02530   0.02621   0.02724   0.02895   0.02999
 Alpha virt. eigenvalues --    0.03080   0.03144   0.03229   0.03268   0.03353
 Alpha virt. eigenvalues --    0.03446   0.03461   0.03803   0.03973   0.04204
 Alpha virt. eigenvalues --    0.04469   0.04527   0.05007   0.05220   0.05499
 Alpha virt. eigenvalues --    0.05838   0.06194   0.06711   0.06953   0.06993
 Alpha virt. eigenvalues --    0.07330   0.07563   0.07646   0.08054   0.08195
 Alpha virt. eigenvalues --    0.08318   0.08585   0.08826   0.09391   0.09502
 Alpha virt. eigenvalues --    0.09774   0.10196   0.10624   0.10816   0.11435
 Alpha virt. eigenvalues --    0.11939   0.12138   0.12504   0.12937   0.13301
 Alpha virt. eigenvalues --    0.14439   0.14773   0.15233   0.16226   0.16717
 Alpha virt. eigenvalues --    0.27135   0.27971   0.28203   0.29741   0.29843
 Alpha virt. eigenvalues --    0.30838   0.31119   0.31358   0.31969   0.32280
 Alpha virt. eigenvalues --    0.32880   0.33535   0.33785   0.34630   0.35089
 Alpha virt. eigenvalues --    0.36138   0.36796   0.37705   0.38208   0.38770
 Alpha virt. eigenvalues --    0.39246   0.39785   0.41648   0.41828   0.42853
 Alpha virt. eigenvalues --    0.43013   0.43241   0.43391   0.43776   0.44106
 Alpha virt. eigenvalues --    0.44208   0.44446   0.44532   0.45023   0.45378
 Alpha virt. eigenvalues --    0.45471   0.45527   0.46318   0.46949   0.47316
 Alpha virt. eigenvalues --    0.47684   0.48372   0.48849   0.49238   0.50282
 Alpha virt. eigenvalues --    0.50418   0.51090   0.51807   0.52118   0.52767
 Alpha virt. eigenvalues --    0.53644   0.55937   0.58342   0.61421   0.69616
 Alpha virt. eigenvalues --    0.70719   2.02406   2.06723   2.07854   2.11210
 Alpha virt. eigenvalues --    2.12795   2.15071   2.18527   4.41293   4.42186
 Alpha virt. eigenvalues --    4.42698   4.43739   4.43953   4.44119   4.44227
 Alpha virt. eigenvalues --    4.44469   4.45380   4.45682   4.46196   4.46408
 Alpha virt. eigenvalues --    4.46493   4.47060   4.48040   4.48419   4.49290
 Alpha virt. eigenvalues --    4.50122   4.54759   4.63120   4.63615  96.21657
 Alpha virt. eigenvalues --   96.26957  96.28292  96.32465  96.34088  96.37776
 Alpha virt. eigenvalues --   96.41696
  Beta  occ. eigenvalues --  -38.45477 -38.45211 -38.44391 -38.44324 -38.44153
  Beta  occ. eigenvalues --  -38.43822 -38.43659  -2.21204  -2.21003  -2.20157
  Beta  occ. eigenvalues --   -2.20132  -2.19952  -2.19580  -2.19439  -1.14912
  Beta  occ. eigenvalues --   -1.14896  -1.14805  -1.14699  -1.14678  -1.14624
  Beta  occ. eigenvalues --   -1.13867  -1.13839  -1.13831  -1.13821  -1.13802
  Beta  occ. eigenvalues --   -1.13734  -1.13647  -1.13617  -1.13598  -1.13262
  Beta  occ. eigenvalues --   -1.13246  -1.13210  -1.13129  -1.13113  -1.13101
  Beta  occ. eigenvalues --   -0.15338  -0.13659  -0.12401
  Beta virt. eigenvalues --   -0.07478  -0.07295  -0.04817  -0.04149  -0.03000
  Beta virt. eigenvalues --   -0.02771  -0.02353  -0.02188  -0.01739  -0.01151
  Beta virt. eigenvalues --   -0.00359  -0.00133   0.00211   0.00288   0.00488
  Beta virt. eigenvalues --    0.00703   0.00753   0.00906   0.01032   0.01238
  Beta virt. eigenvalues --    0.01315   0.01460   0.01595   0.01651   0.01732
  Beta virt. eigenvalues --    0.01828   0.01952   0.02043   0.02232   0.02334
  Beta virt. eigenvalues --    0.02531   0.02589   0.02704   0.02732   0.02923
  Beta virt. eigenvalues --    0.03085   0.03168   0.03230   0.03306   0.03331
  Beta virt. eigenvalues --    0.03375   0.03475   0.03503   0.03829   0.04049
  Beta virt. eigenvalues --    0.04259   0.04554   0.04642   0.05059   0.05313
  Beta virt. eigenvalues --    0.05573   0.05920   0.06317   0.06759   0.07047
  Beta virt. eigenvalues --    0.07072   0.07405   0.07657   0.07815   0.08120
  Beta virt. eigenvalues --    0.08333   0.08592   0.08685   0.08980   0.09541
  Beta virt. eigenvalues --    0.09723   0.09905   0.10409   0.10730   0.10919
  Beta virt. eigenvalues --    0.11668   0.12102   0.12202   0.12716   0.13085
  Beta virt. eigenvalues --    0.13470   0.14583   0.14875   0.15359   0.16408
  Beta virt. eigenvalues --    0.16960   0.27462   0.28358   0.28587   0.30023
  Beta virt. eigenvalues --    0.30115   0.31077   0.31483   0.31609   0.32253
  Beta virt. eigenvalues --    0.32557   0.32994   0.33749   0.33938   0.34947
  Beta virt. eigenvalues --    0.35322   0.36449   0.37026   0.37903   0.38546
  Beta virt. eigenvalues --    0.39004   0.39447   0.39988   0.41821   0.42086
  Beta virt. eigenvalues --    0.42963   0.43144   0.43345   0.43607   0.43831
  Beta virt. eigenvalues --    0.44155   0.44196   0.44600   0.44721   0.45213
  Beta virt. eigenvalues --    0.45488   0.45519   0.45660   0.46405   0.47145
  Beta virt. eigenvalues --    0.47379   0.47837   0.48492   0.49017   0.49367
  Beta virt. eigenvalues --    0.50345   0.50478   0.51268   0.51948   0.52290
  Beta virt. eigenvalues --    0.52987   0.53874   0.56159   0.58491   0.61654
  Beta virt. eigenvalues --    0.69762   0.70865   2.02519   2.06871   2.07941
  Beta virt. eigenvalues --    2.11422   2.12864   2.15187   2.18634   4.41336
  Beta virt. eigenvalues --    4.42255   4.42739   4.43772   4.43998   4.44156
  Beta virt. eigenvalues --    4.44270   4.44514   4.45456   4.45703   4.46232
  Beta virt. eigenvalues --    4.46459   4.46539   4.47111   4.48085   4.48506
  Beta virt. eigenvalues --    4.49302   4.50180   4.54822   4.63171   4.63664
  Beta virt. eigenvalues --   96.21696  96.27006  96.28324  96.32534  96.34116
  Beta virt. eigenvalues --   96.37815  96.41733
          Condensed to atoms (all electrons):
               1          2          3          4          5          6
     1  Na  11.339827  -0.128741   0.193401  -0.074017  -0.216724  -0.209134
     2  Na  -0.128741  10.926636   0.309293  -0.048816   0.156726  -0.114356
     3  Na   0.193401   0.309293  10.929786  -0.111849  -0.117542  -0.033237
     4  Na  -0.074017  -0.048816  -0.111849  10.913717  -0.209482  -0.021771
     5  Na  -0.216724   0.156726  -0.117542  -0.209482  11.983278  -0.012505
     6  Na  -0.209134  -0.114356  -0.033237  -0.021771  -0.012505  11.023223
     7  Na   0.039287  -0.097698  -0.177196  -0.063303   0.191643   0.290381
               7
     1  Na   0.039287
     2  Na  -0.097698
     3  Na  -0.177196
     4  Na  -0.063303
     5  Na   0.191643
     6  Na   0.290381
     7  Na  10.794820
          Atomic-Atomic Spin Densities.
               1          2          3          4          5          6
     1  Na   0.455713  -0.079986  -0.168439  -0.023789   0.039756  -0.171061
     2  Na  -0.079986   0.239520   0.152525  -0.046029  -0.072884   0.022032
     3  Na  -0.168439   0.152525  -0.005010  -0.013593  -0.004704   0.002112
     4  Na  -0.023789  -0.046029  -0.013593   0.233969   0.026285   0.032306
     5  Na   0.039756  -0.072884  -0.004704   0.026285   0.049584   0.066828
     6  Na  -0.171061   0.022032   0.002112   0.032306   0.066828   0.348648
     7  Na   0.207842  -0.006857   0.022010  -0.021876   0.000943  -0.089836
               7
     1  Na   0.207842
     2  Na  -0.006857
     3  Na   0.022010
     4  Na  -0.021876
     5  Na   0.000943
     6  Na  -0.089836
     7  Na  -0.069595
 Mulliken charges and spin densities:
               1          2
     1  Na   0.056102   0.260036
     2  Na  -0.003043   0.208321
     3  Na   0.007345  -0.015099
     4  Na   0.615521   0.187273
     5  Na  -0.775393   0.105808
     6  Na   0.077401   0.211029
     7  Na   0.022067   0.042632
 Sum of Mulliken charges =  -0.00000   1.00000
 Mulliken charges and spin densities with hydrogens summed into heavy atoms:
               1          2
     1  Na   0.056102   0.260036
     2  Na  -0.003043   0.208321
     3  Na   0.007345  -0.015099
     4  Na   0.615521   0.187273
     5  Na  -0.775393   0.105808
     6  Na   0.077401   0.211029
     7  Na   0.022067   0.042632
 Electronic spatial extent (au):  <R**2>=           4227.1311
 Charge=             -0.0000 electrons
 Dipole moment (field-independent basis, Debye):
    X=             -1.2544    Y=             -0.1974    Z=             -0.1695  Tot=              1.2811
 Quadrupole moment (field-independent basis, Debye-Ang):
   XX=            -58.7926   YY=            -70.5128   ZZ=            -71.0186
   XY=             -0.5698   XZ=              3.0293   YZ=              0.4883
 Traceless Quadrupole moment (field-independent basis, Debye-Ang):
   XX=              7.9820   YY=             -3.7381   ZZ=             -4.2439
   XY=             -0.5698   XZ=              3.0293   YZ=              0.4883
 Octapole moment (field-independent basis, Debye-Ang**2):
  XXX=            -46.2678  YYY=              6.1018  ZZZ=              0.2177  XYY=              6.2568
  XXY=            -17.6333  XXZ=            -21.6689  XZZ=             -7.7441  YZZ=             -0.1948
  YYZ=              5.3934  XYZ=              6.7623
 Hexadecapole moment (field-independent basis, Debye-Ang**3):
 XXXX=          -3571.1685 YYYY=          -2790.3824 ZZZZ=           -365.0838 XXXY=            -74.8480
 XXXZ=             95.2756 YYYX=             51.0423 YYYZ=             64.9978 ZZZX=             13.4379
 ZZZY=             -4.3271 XXYY=          -1100.9117 XXZZ=           -741.2510 YYZZ=           -525.1556
 XXYZ=            -16.0230 YYXZ=              1.1265 ZZXY=             -5.6899
 N-N= 2.672806964737D+02 E-N=-3.263460813343D+03  KE= 1.132838814045D+03
                          Isotropic Fermi Contact Couplings
        Atom                 a.u.       MegaHertz       Gauss      10(-4) cm-1
     1  Na(23)             0.26452     312.93387     111.66259     104.38350
     2  Na(23)             0.11212     132.64183      47.32990      44.24455
     3  Na(23)            -0.00034      -0.39884      -0.14232      -0.13304
     4  Na(23)             0.19863     234.98004      83.84672      78.38090
     5  Na(23)            -0.00892     -10.55824      -3.76744      -3.52185
     6  Na(23)             0.24535     290.25744     103.57107      96.81946
     7  Na(23)            -0.04613     -54.56841     -19.47137     -18.20206
 --------------------------------------------------------
       Center         ----  Spin Dipole Couplings  ----
                      3XX-RR        3YY-RR        3ZZ-RR
 --------------------------------------------------------
     1   Atom        0.005016     -0.000307     -0.004709
     2   Atom       -0.000018      0.010313     -0.010295
     3   Atom        0.012992     -0.006666     -0.006327
     4   Atom       -0.004266      0.002361      0.001904
     5   Atom        0.038983     -0.017665     -0.021318
     6   Atom       -0.002735     -0.001747      0.004483
     7   Atom       -0.020664      0.046811     -0.026146
 --------------------------------------------------------
                        XY            XZ            YZ
 --------------------------------------------------------
     1   Atom       -0.007018      0.002137     -0.001693
     2   Atom        0.016504      0.003343      0.005334
     3   Atom        0.007399      0.007643      0.001514
     4   Atom       -0.003232     -0.000564     -0.001027
     5   Atom       -0.010874     -0.000692      0.001571
     6   Atom       -0.007591     -0.003007     -0.000524
     7   Atom        0.016003     -0.001139     -0.002686
 --------------------------------------------------------


 ---------------------------------------------------------------------------------
              Anisotropic Spin Dipole Couplings in Principal Axis System
 ---------------------------------------------------------------------------------

       Atom             a.u.   MegaHertz   Gauss  10(-4) cm-1        Axes

              Baa    -0.0054    -0.756    -0.270    -0.252  0.2643  0.6164  0.7418
     1 Na(23) Bbb    -0.0050    -0.706    -0.252    -0.235 -0.5255 -0.5529  0.6467
              Bcc     0.0104     1.462     0.522     0.488  0.8087 -0.5607  0.1777
 
              Baa    -0.0124    -1.747    -0.624    -0.583  0.6741 -0.5937  0.4394
     2 Na(23) Bbb    -0.0112    -1.586    -0.566    -0.529 -0.4569  0.1322  0.8797
              Bcc     0.0236     3.333     1.189     1.112  0.5803  0.7937  0.1821
 
              Baa    -0.0099    -1.401    -0.500    -0.467 -0.4204  0.6709  0.6109
     3 Na(23) Bbb    -0.0080    -1.131    -0.404    -0.377 -0.0258 -0.6819  0.7310
              Bcc     0.0179     2.532     0.904     0.845  0.9070  0.2915  0.3039
 
              Baa    -0.0057    -0.804    -0.287    -0.268  0.9160  0.3829  0.1198
     4 Na(23) Bbb     0.0017     0.245     0.087     0.082 -0.2401  0.2838  0.9283
              Bcc     0.0040     0.558     0.199     0.186 -0.3215  0.8791 -0.3519
 
              Baa    -0.0221    -3.128    -1.116    -1.043 -0.0778 -0.4925  0.8669
     5 Na(23) Bbb    -0.0189    -2.664    -0.951    -0.889  0.1659  0.8510  0.4983
              Bcc     0.0410     5.792     2.067     1.932  0.9831 -0.1826 -0.0155
 
              Baa    -0.0103    -1.454    -0.519    -0.485  0.7313  0.6600  0.1722
     6 Na(23) Bbb     0.0035     0.492     0.176     0.164  0.3464 -0.5768  0.7398
              Bcc     0.0068     0.962     0.343     0.321 -0.5876  0.4813  0.6504
 
              Baa    -0.0264    -3.725    -1.329    -1.243  0.2414 -0.0172  0.9703
     7 Na(23) Bbb    -0.0241    -3.409    -1.216    -1.137  0.9452 -0.2223 -0.2391
              Bcc     0.0505     7.134     2.546     2.380  0.2198  0.9748 -0.0374
 

 ---------------------------------------------------------------------------------

 No NMR shielding tensors so no spin-rotation constants.
 Leave Link  601 at Sun Dec  3 12:26:45 2023, MaxMem=  1879048192 cpu:               2.3 elap:               0.2
 (Enter /home/sekinelabo/g16/l701.exe)
 ... and contract with generalized density number  0.
 Compute integral first derivatives.
 Leave Link  701 at Sun Dec  3 12:26:45 2023, MaxMem=  1879048192 cpu:               1.5 elap:               0.1
 (Enter /home/sekinelabo/g16/l702.exe)
 L702 exits ... SP integral derivatives will be done elsewhere.
 Leave Link  702 at Sun Dec  3 12:26:45 2023, MaxMem=  1879048192 cpu:               0.5 elap:               0.0
 (Enter /home/sekinelabo/g16/l703.exe)
 Integral derivatives from FoFJK, PRISM(SPDF).
 Compute integral first derivatives, UseDBF=F ICtDFT=           0.
 Calling FoFJK, ICntrl=      2127 FMM=F ISym2X=0 I1Cent= 0 IOpClX= 1 NMat=1 NMatS=1 NMatT=0.
 FoFJK:  IHMeth= 1 ICntrl=    2127 DoSepK=F KAlg= 0 I1Cent=           0 FoldK=F
 IRaf=         0 NMat=       1 IRICut=       1 DoRegI=T DoRafI=F ISym2E= 0 IDoP0=0 IntGTp=1.
 FoFCou: FMM=F IPFlag=           0 FMFlag=      100000 FMFlg1=         800
         NFxFlg=           0 DoJE=F BraDBF=F KetDBF=F FulRan=T
         wScrn=  0.000000 ICntrl=      2127 IOpCl=  1 I1Cent=           0 NGrid=           0
         NMat0=    1 NMatS0=      1 NMatT0=    0 NMatD0=    1 NMtDS0=    0 NMtDT0=    0
 Symmetry not used in FoFCou.
 Leave Link  703 at Sun Dec  3 12:26:47 2023, MaxMem=  1879048192 cpu:              28.3 elap:               1.9
 (Enter /home/sekinelabo/g16/l716.exe)
 Dipole        =-4.93518217D-01-7.76484729D-02-6.66807595D-02
 ***** Axes restored to original set *****
 -------------------------------------------------------------------
 Center     Atomic                   Forces (Hartrees/Bohr)
 Number     Number              X              Y              Z
 -------------------------------------------------------------------
      1       11           0.001692814    0.001173549    0.001512059
      2       11          -0.003473137    0.001146447   -0.003318481
      3       11           0.001917255   -0.002146808   -0.001084967
      4       11           0.002521619    0.000143334    0.002552400
      5       11          -0.004386728   -0.001912191   -0.000347905
      6       11           0.004260240    0.001090976   -0.000586761
      7       11          -0.002532063    0.000504693    0.001273656
 -------------------------------------------------------------------
 Cartesian Forces:  Max     0.004386728 RMS     0.002228254
 Z-matrix is all fixed cartesians, so copy forces.
 Force constants in Cartesian coordinates: 
                1             2             3             4             5 
      1  0.270129D-01
      2  0.681088D-02  0.942165D-02
      3 -0.545531D-02  0.912246D-02  0.300219D-01
      4 -0.109648D-02  0.677951D-03  0.439439D-03  0.267191D-01
      5 -0.277857D-02  0.178009D-02  0.105656D-02 -0.544746D-02  0.666790D-02
      6 -0.271939D-02  0.154980D-02  0.121064D-02  0.109921D-02 -0.229660D-02
      7 -0.109070D-01 -0.436224D-02 -0.629117D-03 -0.154791D-01  0.610700D-02
      8  0.331692D-03 -0.665033D-02 -0.506201D-02  0.358990D-02 -0.684685D-02
      9  0.581391D-02 -0.367081D-02 -0.855261D-02 -0.295027D-02 -0.785736D-03
     10 -0.175003D-05 -0.128507D-04  0.134906D-04 -0.123272D-01  0.212808D-02
     11 -0.570013D-05 -0.418569D-04  0.439410D-04  0.112145D-02 -0.166345D-02
     12 -0.165924D-05 -0.121840D-04  0.127907D-04  0.514515D-02  0.194903D-02
     13 -0.151815D-05  0.137536D-04 -0.465599D-05  0.218038D-02 -0.712843D-04
     14  0.479043D-05 -0.433987D-04  0.146917D-04  0.644836D-04  0.102257D-03
     15 -0.433314D-05  0.392559D-04 -0.132893D-04 -0.373617D-02  0.121789D-03
     16  0.224362D-02  0.245771D-03  0.130458D-03  0.000000D+00  0.365450D-04
     17  0.221417D-02  0.530444D-03  0.342734D-04  0.000000D+00  0.633660D-05
     18  0.606905D-02  0.654448D-03  0.356294D-03  0.000000D+00 -0.626394D-04
     19 -0.172497D-01 -0.337326D-02  0.550570D-02  0.349848D-05  0.256899D-04
     20 -0.657726D-02 -0.499659D-02 -0.520992D-02 -0.630204D-05 -0.462768D-04
     21 -0.370226D-02 -0.768297D-02 -0.230358D-01  0.239715D-05  0.176026D-04
                6             7             8             9            10 
      6  0.242278D-01
      7  0.337397D-02  0.229799D-01
      8 -0.229984D-02 -0.333920D-02  0.123419D-01
      9 -0.121827D-01 -0.266296D-02  0.832817D-02  0.174075D-01
     10 -0.374306D-02  0.162260D-03 -0.942608D-03  0.327066D-02  0.420459D-01
     11  0.293766D-02 -0.163968D-04  0.830338D-03 -0.188792D-02 -0.138079D-02
     12 -0.978232D-02  0.149958D-03 -0.865898D-03  0.301158D-02  0.828235D-02
     13  0.201612D-02  0.000000D+00  0.000000D+00  0.000000D+00 -0.300983D-01
     14  0.603699D-04 -0.255984D-04 -0.833780D-04 -0.242704D-04  0.430415D-03
     15 -0.345471D-02  0.000000D+00  0.000000D+00  0.000000D+00 -0.780499D-02
     16  0.000000D+00 -0.380909D-05  0.686156D-05 -0.260998D-05  0.233513D-03
     17  0.000000D+00  0.345083D-04 -0.621621D-04  0.236450D-04 -0.267654D-03
     18  0.000000D+00 -0.116821D-04  0.210437D-04 -0.800452D-05  0.226248D-04
     19 -0.269690D-04  0.324767D-02  0.353015D-03 -0.346883D-02 -0.143919D-04
     20  0.485811D-04  0.160192D-02  0.470517D-03 -0.198308D-02  0.454128D-04
     21 -0.184791D-04 -0.220082D-03 -0.121181D-03  0.324345D-03 -0.410778D-04
               11            12            13            14            15 
     11  0.845940D-02
     12 -0.518808D-03  0.179394D-01
     13  0.368442D-02 -0.132121D-01  0.377794D-01
     14 -0.123138D-01 -0.916621D-03 -0.197149D-02  0.253742D-01
     15  0.892290D-03 -0.112182D-01  0.134137D-01  0.283894D-02  0.195125D-01
     16 -0.340049D-02 -0.388380D-03 -0.879938D-02  0.101553D-02 -0.277242D-02
     17  0.472150D-02  0.442322D-03  0.139899D-02 -0.144585D-01 -0.644880D-02
     18 -0.146005D-02 -0.337299D-04  0.583661D-03 -0.324245D-02 -0.721261D-02
     19 -0.249544D-05  0.246682D-04 -0.106066D-02  0.481862D-03  0.904355D-03
     20  0.787422D-05 -0.778393D-04 -0.305473D-02  0.142257D-02  0.255680D-02
     21 -0.712256D-05  0.704089D-04 -0.279679D-02  0.126934D-02  0.238636D-02
               16            17            18            19            20 
     16  0.367569D-01
     17  0.103701D-02  0.155798D-01
     18 -0.652509D-02  0.128816D-01  0.224763D-01
     19 -0.304307D-01 -0.441700D-02 -0.138819D-03  0.455043D-01
     20  0.105876D-02 -0.631741D-02 -0.879191D-02  0.693219D-02  0.945932D-02
     21  0.955792D-02 -0.693303D-02 -0.155781D-01 -0.280010D-02  0.134574D-01
               21 
     21  0.358512D-01
 Leave Link  716 at Sun Dec  3 12:26:47 2023, MaxMem=  1879048192 cpu:               0.4 elap:               0.0
 (Enter /home/sekinelabo/g16/l103.exe)

 GradGradGradGradGradGradGradGradGradGradGradGradGradGradGradGradGradGrad
 Berny optimization.
 Search for a local minimum.
 Step number   1 out of a maximum of    2
 All quantities printed in internal units (Hartrees-Bohrs-Radians)
 Second derivative matrix not updated -- first step.
 ITU=  0
     Eigenvalues ---    0.00043   0.00248   0.00511   0.00805   0.01083
     Eigenvalues ---    0.01334   0.02196   0.02760   0.03058   0.04151
     Eigenvalues ---    0.04433   0.05032   0.07304   0.07817   0.08580
 Quadratic step=4.874D-01 exceeds max=3.000D-01 adjusted using Lamda=-5.067D-03.
 Angle between NR and scaled steps=  20.95 degrees.
 Angle between quadratic step and forces=  39.60 degrees.
 Linear search not attempted -- first point.
 B after Tr=    -0.000000    0.000000    0.000000
         Rot=    1.000000   -0.000000   -0.000000    0.000000 Ang=   0.00 deg.
 Variable       Old X    -DE/DX   Delta X   Delta X   Delta X     New X
                                 (Linear)    (Quad)   (Total)
    X1       17.17814   0.00169   0.00000   0.08796   0.08796  17.26610
    Y1       23.01441   0.00117   0.00000   0.03357   0.03357  23.04797
    Z1       25.78153   0.00151   0.00000   0.06458   0.06458  25.84612
    X2       27.92732  -0.00347   0.00000  -0.10166  -0.10166  27.82565
    Y2       25.38053   0.00115   0.00000  -0.02978  -0.02978  25.35075
    Z2       29.42984  -0.00332   0.00000  -0.13322  -0.13322  29.29662
    X3       21.50338   0.00192   0.00000   0.05826   0.05826  21.56164
    Y3       27.11455  -0.00215   0.00000  -0.04025  -0.04025  27.07429
    Z3       30.24828  -0.00108   0.00000  -0.10501  -0.10501  30.14327
    X4       32.92867   0.00252   0.00000  -0.04090  -0.04090  32.88776
    Y4       25.41908   0.00014   0.00000   0.01331   0.01331  25.43239
    Z4       24.02239   0.00255   0.00000   0.07075   0.07075  24.09313
    X5       27.95358  -0.00439   0.00000  -0.09373  -0.09373  27.85985
    Y5       25.40907  -0.00191   0.00000  -0.04789  -0.04789  25.36118
    Z5       21.11882  -0.00035   0.00000   0.04053   0.04053  21.15935
    X6       23.23532   0.00426   0.00000   0.07731   0.07731  23.31263
    Y6       21.02245   0.00109   0.00000   0.04695   0.04695  21.06940
    Z6       17.92235  -0.00059   0.00000   0.00308   0.00308  17.92543
    X7       17.72856  -0.00253   0.00000   0.01276   0.01276  17.74132
    Y7       21.09482   0.00050   0.00000   0.02410   0.02410  21.11893
    Z7       19.93170   0.00127   0.00000   0.05930   0.05930  19.99100
         Item               Value     Threshold  Converged?
 Maximum Force            0.004387     0.000450     NO 
 RMS     Force            0.002228     0.000300     NO 
 Maximum Displacement     0.133219     0.001800     NO 
 RMS     Displacement     0.065493     0.001200     NO 
 Predicted change in Energy=-1.408796D-03
 GradGradGradGradGradGradGradGradGradGradGradGradGradGradGradGradGradGrad

 Leave Link  103 at Sun Dec  3 12:26:47 2023, MaxMem=  1879048192 cpu:               0.2 elap:               0.0
 (Enter /home/sekinelabo/g16/l9999.exe)
 1\1\GINC-SEKINELABO-XA7R-R37\Force\UB3LYP\6-311+G(d)\Na7(2)\SEKINELABO
 \03-Dec-2023\0\\#P B3LYP/6-311+g(d) force\\DPGEN\\0,2\Na,9.09028,12.17
 87,13.643\Na,14.7785,13.4308,15.5736\Na,11.3791,14.3484,16.0067\Na,17.
 4251,13.4512,12.7121\Na,14.7924,13.4459,11.1756\Na,12.2956,11.1246,9.4
 841\Na,9.38155,11.1629,10.5474\\Version=ES64L-G16RevB.01\State=2-A\HF=
 -1136.1103052\S2=0.820264\S2-1=0.\S2A=0.752736\RMSD=3.048e-09\RMSF=2.2
 28e-03\Dipole=0.4898392,0.0612983,0.1016658\Quadrupole=4.9028188,-3.32
 21065,-1.5807124,0.508634,3.4627479,0.8924479\PG=C01 [X(Na7)]\\@


 IT IS BY LOGIC THAT WE PROVE, BUT BY INTUITION THAT WE DISCOVER.
     -- J.H.POINCARE (1854-1912)
 Job cpu time:       0 days  0 hours  3 minutes 57.7 seconds.
 Elapsed time:       0 days  0 hours  0 minutes 20.6 seconds.
 File lengths (MBytes):  RWF=     32 Int=      0 D2E=      0 Chk=      4 Scr=      1
 Normal termination of Gaussian 16 at Sun Dec  3 12:26:47 2023.
