 Set GAUSS_MDEF to "14GB".
 Entering Gaussian System, Link 0=g16
 Initial command:
 /home/sekinelabo/g16/l1.exe "/home/sekinelabo/g16temp/Gau-1132004.inp" -scrdir="/home/sekinelabo/g16temp/"
 Entering Link 1 = /home/sekinelabo/g16/l1.exe PID=   1132006.
  
 Copyright (c) 1988-2017, Gaussian, Inc.  All Rights Reserved.
  
 This is part of the Gaussian(R) 16 program.  It is based on
 the Gaussian(R) 09 system (copyright 2009, Gaussian, Inc.),
 the Gaussian(R) 03 system (copyright 2003, Gaussian, Inc.),
 the Gaussian(R) 98 system (copyright 1998, Gaussian, Inc.),
 the Gaussian(R) 94 system (copyright 1995, Gaussian, Inc.),
 the Gaussian 92(TM) system (copyright 1992, Gaussian, Inc.),
 the Gaussian 90(TM) system (copyright 1990, Gaussian, Inc.),
 the Gaussian 88(TM) system (copyright 1988, Gaussian, Inc.),
 the Gaussian 86(TM) system (copyright 1986, Carnegie Mellon
 University), and the Gaussian 82(TM) system (copyright 1983,
 Carnegie Mellon University). Gaussian is a federally registered
 trademark of Gaussian, Inc.
  
 This software contains proprietary and confidential information,
 including trade secrets, belonging to Gaussian, Inc.
  
 This software is provided under written license and may be
 used, copied, transmitted, or stored only in accord with that
 written license.
  
 The following legend is applicable only to US Government
 contracts under FAR:
  
                    RESTRICTED RIGHTS LEGEND
  
 Use, reproduction and disclosure by the US Government is
 subject to restrictions as set forth in subparagraphs (a)
 and (c) of the Commercial Computer Software - Restricted
 Rights clause in FAR 52.227-19.
  
 Gaussian, Inc.
 340 Quinnipiac St., Bldg. 40, Wallingford CT 06492
  
  
 ---------------------------------------------------------------
 Warning -- This program may not be used in any manner that
 competes with the business of Gaussian, Inc. or will provide
 assistance to any competitor of Gaussian, Inc.  The licensee
 of this program is prohibited from giving any competitor of
 Gaussian, Inc. access to this program.  By using this program,
 the user acknowledges that Gaussian, Inc. is engaged in the
 business of creating and licensing software in the field of
 computational chemistry and represents and warrants to the
 licensee that it is not a competitor of Gaussian, Inc. and that
 it will not use this program in any manner prohibited above.
 ---------------------------------------------------------------
  

 Cite this work as:
 Gaussian 16, Revision B.01,
 M. J. Frisch, G. W. Trucks, H. B. Schlegel, G. E. Scuseria, 
 M. A. Robb, J. R. Cheeseman, G. Scalmani, V. Barone, 
 G. A. Petersson, H. Nakatsuji, X. Li, M. Caricato, A. V. Marenich, 
 J. Bloino, B. G. Janesko, R. Gomperts, B. Mennucci, H. P. Hratchian, 
 J. V. Ortiz, A. F. Izmaylov, J. L. Sonnenberg, D. Williams-Young, 
 F. Ding, F. Lipparini, F. Egidi, J. Goings, B. Peng, A. Petrone, 
 T. Henderson, D. Ranasinghe, V. G. Zakrzewski, J. Gao, N. Rega, 
 G. Zheng, W. Liang, M. Hada, M. Ehara, K. Toyota, R. Fukuda, 
 J. Hasegawa, M. Ishida, T. Nakajima, Y. Honda, O. Kitao, H. Nakai, 
 T. Vreven, K. Throssell, J. A. Montgomery, Jr., J. E. Peralta, 
 F. Ogliaro, M. J. Bearpark, J. J. Heyd, E. N. Brothers, K. N. Kudin, 
 V. N. Staroverov, T. A. Keith, R. Kobayashi, J. Normand, 
 K. Raghavachari, A. P. Rendell, J. C. Burant, S. S. Iyengar, 
 J. Tomasi, M. Cossi, J. M. Millam, M. Klene, C. Adamo, R. Cammi, 
 J. W. Ochterski, R. L. Martin, K. Morokuma, O. Farkas, 
 J. B. Foresman, and D. J. Fox, Gaussian, Inc., Wallingford CT, 2016.
 
 ******************************************
 Gaussian 16:  ES64L-G16RevB.01 20-Dec-2017
                 7-Dec-2023 
 ******************************************
 %nproc=15
 Will use up to   15 processors via shared memory.
 -------------------------
 #P B3LYP/6-311+g(d) force
 -------------------------
 1/10=7,30=1,38=1/1,3;
 2/12=2,17=6,18=5,40=1/2;
 3/5=4,6=6,7=11,11=2,25=1,30=1,71=1,74=-5/1,2,3;
 4//1;
 5/5=2,38=5/2;
 6/7=2,8=2,9=2,10=2,28=1/1;
 7/29=1/1,2,3,16;
 1/10=7,30=1/3;
 99//99;
 Leave Link    1 at Thu Dec  7 11:00:17 2023, MaxMem=           0 cpu:               0.3 elap:               0.0
 (Enter /home/sekinelabo/g16/l101.exe)
 -----
 DPGEN
 -----
 Symbolic Z-matrix:
 Charge =  0 Multiplicity = 2
 Na                    10.9639   11.4688   13.8299 
 Na                    16.8292   13.0438   12.6739 
 Na                    10.7461   12.2783   10.4527 
 Na                    13.0017   13.1042   15.956 
 Na                    14.0745   12.5449   12.0656 
 Na                    15.0732   15.2938   14.3659 
 Na                    11.6719   14.6266   13.0165 
 
 ITRead=  0  0  0  0  0  0  0
 MicOpt= -1 -1 -1 -1 -1 -1 -1
 NAtoms=      7 NQM=        7 NQMF=       0 NMMI=      0 NMMIF=      0
                NMic=       0 NMicF=      0.
                    Isotopes and Nuclear Properties:
 (Nuclear quadrupole moments (NQMom) in fm**2, nuclear magnetic moments (NMagM)
  in nuclear magnetons)

  Atom         1           2           3           4           5           6           7
 IAtWgt=          23          23          23          23          23          23          23
 AtmWgt=  22.9897697  22.9897697  22.9897697  22.9897697  22.9897697  22.9897697  22.9897697
 NucSpn=           3           3           3           3           3           3           3
 AtZEff=  -0.0000000  -0.0000000  -0.0000000  -0.0000000  -0.0000000  -0.0000000  -0.0000000
 NQMom=   10.4000000  10.4000000  10.4000000  10.4000000  10.4000000  10.4000000  10.4000000
 NMagM=    2.2175200   2.2175200   2.2175200   2.2175200   2.2175200   2.2175200   2.2175200
 AtZNuc=  11.0000000  11.0000000  11.0000000  11.0000000  11.0000000  11.0000000  11.0000000
 Leave Link  101 at Thu Dec  7 11:00:17 2023, MaxMem=  1879048192 cpu:               2.4 elap:               0.2
 (Enter /home/sekinelabo/g16/l103.exe)

 GradGradGradGradGradGradGradGradGradGradGradGradGradGradGradGradGradGrad
 Berny optimization.
 Initialization pass.
 Trust Radius=3.00D-01 FncErr=1.00D-07 GrdErr=1.00D-07 EigMax=2.50D+02 EigMin=1.00D-04
 Number of steps in this run=      2 maximum allowed number of steps=      2.
 GradGradGradGradGradGradGradGradGradGradGradGradGradGradGradGradGradGrad

 Leave Link  103 at Thu Dec  7 11:00:18 2023, MaxMem=  1879048192 cpu:               0.2 elap:               0.0
 (Enter /home/sekinelabo/g16/l202.exe)
                          Input orientation:                          
 ---------------------------------------------------------------------
 Center     Atomic      Atomic             Coordinates (Angstroms)
 Number     Number       Type             X           Y           Z
 ---------------------------------------------------------------------
      1         11           0       10.963900   11.468800   13.829900
      2         11           0       16.829200   13.043800   12.673900
      3         11           0       10.746100   12.278300   10.452700
      4         11           0       13.001700   13.104200   15.956000
      5         11           0       14.074500   12.544900   12.065600
      6         11           0       15.073200   15.293800   14.365900
      7         11           0       11.671900   14.626600   13.016500
 ---------------------------------------------------------------------
                    Distance matrix (angstroms):
                    1          2          3          4          5
     1  Na   0.000000
     2  Na   6.182128   0.000000
     3  Na   3.479685   6.521029   0.000000
     4  Na   3.368600   5.042379   6.004678   0.000000
     5  Na   3.734512   2.864839   3.708203   4.074178   0.000000
     6  Na   5.639527   3.317966   6.567356   3.407914   3.720918
     7  Na   3.336852   5.405587   3.597873   3.567454   3.318158
                    6          7
     6  Na   0.000000
     7  Na   3.719527   0.000000
 Stoichiometry    Na7(2)
 Framework group  C1[X(Na7)]
 Deg. of freedom    15
 Full point group                 C1      NOp   1
 Largest Abelian subgroup         C1      NOp   1
 Largest concise Abelian subgroup C1      NOp   1
                         Standard orientation:                         
 ---------------------------------------------------------------------
 Center     Atomic      Atomic             Coordinates (Angstroms)
 Number     Number       Type             X           Y           Z
 ---------------------------------------------------------------------
      1         11           0        2.326916    1.127150   -1.292805
      2         11           0       -3.044162   -1.894841   -0.805159
      3         11           0        3.352503   -1.705777    0.448143
      4         11           0       -0.682588    2.560331   -0.806655
      5         11           0       -0.227678   -1.475975   -0.490082
      6         11           0       -2.704824    0.711561    1.219792
      7         11           0        0.979833    0.677551    1.726766
 ---------------------------------------------------------------------
 Rotational constants (GHZ):           0.8671468           0.5160811           0.4212519
 Leave Link  202 at Thu Dec  7 11:00:18 2023, MaxMem=  1879048192 cpu:               0.0 elap:               0.0
 (Enter /home/sekinelabo/g16/l301.exe)
 Standard basis: 6-311+G(d) (5D, 7F)
 Ernie: Thresh=  0.10000D-02 Tol=  0.10000D-05 Strict=F.
 There are   217 symmetry adapted cartesian basis functions of A   symmetry.
 There are   210 symmetry adapted basis functions of A   symmetry.
   210 basis functions,   350 primitive gaussians,   217 cartesian basis functions
    39 alpha electrons       38 beta electrons
       nuclear repulsion energy       333.1167780057 Hartrees.
 IExCor=  402 DFT=T Ex+Corr=B3LYP ExCW=0 ScaHFX=  0.200000
 ScaDFX=  0.800000  0.720000  1.000000  0.810000 ScalE2=  1.000000  1.000000
 IRadAn=      5 IRanWt=     -1 IRanGd=            0 ICorTp=0 IEmpDi=  4
 NAtoms=    7 NActive=    7 NUniq=    7 SFac= 1.00D+00 NAtFMM=   60 NAOKFM=F Big=F
 Integral buffers will be    131072 words long.
 Raffenetti 2 integral format.
 Two-electron integral symmetry is turned on.
 Leave Link  301 at Thu Dec  7 11:00:18 2023, MaxMem=  1879048192 cpu:               0.5 elap:               0.0
 (Enter /home/sekinelabo/g16/l302.exe)
 NPDir=0 NMtPBC=     1 NCelOv=     1 NCel=       1 NClECP=     1 NCelD=      1
         NCelK=      1 NCelE2=     1 NClLst=     1 CellRange=     0.0.
 One-electron integrals computed using PRISM.
 One-electron integral symmetry used in STVInt
 NBasis=   210 RedAO= T EigKep=  2.08D-06  NBF=   210
 NBsUse=   210 1.00D-06 EigRej= -1.00D+00 NBFU=   210
 Precomputing XC quadrature grid using
 IXCGrd= 4 IRadAn=           5 IRanWt=          -1 IRanGd=           0 AccXCQ= 0.00D+00.
 Generated NRdTot=       0 NPtTot=           0 NUsed=           0 NTot=          32
 NSgBfM=   210   210   210   210   210 MxSgAt=     7 MxSgA2=     7.
 Leave Link  302 at Thu Dec  7 11:00:18 2023, MaxMem=  1879048192 cpu:               2.0 elap:               0.1
 (Enter /home/sekinelabo/g16/l303.exe)
 DipDrv:  MaxL=1.
 Leave Link  303 at Thu Dec  7 11:00:18 2023, MaxMem=  1879048192 cpu:               0.5 elap:               0.0
 (Enter /home/sekinelabo/g16/l401.exe)
 ExpMin= 7.60D-03 ExpMax= 3.62D+04 ExpMxC= 1.21D+03 IAcc=3 IRadAn=         5 AccDes= 0.00D+00
 Harris functional with IExCor=  402 and IRadAn=       5 diagonalized for initial guess.
 HarFok:  IExCor=  402 AccDes= 0.00D+00 IRadAn=         5 IDoV= 1 UseB2=F ITyADJ=14
 ICtDFT=  3500011 ScaDFX=  1.000000  1.000000  1.000000  1.000000
 FoFCou: FMM=F IPFlag=           0 FMFlag=      100000 FMFlg1=           0
         NFxFlg=           0 DoJE=T BraDBF=F KetDBF=T FulRan=T
         wScrn=  0.000000 ICntrl=       500 IOpCl=  0 I1Cent=   200000004 NGrid=           0
         NMat0=    1 NMatS0=      1 NMatT0=    0 NMatD0=    1 NMtDS0=    0 NMtDT0=    0
 Petite list used in FoFCou.
 Harris En= -1135.89736001909    
 JPrj=0 DoOrth=F DoCkMO=F.
 Initial guess <Sx>= 0.0000 <Sy>= 0.0000 <Sz>= 0.5000 <S**2>= 0.7500 S= 0.5000
 Leave Link  401 at Thu Dec  7 11:00:18 2023, MaxMem=  1879048192 cpu:               4.5 elap:               0.3
 (Enter /home/sekinelabo/g16/l502.exe)
 Keep R1 and R2 ints in memory in canonical form, NReq=506573321.
 FoFCou: FMM=F IPFlag=           0 FMFlag=           0 FMFlg1=           0
         NFxFlg=           0 DoJE=F BraDBF=F KetDBF=F FulRan=T
         wScrn=  0.000000 ICntrl=       600 IOpCl=  0 I1Cent=           0 NGrid=           0
         NMat0=    1 NMatS0=  22155 NMatT0=    0 NMatD0=    1 NMtDS0=    0 NMtDT0=    0
 Symmetry not used in FoFCou.
 Two-electron integral symmetry not used.
 UHF open shell SCF:
 Using DIIS extrapolation, IDIIS=  1040.
 NGot=  1879048192 LenX=  1388082579 LenY=  1388035049
 Requested convergence on RMS density matrix=1.00D-08 within 128 cycles.
 Requested convergence on MAX density matrix=1.00D-06.
 Requested convergence on             energy=1.00D-06.
 No special actions if energy rises.

 Cycle   1  Pass 1  IDiag  1:
 E= -1136.09268732573    
 DIIS: error= 1.12D-02 at cycle   1 NSaved=   1.
 NSaved= 1 IEnMin= 1 EnMin= -1136.09268732573     IErMin= 1 ErrMin= 1.12D-02
 ErrMax= 1.12D-02  0.00D+00 EMaxC= 1.00D-01 BMatC= 1.91D-01 BMatP= 1.91D-01
 IDIUse=3 WtCom= 8.88D-01 WtEn= 1.12D-01
 Coeff-Com:  0.100D+01
 Coeff-En:   0.100D+01
 Coeff:      0.100D+01
 Gap=     0.035 Goal=   None    Shift=    0.000
 Gap=     0.045 Goal=   None    Shift=    0.000
 GapD=    0.035 DampG=0.250 DampE=0.500 DampFc=0.2500 IDamp=-1.
 Damping current iteration by 2.50D-01
 RMSDP=3.64D-02 MaxDP=3.01D+00              OVMax= 2.37D-01

 Cycle   2  Pass 1  IDiag  1:
 E= -1136.10486094676     Delta-E=       -0.012173621037 Rises=F Damp=T
 DIIS: error= 7.90D-03 at cycle   2 NSaved=   2.
 NSaved= 2 IEnMin= 2 EnMin= -1136.10486094676     IErMin= 2 ErrMin= 7.90D-03
 ErrMax= 7.90D-03  0.00D+00 EMaxC= 1.00D-01 BMatC= 7.24D-02 BMatP= 1.91D-01
 IDIUse=3 WtCom= 9.21D-01 WtEn= 7.90D-02
 Coeff-Com: -0.126D+01 0.226D+01
 Coeff-En:   0.000D+00 0.100D+01
 Coeff:     -0.116D+01 0.216D+01
 Gap=     0.045 Goal=   None    Shift=    0.000
 Gap=     0.048 Goal=   None    Shift=    0.000
 RMSDP=1.41D-02 MaxDP=1.05D+00 DE=-1.22D-02 OVMax= 1.72D-01

 Cycle   3  Pass 1  IDiag  1:
 E= -1136.12518321771     Delta-E=       -0.020322270947 Rises=F Damp=F
 DIIS: error= 3.29D-03 at cycle   3 NSaved=   3.
 NSaved= 3 IEnMin= 3 EnMin= -1136.12518321771     IErMin= 3 ErrMin= 3.29D-03
 ErrMax= 3.29D-03  0.00D+00 EMaxC= 1.00D-01 BMatC= 3.15D-03 BMatP= 7.24D-02
 IDIUse=3 WtCom= 9.67D-01 WtEn= 3.29D-02
 Coeff-Com: -0.238D+00 0.420D+00 0.819D+00
 Coeff-En:   0.000D+00 0.000D+00 0.100D+01
 Coeff:     -0.231D+00 0.406D+00 0.825D+00
 Gap=     0.041 Goal=   None    Shift=    0.000
 Gap=     0.045 Goal=   None    Shift=    0.000
 RMSDP=7.20D-03 MaxDP=5.51D-01 DE=-2.03D-02 OVMax= 8.40D-02

 Cycle   4  Pass 1  IDiag  1:
 E= -1136.12504686314     Delta-E=        0.000136354573 Rises=F Damp=F
 DIIS: error= 2.84D-03 at cycle   4 NSaved=   4.
 NSaved= 4 IEnMin= 3 EnMin= -1136.12518321771     IErMin= 4 ErrMin= 2.84D-03
 ErrMax= 2.84D-03  0.00D+00 EMaxC= 1.00D-01 BMatC= 3.14D-03 BMatP= 3.15D-03
 IDIUse=3 WtCom= 9.72D-01 WtEn= 2.84D-02
 Coeff-Com: -0.707D-02 0.100D-01 0.499D+00 0.498D+00
 Coeff-En:   0.000D+00 0.000D+00 0.510D+00 0.490D+00
 Coeff:     -0.687D-02 0.973D-02 0.499D+00 0.498D+00
 Gap=     0.044 Goal=   None    Shift=    0.000
 Gap=     0.046 Goal=   None    Shift=    0.000
 RMSDP=2.16D-03 MaxDP=1.51D-01 DE= 1.36D-04 OVMax= 5.64D-02

 Cycle   5  Pass 1  IDiag  1:
 E= -1136.12775391004     Delta-E=       -0.002707046900 Rises=F Damp=F
 DIIS: error= 7.31D-04 at cycle   5 NSaved=   5.
 NSaved= 5 IEnMin= 5 EnMin= -1136.12775391004     IErMin= 5 ErrMin= 7.31D-04
 ErrMax= 7.31D-04  0.00D+00 EMaxC= 1.00D-01 BMatC= 1.34D-04 BMatP= 3.14D-03
 IDIUse=3 WtCom= 9.93D-01 WtEn= 7.31D-03
 Coeff-Com: -0.294D-02 0.283D-02 0.308D+00 0.319D+00 0.373D+00
 Coeff-En:   0.000D+00 0.000D+00 0.000D+00 0.000D+00 0.100D+01
 Coeff:     -0.292D-02 0.281D-02 0.305D+00 0.317D+00 0.378D+00
 Gap=     0.044 Goal=   None    Shift=    0.000
 Gap=     0.046 Goal=   None    Shift=    0.000
 RMSDP=7.00D-04 MaxDP=4.88D-02 DE=-2.71D-03 OVMax= 1.52D-02

 Cycle   6  Pass 1  IDiag  1:
 E= -1136.12792865481     Delta-E=       -0.000174744773 Rises=F Damp=F
 DIIS: error= 1.15D-04 at cycle   6 NSaved=   6.
 NSaved= 6 IEnMin= 6 EnMin= -1136.12792865481     IErMin= 6 ErrMin= 1.15D-04
 ErrMax= 1.15D-04  0.00D+00 EMaxC= 1.00D-01 BMatC= 5.24D-06 BMatP= 1.34D-04
 IDIUse=3 WtCom= 9.99D-01 WtEn= 1.15D-03
 Coeff-Com: -0.177D-02 0.183D-02-0.352D-01-0.336D-01 0.117D+00 0.951D+00
 Coeff-En:   0.000D+00 0.000D+00 0.000D+00 0.000D+00 0.000D+00 0.100D+01
 Coeff:     -0.177D-02 0.183D-02-0.352D-01-0.336D-01 0.117D+00 0.951D+00
 Gap=     0.044 Goal=   None    Shift=    0.000
 Gap=     0.046 Goal=   None    Shift=    0.000
 RMSDP=4.20D-04 MaxDP=4.37D-02 DE=-1.75D-04 OVMax= 5.48D-03

 Cycle   7  Pass 1  IDiag  1:
 E= -1136.12793910938     Delta-E=       -0.000010454569 Rises=F Damp=F
 DIIS: error= 5.93D-05 at cycle   7 NSaved=   7.
 NSaved= 7 IEnMin= 7 EnMin= -1136.12793910938     IErMin= 7 ErrMin= 5.93D-05
 ErrMax= 5.93D-05  0.00D+00 EMaxC= 1.00D-01 BMatC= 1.54D-06 BMatP= 5.24D-06
 IDIUse=1 WtCom= 1.00D+00 WtEn= 0.00D+00
 Coeff-Com: -0.512D-03 0.498D-03-0.526D-01-0.521D-01 0.205D-01 0.488D+00
 Coeff-Com:  0.597D+00
 Coeff:     -0.512D-03 0.498D-03-0.526D-01-0.521D-01 0.205D-01 0.488D+00
 Coeff:      0.597D+00
 Gap=     0.044 Goal=   None    Shift=    0.000
 Gap=     0.046 Goal=   None    Shift=    0.000
 RMSDP=1.46D-04 MaxDP=1.03D-02 DE=-1.05D-05 OVMax= 2.73D-03

 Cycle   8  Pass 1  IDiag  1:
 E= -1136.12794169332     Delta-E=       -0.000002583936 Rises=F Damp=F
 DIIS: error= 3.15D-05 at cycle   8 NSaved=   8.
 NSaved= 8 IEnMin= 8 EnMin= -1136.12794169332     IErMin= 8 ErrMin= 3.15D-05
 ErrMax= 3.15D-05  0.00D+00 EMaxC= 1.00D-01 BMatC= 3.17D-07 BMatP= 1.54D-06
 IDIUse=1 WtCom= 1.00D+00 WtEn= 0.00D+00
 Coeff-Com:  0.782D-03-0.992D-03-0.101D-01-0.935D-02-0.321D-01-0.118D+00
 Coeff-Com:  0.271D+00 0.899D+00
 Coeff:      0.782D-03-0.992D-03-0.101D-01-0.935D-02-0.321D-01-0.118D+00
 Coeff:      0.271D+00 0.899D+00
 Gap=     0.044 Goal=   None    Shift=    0.000
 Gap=     0.046 Goal=   None    Shift=    0.000
 RMSDP=9.02D-05 MaxDP=5.81D-03 DE=-2.58D-06 OVMax= 1.82D-03

 Cycle   9  Pass 1  IDiag  1:
 E= -1136.12794272050     Delta-E=       -0.000001027186 Rises=F Damp=F
 DIIS: error= 1.36D-05 at cycle   9 NSaved=   9.
 NSaved= 9 IEnMin= 9 EnMin= -1136.12794272050     IErMin= 9 ErrMin= 1.36D-05
 ErrMax= 1.36D-05  0.00D+00 EMaxC= 1.00D-01 BMatC= 4.95D-08 BMatP= 3.17D-07
 IDIUse=1 WtCom= 1.00D+00 WtEn= 0.00D+00
 Coeff-Com:  0.543D-03-0.679D-03 0.348D-02 0.330D-02-0.170D-01-0.959D-01
 Coeff-Com: -0.209D-01 0.252D+00 0.875D+00
 Coeff:      0.543D-03-0.679D-03 0.348D-02 0.330D-02-0.170D-01-0.959D-01
 Coeff:     -0.209D-01 0.252D+00 0.875D+00
 Gap=     0.044 Goal=   None    Shift=    0.000
 Gap=     0.046 Goal=   None    Shift=    0.000
 RMSDP=3.47D-05 MaxDP=1.92D-03 DE=-1.03D-06 OVMax= 8.82D-04

 Cycle  10  Pass 1  IDiag  1:
 E= -1136.12794292681     Delta-E=       -0.000000206308 Rises=F Damp=F
 DIIS: error= 7.05D-06 at cycle  10 NSaved=  10.
 NSaved=10 IEnMin=10 EnMin= -1136.12794292681     IErMin=10 ErrMin= 7.05D-06
 ErrMax= 7.05D-06  0.00D+00 EMaxC= 1.00D-01 BMatC= 2.11D-08 BMatP= 4.95D-08
 IDIUse=1 WtCom= 1.00D+00 WtEn= 0.00D+00
 Coeff-Com:  0.112D-03-0.132D-03 0.421D-02 0.367D-02-0.235D-02-0.227D-01
 Coeff-Com: -0.757D-01-0.670D-01 0.454D+00 0.706D+00
 Coeff:      0.112D-03-0.132D-03 0.421D-02 0.367D-02-0.235D-02-0.227D-01
 Coeff:     -0.757D-01-0.670D-01 0.454D+00 0.706D+00
 Gap=     0.044 Goal=   None    Shift=    0.000
 Gap=     0.046 Goal=   None    Shift=    0.000
 RMSDP=2.24D-05 MaxDP=1.82D-03 DE=-2.06D-07 OVMax= 4.67D-04

 Cycle  11  Pass 1  IDiag  1:
 E= -1136.12794299696     Delta-E=       -0.000000070149 Rises=F Damp=F
 DIIS: error= 3.51D-06 at cycle  11 NSaved=  11.
 NSaved=11 IEnMin=11 EnMin= -1136.12794299696     IErMin=11 ErrMin= 3.51D-06
 ErrMax= 3.51D-06  0.00D+00 EMaxC= 1.00D-01 BMatC= 4.27D-09 BMatP= 2.11D-08
 IDIUse=1 WtCom= 1.00D+00 WtEn= 0.00D+00
 Coeff-Com: -0.204D-03 0.264D-03 0.620D-03 0.365D-03 0.558D-02 0.228D-01
 Coeff-Com: -0.211D-01-0.105D+00-0.178D+00 0.224D+00 0.105D+01
 Coeff:     -0.204D-03 0.264D-03 0.620D-03 0.365D-03 0.558D-02 0.228D-01
 Coeff:     -0.211D-01-0.105D+00-0.178D+00 0.224D+00 0.105D+01
 Gap=     0.044 Goal=   None    Shift=    0.000
 Gap=     0.046 Goal=   None    Shift=    0.000
 RMSDP=1.89D-05 MaxDP=2.33D-03 DE=-7.01D-08 OVMax= 3.90D-04

 Cycle  12  Pass 1  IDiag  1:
 E= -1136.12794302572     Delta-E=       -0.000000028758 Rises=F Damp=F
 DIIS: error= 1.14D-06 at cycle  12 NSaved=  12.
 NSaved=12 IEnMin=12 EnMin= -1136.12794302572     IErMin=12 ErrMin= 1.14D-06
 ErrMax= 1.14D-06  0.00D+00 EMaxC= 1.00D-01 BMatC= 6.02D-10 BMatP= 4.27D-09
 IDIUse=1 WtCom= 1.00D+00 WtEn= 0.00D+00
 Coeff-Com: -0.446D-04 0.537D-04-0.506D-03-0.400D-03 0.123D-02 0.639D-02
 Coeff-Com:  0.881D-02 0.793D-04-0.106D+00-0.112D+00 0.130D+00 0.107D+01
 Coeff:     -0.446D-04 0.537D-04-0.506D-03-0.400D-03 0.123D-02 0.639D-02
 Coeff:      0.881D-02 0.793D-04-0.106D+00-0.112D+00 0.130D+00 0.107D+01
 Gap=     0.044 Goal=   None    Shift=    0.000
 Gap=     0.046 Goal=   None    Shift=    0.000
 RMSDP=8.04D-06 MaxDP=7.95D-04 DE=-2.88D-08 OVMax= 1.69D-04

 Cycle  13  Pass 1  IDiag  1:
 E= -1136.12794303090     Delta-E=       -0.000000005180 Rises=F Damp=F
 DIIS: error= 5.24D-07 at cycle  13 NSaved=  13.
 NSaved=13 IEnMin=13 EnMin= -1136.12794303090     IErMin=13 ErrMin= 5.24D-07
 ErrMax= 5.24D-07  0.00D+00 EMaxC= 1.00D-01 BMatC= 1.34D-10 BMatP= 6.02D-10
 IDIUse=1 WtCom= 1.00D+00 WtEn= 0.00D+00
 Coeff-Com:  0.337D-04-0.445D-04-0.124D-03-0.636D-04-0.724D-03-0.384D-02
 Coeff-Com:  0.579D-02 0.223D-01 0.801D-02-0.658D-01-0.143D+00 0.150D+00
 Coeff-Com:  0.103D+01
 Coeff:      0.337D-04-0.445D-04-0.124D-03-0.636D-04-0.724D-03-0.384D-02
 Coeff:      0.579D-02 0.223D-01 0.801D-02-0.658D-01-0.143D+00 0.150D+00
 Coeff:      0.103D+01
 Gap=     0.044 Goal=   None    Shift=    0.000
 Gap=     0.046 Goal=   None    Shift=    0.000
 RMSDP=3.11D-06 MaxDP=2.22D-04 DE=-5.18D-09 OVMax= 7.73D-05

 Cycle  14  Pass 1  IDiag  1:
 E= -1136.12794303197     Delta-E=       -0.000000001075 Rises=F Damp=F
 DIIS: error= 4.64D-07 at cycle  14 NSaved=  14.
 NSaved=14 IEnMin=14 EnMin= -1136.12794303197     IErMin=14 ErrMin= 4.64D-07
 ErrMax= 4.64D-07  0.00D+00 EMaxC= 1.00D-01 BMatC= 4.32D-11 BMatP= 1.34D-10
 IDIUse=1 WtCom= 1.00D+00 WtEn= 0.00D+00
 Coeff-Com:  0.129D-04-0.161D-04 0.113D-05-0.162D-06-0.350D-03-0.119D-02
 Coeff-Com: -0.714D-03 0.908D-04 0.266D-01 0.173D-01-0.313D-01-0.291D+00
 Coeff-Com:  0.140D+00 0.114D+01
 Coeff:      0.129D-04-0.161D-04 0.113D-05-0.162D-06-0.350D-03-0.119D-02
 Coeff:     -0.714D-03 0.908D-04 0.266D-01 0.173D-01-0.313D-01-0.291D+00
 Coeff:      0.140D+00 0.114D+01
 Gap=     0.044 Goal=   None    Shift=    0.000
 Gap=     0.046 Goal=   None    Shift=    0.000
 RMSDP=1.87D-06 MaxDP=1.26D-04 DE=-1.07D-09 OVMax= 5.55D-05

 Cycle  15  Pass 1  IDiag  1:
 E= -1136.12794303237     Delta-E=       -0.000000000397 Rises=F Damp=F
 DIIS: error= 2.49D-07 at cycle  15 NSaved=  15.
 NSaved=15 IEnMin=15 EnMin= -1136.12794303237     IErMin=15 ErrMin= 2.49D-07
 ErrMax= 2.49D-07  0.00D+00 EMaxC= 1.00D-01 BMatC= 9.51D-12 BMatP= 4.32D-11
 IDIUse=1 WtCom= 1.00D+00 WtEn= 0.00D+00
 Coeff-Com: -0.104D-04 0.139D-04 0.701D-04 0.357D-04 0.262D-03 0.695D-03
 Coeff-Com: -0.119D-02-0.576D-02-0.560D-02 0.146D-01 0.451D-01 0.423D-02
 Coeff-Com: -0.300D+00-0.189D+00 0.144D+01
 Coeff:     -0.104D-04 0.139D-04 0.701D-04 0.357D-04 0.262D-03 0.695D-03
 Coeff:     -0.119D-02-0.576D-02-0.560D-02 0.146D-01 0.451D-01 0.423D-02
 Coeff:     -0.300D+00-0.189D+00 0.144D+01
 Gap=     0.044 Goal=   None    Shift=    0.000
 Gap=     0.046 Goal=   None    Shift=    0.000
 RMSDP=9.49D-07 MaxDP=5.95D-05 DE=-3.97D-10 OVMax= 3.66D-05

 Cycle  16  Pass 1  IDiag  1:
 E= -1136.12794303249     Delta-E=       -0.000000000115 Rises=F Damp=F
 DIIS: error= 1.01D-07 at cycle  16 NSaved=  16.
 NSaved=16 IEnMin=16 EnMin= -1136.12794303249     IErMin=16 ErrMin= 1.01D-07
 ErrMax= 1.01D-07  0.00D+00 EMaxC= 1.00D-01 BMatC= 1.61D-12 BMatP= 9.51D-12
 IDIUse=1 WtCom= 1.00D+00 WtEn= 0.00D+00
 Coeff-Com: -0.283D-05 0.348D-05-0.880D-05-0.163D-05 0.755D-04 0.238D-03
 Coeff-Com:  0.221D-03 0.536D-03-0.472D-02-0.645D-02 0.286D-02 0.607D-01
 Coeff-Com: -0.733D-02-0.173D+00-0.208D+00 0.133D+01
 Coeff:     -0.283D-05 0.348D-05-0.880D-05-0.163D-05 0.755D-04 0.238D-03
 Coeff:      0.221D-03 0.536D-03-0.472D-02-0.645D-02 0.286D-02 0.607D-01
 Coeff:     -0.733D-02-0.173D+00-0.208D+00 0.133D+01
 Gap=     0.044 Goal=   None    Shift=    0.000
 Gap=     0.046 Goal=   None    Shift=    0.000
 RMSDP=4.66D-07 MaxDP=4.43D-05 DE=-1.15D-10 OVMax= 1.68D-05

 Cycle  17  Pass 1  IDiag  1:
 E= -1136.12794303251     Delta-E=       -0.000000000024 Rises=F Damp=F
 DIIS: error= 4.54D-08 at cycle  17 NSaved=  17.
 NSaved=17 IEnMin=17 EnMin= -1136.12794303251     IErMin=17 ErrMin= 4.54D-08
 ErrMax= 4.54D-08  0.00D+00 EMaxC= 1.00D-01 BMatC= 3.32D-13 BMatP= 1.61D-12
 IDIUse=1 WtCom= 1.00D+00 WtEn= 0.00D+00
 Coeff-Com:  0.264D-05-0.353D-05-0.131D-04-0.583D-05-0.569D-04-0.175D-03
 Coeff-Com:  0.274D-03 0.112D-02 0.150D-02-0.282D-02-0.983D-02-0.531D-02
 Coeff-Com:  0.681D-01 0.444D-01-0.299D+00-0.150D-01 0.122D+01
 Coeff:      0.264D-05-0.353D-05-0.131D-04-0.583D-05-0.569D-04-0.175D-03
 Coeff:      0.274D-03 0.112D-02 0.150D-02-0.282D-02-0.983D-02-0.531D-02
 Coeff:      0.681D-01 0.444D-01-0.299D+00-0.150D-01 0.122D+01
 Gap=     0.044 Goal=   None    Shift=    0.000
 Gap=     0.046 Goal=   None    Shift=    0.000
 RMSDP=2.78D-07 MaxDP=2.56D-05 DE=-2.36D-11 OVMax= 6.68D-06

 Cycle  18  Pass 1  IDiag  1:
 E= -1136.12794303252     Delta-E=       -0.000000000016 Rises=F Damp=F
 DIIS: error= 1.74D-08 at cycle  18 NSaved=  18.
 NSaved=18 IEnMin=18 EnMin= -1136.12794303252     IErMin=18 ErrMin= 1.74D-08
 ErrMax= 1.74D-08  0.00D+00 EMaxC= 1.00D-01 BMatC= 7.05D-14 BMatP= 3.32D-13
 IDIUse=1 WtCom= 1.00D+00 WtEn= 0.00D+00
 Coeff-Com:  0.871D-06-0.110D-05 0.268D-05 0.397D-06-0.163D-04-0.690D-04
 Coeff-Com: -0.683D-04-0.246D-03 0.132D-02 0.210D-02-0.609D-03-0.170D-01
 Coeff-Com:  0.264D-02 0.405D-01 0.617D-01-0.354D+00 0.561D-01 0.121D+01
 Coeff:      0.871D-06-0.110D-05 0.268D-05 0.397D-06-0.163D-04-0.690D-04
 Coeff:     -0.683D-04-0.246D-03 0.132D-02 0.210D-02-0.609D-03-0.170D-01
 Coeff:      0.264D-02 0.405D-01 0.617D-01-0.354D+00 0.561D-01 0.121D+01
 Gap=     0.044 Goal=   None    Shift=    0.000
 Gap=     0.046 Goal=   None    Shift=    0.000
 RMSDP=1.28D-07 MaxDP=1.32D-05 DE=-1.59D-11 OVMax= 2.74D-06

 Cycle  19  Pass 1  IDiag  1:
 E= -1136.12794303252     Delta-E=        0.000000000003 Rises=F Damp=F
 DIIS: error= 5.71D-09 at cycle  19 NSaved=  19.
 NSaved=19 IEnMin=18 EnMin= -1136.12794303252     IErMin=19 ErrMin= 5.71D-09
 ErrMax= 5.71D-09  0.00D+00 EMaxC= 1.00D-01 BMatC= 1.05D-14 BMatP= 7.05D-14
 IDIUse=1 WtCom= 1.00D+00 WtEn= 0.00D+00
 Coeff-Com: -0.474D-06 0.637D-06 0.193D-05 0.663D-06 0.621D-05 0.296D-04
 Coeff-Com: -0.347D-04-0.214D-03-0.176D-03 0.593D-03 0.176D-02-0.701D-03
 Coeff-Com: -0.108D-01-0.735D-03 0.449D-01-0.239D-01-0.189D+00 0.159D+00
 Coeff-Com:  0.102D+01
 Coeff:     -0.474D-06 0.637D-06 0.193D-05 0.663D-06 0.621D-05 0.296D-04
 Coeff:     -0.347D-04-0.214D-03-0.176D-03 0.593D-03 0.176D-02-0.701D-03
 Coeff:     -0.108D-01-0.735D-03 0.449D-01-0.239D-01-0.189D+00 0.159D+00
 Coeff:      0.102D+01
 Gap=     0.044 Goal=   None    Shift=    0.000
 Gap=     0.046 Goal=   None    Shift=    0.000
 RMSDP=2.63D-08 MaxDP=1.66D-06 DE= 3.18D-12 OVMax= 7.19D-07

 Cycle  20  Pass 1  IDiag  1:
 E= -1136.12794303252     Delta-E=        0.000000000004 Rises=F Damp=F
 DIIS: error= 2.31D-09 at cycle  20 NSaved=  20.
 NSaved=20 IEnMin=18 EnMin= -1136.12794303252     IErMin=20 ErrMin= 2.31D-09
 ErrMax= 2.31D-09  0.00D+00 EMaxC= 1.00D-01 BMatC= 1.57D-15 BMatP= 1.05D-14
 IDIUse=1 WtCom= 1.00D+00 WtEn= 0.00D+00
 Large coefficients: NSaved= 20 BigCof=    0.00 CofMax=   10.00 Det=-4.48D-15
 Inversion failed.  Reducing to 19 matrices.
 Large coefficients: NSaved= 19 BigCof=    0.00 CofMax=   10.00 Det=-5.26D-15
 Inversion failed.  Reducing to 18 matrices.
 Large coefficients: NSaved= 18 BigCof=    0.00 CofMax=   10.00 Det=-5.30D-15
 Inversion failed.  Reducing to 17 matrices.
 Large coefficients: NSaved= 17 BigCof=    0.00 CofMax=   10.00 Det=-5.30D-15
 Inversion failed.  Reducing to 16 matrices.
 Large coefficients: NSaved= 16 BigCof=    0.00 CofMax=   10.00 Det=-5.54D-15
 Inversion failed.  Reducing to 15 matrices.
 Coeff-Com: -0.297D-05 0.214D-05 0.387D-04-0.377D-04-0.151D-03-0.436D-04
 Coeff-Com:  0.106D-02-0.822D-03-0.205D-02-0.219D-02 0.281D-01-0.809D-02
 Coeff-Com: -0.158D+00 0.892D-01 0.105D+01
 Coeff:     -0.297D-05 0.214D-05 0.387D-04-0.377D-04-0.151D-03-0.436D-04
 Coeff:      0.106D-02-0.822D-03-0.205D-02-0.219D-02 0.281D-01-0.809D-02
 Coeff:     -0.158D+00 0.892D-01 0.105D+01
 Gap=     0.044 Goal=   None    Shift=    0.000
 Gap=     0.046 Goal=   None    Shift=    0.000
 RMSDP=1.32D-08 MaxDP=7.81D-07 DE= 3.64D-12 OVMax= 2.01D-07

 Cycle  21  Pass 1  IDiag  1:
 E= -1136.12794303251     Delta-E=        0.000000000010 Rises=F Damp=F
 DIIS: error= 7.96D-10 at cycle  21 NSaved=  16.
 NSaved=16 IEnMin=13 EnMin= -1136.12794303252     IErMin=16 ErrMin= 7.96D-10
 ErrMax= 7.96D-10  0.00D+00 EMaxC= 1.00D-01 BMatC= 2.15D-16 BMatP= 1.57D-15
 IDIUse=1 WtCom= 1.00D+00 WtEn= 0.00D+00
 Large coefficients: NSaved= 16 BigCof=    0.00 CofMax=   10.00 Det=-6.27D-16
 Inversion failed.  Reducing to 15 matrices.
 Coeff-Com:  0.208D-05 0.135D-04-0.287D-04-0.587D-04-0.710D-04 0.406D-03
 Coeff-Com:  0.528D-03-0.109D-02-0.350D-02 0.910D-02 0.126D-01-0.352D-01
 Coeff-Com: -0.105D+00 0.939D-01 0.103D+01
 Coeff:      0.208D-05 0.135D-04-0.287D-04-0.587D-04-0.710D-04 0.406D-03
 Coeff:      0.528D-03-0.109D-02-0.350D-02 0.910D-02 0.126D-01-0.352D-01
 Coeff:     -0.105D+00 0.939D-01 0.103D+01
 Gap=     0.044 Goal=   None    Shift=    0.000
 Gap=     0.046 Goal=   None    Shift=    0.000
 RMSDP=6.78D-09 MaxDP=6.23D-07 DE= 1.05D-11 OVMax= 6.74D-08

 SCF Done:  E(UB3LYP) =  -1136.12794303     A.U. after   21 cycles
            NFock= 21  Conv=0.68D-08     -V/T= 2.0028
 <Sx>= 0.0000 <Sy>= 0.0000 <Sz>= 0.5000 <S**2>= 0.7684 S= 0.5091
 <L.S>= 0.000000000000E+00
 KE= 1.132953925066D+03 PE=-3.395648753453D+03 EE= 7.934501073488D+02
 Annihilation of the first spin contaminant:
 S**2 before annihilation     0.7684,   after     0.7502
 Leave Link  502 at Thu Dec  7 11:00:36 2023, MaxMem=  1879048192 cpu:             195.8 elap:              17.6
 (Enter /home/sekinelabo/g16/l601.exe)
 Copying SCF densities to generalized density rwf, IOpCl= 1 IROHF=0.

 **********************************************************************

            Population analysis using the SCF Density.

 **********************************************************************

 Orbital symmetries:
 Alpha Orbitals:
       Occupied  (A) (A) (A) (A) (A) (A) (A) (A) (A) (A) (A) (A)
                 (A) (A) (A) (A) (A) (A) (A) (A) (A) (A) (A) (A)
                 (A) (A) (A) (A) (A) (A) (A) (A) (A) (A) (A) (A)
                 (A) (A) (A)
       Virtual   (A) (A) (A) (A) (A) (A) (A) (A) (A) (A) (A) (A)
                 (A) (A) (A) (A) (A) (A) (A) (A) (A) (A) (A) (A)
                 (A) (A) (A) (A) (A) (A) (A) (A) (A) (A) (A) (A)
                 (A) (A) (A) (A) (A) (A) (A) (A) (A) (A) (A) (A)
                 (A) (A) (A) (A) (A) (A) (A) (A) (A) (A) (A) (A)
                 (A) (A) (A) (A) (A) (A) (A) (A) (A) (A) (A) (A)
                 (A) (A) (A) (A) (A) (A) (A) (A) (A) (A) (A) (A)
                 (A) (A) (A) (A) (A) (A) (A) (A) (A) (A) (A) (A)
                 (A) (A) (A) (A) (A) (A) (A) (A) (A) (A) (A) (A)
                 (A) (A) (A) (A) (A) (A) (A) (A) (A) (A) (A) (A)
                 (A) (A) (A) (A) (A) (A) (A) (A) (A) (A) (A) (A)
                 (A) (A) (A) (A) (A) (A) (A) (A) (A) (A) (A) (A)
                 (A) (A) (A) (A) (A) (A) (A) (A) (A) (A) (A) (A)
                 (A) (A) (A) (A) (A) (A) (A) (A) (A) (A) (A) (A)
                 (A) (A) (A)
 Beta  Orbitals:
       Occupied  (A) (A) (A) (A) (A) (A) (A) (A) (A) (A) (A) (A)
                 (A) (A) (A) (A) (A) (A) (A) (A) (A) (A) (A) (A)
                 (A) (A) (A) (A) (A) (A) (A) (A) (A) (A) (A) (A)
                 (A) (A)
       Virtual   (A) (A) (A) (A) (A) (A) (A) (A) (A) (A) (A) (A)
                 (A) (A) (A) (A) (A) (A) (A) (A) (A) (A) (A) (A)
                 (A) (A) (A) (A) (A) (A) (A) (A) (A) (A) (A) (A)
                 (A) (A) (A) (A) (A) (A) (A) (A) (A) (A) (A) (A)
                 (A) (A) (A) (A) (A) (A) (A) (A) (A) (A) (A) (A)
                 (A) (A) (A) (A) (A) (A) (A) (A) (A) (A) (A) (A)
                 (A) (A) (A) (A) (A) (A) (A) (A) (A) (A) (A) (A)
                 (A) (A) (A) (A) (A) (A) (A) (A) (A) (A) (A) (A)
                 (A) (A) (A) (A) (A) (A) (A) (A) (A) (A) (A) (A)
                 (A) (A) (A) (A) (A) (A) (A) (A) (A) (A) (A) (A)
                 (A) (A) (A) (A) (A) (A) (A) (A) (A) (A) (A) (A)
                 (A) (A) (A) (A) (A) (A) (A) (A) (A) (A) (A) (A)
                 (A) (A) (A) (A) (A) (A) (A) (A) (A) (A) (A) (A)
                 (A) (A) (A) (A) (A) (A) (A) (A) (A) (A) (A) (A)
                 (A) (A) (A) (A)
 The electronic state is 2-A.
 Alpha  occ. eigenvalues --  -38.44297 -38.44242 -38.43906 -38.43875 -38.43645
 Alpha  occ. eigenvalues --  -38.43558 -38.43020  -2.20109  -2.20101  -2.19798
 Alpha  occ. eigenvalues --   -2.19790  -2.19582  -2.19439  -2.18873  -1.13779
 Alpha  occ. eigenvalues --   -1.13778  -1.13771  -1.13763  -1.13744  -1.13728
 Alpha  occ. eigenvalues --   -1.13526  -1.13499  -1.13471  -1.13415  -1.13405
 Alpha  occ. eigenvalues --   -1.13397  -1.13363  -1.13263  -1.13231  -1.13063
 Alpha  occ. eigenvalues --   -1.13056  -1.13002  -1.12545  -1.12533  -1.12517
 Alpha  occ. eigenvalues --   -0.18441  -0.13974  -0.11970  -0.10702
 Alpha virt. eigenvalues --   -0.06284  -0.05362  -0.04592  -0.03366  -0.02754
 Alpha virt. eigenvalues --   -0.02191  -0.02041  -0.01232  -0.00581  -0.00080
 Alpha virt. eigenvalues --    0.00112   0.00203   0.00406   0.00576   0.00770
 Alpha virt. eigenvalues --    0.00845   0.00925   0.01058   0.01145   0.01367
 Alpha virt. eigenvalues --    0.01453   0.01606   0.01815   0.01964   0.02019
 Alpha virt. eigenvalues --    0.02264   0.02374   0.02498   0.02649   0.02687
 Alpha virt. eigenvalues --    0.02725   0.02860   0.02862   0.02920   0.03014
 Alpha virt. eigenvalues --    0.03067   0.03294   0.03348   0.03577   0.03746
 Alpha virt. eigenvalues --    0.04050   0.04320   0.04460   0.04556   0.04714
 Alpha virt. eigenvalues --    0.04970   0.05208   0.05359   0.05690   0.05908
 Alpha virt. eigenvalues --    0.06190   0.06247   0.06659   0.06985   0.07189
 Alpha virt. eigenvalues --    0.07327   0.07571   0.07918   0.08364   0.08915
 Alpha virt. eigenvalues --    0.09316   0.09959   0.10601   0.10798   0.11184
 Alpha virt. eigenvalues --    0.11874   0.12030   0.12304   0.12715   0.13145
 Alpha virt. eigenvalues --    0.13407   0.13732   0.13873   0.14416   0.14606
 Alpha virt. eigenvalues --    0.15101   0.15279   0.15507   0.16135   0.18758
 Alpha virt. eigenvalues --    0.25773   0.26525   0.27712   0.28410   0.28900
 Alpha virt. eigenvalues --    0.29135   0.30434   0.31343   0.31991   0.34121
 Alpha virt. eigenvalues --    0.34634   0.34992   0.35870   0.37141   0.37375
 Alpha virt. eigenvalues --    0.38236   0.38654   0.40272   0.41588   0.42818
 Alpha virt. eigenvalues --    0.43013   0.43713   0.44019   0.44500   0.44636
 Alpha virt. eigenvalues --    0.44977   0.45485   0.45802   0.45843   0.45907
 Alpha virt. eigenvalues --    0.46283   0.46802   0.47835   0.48373   0.48828
 Alpha virt. eigenvalues --    0.49375   0.49641   0.49965   0.50988   0.51967
 Alpha virt. eigenvalues --    0.52607   0.52684   0.53838   0.54749   0.55286
 Alpha virt. eigenvalues --    0.57718   0.57939   0.58903   0.59341   0.59853
 Alpha virt. eigenvalues --    0.60732   0.61945   0.63757   0.64948   0.67459
 Alpha virt. eigenvalues --    0.79625   2.03164   2.13309   2.14817   2.19194
 Alpha virt. eigenvalues --    2.20925   2.22545   2.23942   4.43351   4.43911
 Alpha virt. eigenvalues --    4.44207   4.44804   4.44931   4.45380   4.45795
 Alpha virt. eigenvalues --    4.46620   4.46869   4.47374   4.48329   4.48853
 Alpha virt. eigenvalues --    4.49091   4.49599   4.52549   4.53850   4.54640
 Alpha virt. eigenvalues --    4.56644   4.57083   4.58873   4.74468  96.22539
 Alpha virt. eigenvalues --   96.35138  96.36519  96.41776  96.44211  96.45797
 Alpha virt. eigenvalues --   96.48138
  Beta  occ. eigenvalues --  -38.44290 -38.44216 -38.43856 -38.43820 -38.43625
  Beta  occ. eigenvalues --  -38.43542 -38.43007  -2.20097  -2.20054  -2.19708
  Beta  occ. eigenvalues --   -2.19689  -2.19550  -2.19410  -2.18853  -1.13769
  Beta  occ. eigenvalues --   -1.13755  -1.13743  -1.13736  -1.13731  -1.13691
  Beta  occ. eigenvalues --   -1.13466  -1.13431  -1.13401  -1.13374  -1.13343
  Beta  occ. eigenvalues --   -1.13326  -1.13286  -1.13223  -1.13203  -1.13041
  Beta  occ. eigenvalues --   -1.13035  -1.12983  -1.12532  -1.12520  -1.12480
  Beta  occ. eigenvalues --   -0.17816  -0.13771  -0.11600
  Beta virt. eigenvalues --   -0.07010  -0.06125  -0.05252  -0.04096  -0.03024
  Beta virt. eigenvalues --   -0.02205  -0.02059  -0.01380  -0.01034  -0.00251
  Beta virt. eigenvalues --   -0.00021   0.00196   0.00250   0.00558   0.00650
  Beta virt. eigenvalues --    0.00839   0.00908   0.00988   0.01144   0.01297
  Beta virt. eigenvalues --    0.01466   0.01616   0.01691   0.01868   0.02064
  Beta virt. eigenvalues --    0.02155   0.02296   0.02428   0.02543   0.02674
  Beta virt. eigenvalues --    0.02717   0.02747   0.02885   0.02944   0.02976
  Beta virt. eigenvalues --    0.03090   0.03161   0.03356   0.03438   0.03662
  Beta virt. eigenvalues --    0.03802   0.04177   0.04452   0.04604   0.04669
  Beta virt. eigenvalues --    0.04808   0.05195   0.05314   0.05455   0.05774
  Beta virt. eigenvalues --    0.05982   0.06281   0.06434   0.06658   0.07088
  Beta virt. eigenvalues --    0.07303   0.07416   0.07685   0.08016   0.08526
  Beta virt. eigenvalues --    0.09110   0.09462   0.10059   0.10884   0.10948
  Beta virt. eigenvalues --    0.11408   0.12081   0.12384   0.12549   0.12905
  Beta virt. eigenvalues --    0.13315   0.13673   0.13915   0.14133   0.14681
  Beta virt. eigenvalues --    0.14784   0.15224   0.15401   0.15777   0.16508
  Beta virt. eigenvalues --    0.18908   0.25914   0.26760   0.27989   0.28641
  Beta virt. eigenvalues --    0.29208   0.29368   0.30801   0.31547   0.32205
  Beta virt. eigenvalues --    0.34433   0.35001   0.35181   0.36236   0.37312
  Beta virt. eigenvalues --    0.37573   0.38415   0.38877   0.40461   0.41749
  Beta virt. eigenvalues --    0.43067   0.43156   0.43879   0.44171   0.44606
  Beta virt. eigenvalues --    0.44791   0.45140   0.45615   0.45969   0.46000
  Beta virt. eigenvalues --    0.46040   0.46459   0.46967   0.48013   0.48594
  Beta virt. eigenvalues --    0.48981   0.49586   0.49742   0.50099   0.51182
  Beta virt. eigenvalues --    0.52145   0.52745   0.52808   0.54024   0.54874
  Beta virt. eigenvalues --    0.55523   0.57837   0.58131   0.59021   0.59568
  Beta virt. eigenvalues --    0.59956   0.60874   0.62185   0.64000   0.65112
  Beta virt. eigenvalues --    0.67580   0.79669   2.03260   2.13383   2.14867
  Beta virt. eigenvalues --    2.19335   2.21005   2.22676   2.24114   4.43389
  Beta virt. eigenvalues --    4.43957   4.44264   4.44841   4.44979   4.45417
  Beta virt. eigenvalues --    4.45846   4.46650   4.46915   4.47396   4.48379
  Beta virt. eigenvalues --    4.48903   4.49147   4.49662   4.52608   4.53870
  Beta virt. eigenvalues --    4.54696   4.56697   4.57108   4.58929   4.74495
  Beta virt. eigenvalues --   96.22574  96.35164  96.36539  96.41817  96.44242
  Beta virt. eigenvalues --   96.45845  96.48186
          Condensed to atoms (all electrons):
               1          2          3          4          5          6
     1  Na  11.832859  -0.774856   1.195775  -0.015094  -0.341651  -0.412831
     2  Na  -0.774856  13.043682  -1.915682   0.389177  -0.514646   0.005247
     3  Na   1.195775  -1.915682  13.398513  -0.879261  -1.310231  -0.578858
     4  Na  -0.015094   0.389177  -0.879261  11.169035   0.994328   0.287631
     5  Na  -0.341651  -0.514646  -1.310231   0.994328  14.731556   0.632643
     6  Na  -0.412831   0.005247  -0.578858   0.287631   0.632643  11.098286
     7  Na  -0.677833   0.691235  -0.208013  -0.740765  -1.689811  -0.446843
               7
     1  Na  -0.677833
     2  Na   0.691235
     3  Na  -0.208013
     4  Na  -0.740765
     5  Na  -1.689811
     6  Na  -0.446843
     7  Na  14.346744
          Atomic-Atomic Spin Densities.
               1          2          3          4          5          6
     1  Na   0.608032  -0.263743   0.203855   0.240158   0.269202   0.071659
     2  Na  -0.263743   0.278948  -0.150133  -0.112968  -0.216151  -0.018299
     3  Na   0.203855  -0.150133   0.047436   0.056909   0.049731   0.124799
     4  Na   0.240158  -0.112968   0.056909   0.200208   0.389171  -0.044622
     5  Na   0.269202  -0.216151   0.049731   0.389171   0.874811  -0.203232
     6  Na   0.071659  -0.018299   0.124799  -0.044622  -0.203232  -0.043166
     7  Na  -0.926975   0.421009  -0.289133  -0.647168  -0.895340   0.246633
               7
     1  Na  -0.926975
     2  Na   0.421009
     3  Na  -0.289133
     4  Na  -0.647168
     5  Na  -0.895340
     6  Na   0.246633
     7  Na   2.423005
 Mulliken charges and spin densities:
               1          2
     1  Na   0.193630   0.202189
     2  Na   0.075842  -0.061337
     3  Na   1.297757   0.043464
     4  Na  -0.205052   0.081688
     5  Na  -1.502188   0.268193
     6  Na   0.414725   0.133773
     7  Na  -0.274714   0.332031
 Sum of Mulliken charges =  -0.00000   1.00000
 Mulliken charges and spin densities with hydrogens summed into heavy atoms:
               1          2
     1  Na   0.193630   0.202189
     2  Na   0.075842  -0.061337
     3  Na   1.297757   0.043464
     4  Na  -0.205052   0.081688
     5  Na  -1.502188   0.268193
     6  Na   0.414725   0.133773
     7  Na  -0.274714   0.332031
 Electronic spatial extent (au):  <R**2>=           2503.5472
 Charge=             -0.0000 electrons
 Dipole moment (field-independent basis, Debye):
    X=              0.3907    Y=              0.0321    Z=              0.2296  Tot=              0.4543
 Quadrupole moment (field-independent basis, Debye-Ang):
   XX=            -50.7380   YY=            -71.7651   ZZ=            -71.2864
   XY=             -3.9760   XZ=             -0.6515   YZ=             -0.4378
 Traceless Quadrupole moment (field-independent basis, Debye-Ang):
   XX=             13.8585   YY=             -7.1686   ZZ=             -6.6899
   XY=             -3.9760   XZ=             -0.6515   YZ=             -0.4378
 Octapole moment (field-independent basis, Debye-Ang**2):
  XXX=              7.2700  YYY=             -1.3051  ZZZ=              8.0961  XYY=              3.4539
  XXY=            -14.2733  XXZ=              3.3181  XZZ=             -0.1664  YZZ=              5.5609
  YYZ=             -5.8120  XYZ=             -6.6171
 Hexadecapole moment (field-independent basis, Debye-Ang**3):
 XXXX=          -1923.4268 YYYY=          -1396.8887 ZZZZ=           -800.5515 XXXY=            -62.0263
 XXXZ=            -29.9894 YYYX=            -54.1003 YYYZ=            -25.1487 ZZZX=             -7.3824
 ZZZY=              7.2023 XXYY=           -517.0900 XXZZ=           -468.7720 YYZZ=           -374.8424
 XXYZ=              3.4994 YYXZ=             29.4143 ZZXY=              3.4126
 N-N= 3.331167780057D+02 E-N=-3.395648753570D+03  KE= 1.132953925066D+03
                          Isotropic Fermi Contact Couplings
        Atom                 a.u.       MegaHertz       Gauss      10(-4) cm-1
     1  Na(23)             0.19324     228.60598      81.57230      76.25475
     2  Na(23)             0.05974      70.67621      25.21903      23.57505
     3  Na(23)             0.01419      16.78154       5.98807       5.59772
     4  Na(23)             0.00993      11.74587       4.19122       3.91800
     5  Na(23)             0.03193      37.77781      13.48006      12.60132
     6  Na(23)             0.09706     114.82975      40.97411      38.30308
     7  Na(23)             0.20628     244.03141      87.07647      81.40012
 --------------------------------------------------------
       Center         ----  Spin Dipole Couplings  ----
                      3XX-RR        3YY-RR        3ZZ-RR
 --------------------------------------------------------
     1   Atom        0.002176     -0.005887      0.003711
     2   Atom        0.004581     -0.005666      0.001085
     3   Atom       -0.003466     -0.007694      0.011159
     4   Atom        0.000139     -0.016013      0.015874
     5   Atom       -0.016292     -0.020489      0.036781
     6   Atom        0.005780     -0.013299      0.007518
     7   Atom        0.004199     -0.004106     -0.000093
 --------------------------------------------------------
                        XY            XZ            YZ
 --------------------------------------------------------
     1   Atom       -0.004705      0.016218     -0.007150
     2   Atom       -0.000782     -0.007975     -0.000678
     3   Atom       -0.001213     -0.007060      0.002072
     4   Atom       -0.004845     -0.025139      0.005719
     5   Atom        0.002609      0.018274      0.003561
     6   Atom       -0.000608      0.015348      0.005657
     7   Atom        0.000337     -0.010968     -0.008134
 --------------------------------------------------------


 ---------------------------------------------------------------------------------
              Anisotropic Spin Dipole Couplings in Principal Axis System
 ---------------------------------------------------------------------------------

       Atom             a.u.   MegaHertz   Gauss  10(-4) cm-1        Axes

              Baa    -0.0137    -1.935    -0.691    -0.646 -0.6510  0.2603  0.7131
     1 Na(23) Bbb    -0.0080    -1.136    -0.405    -0.379  0.3907  0.9203  0.0208
              Bcc     0.0218     3.072     1.096     1.025  0.6508 -0.2921  0.7008
 
              Baa    -0.0065    -0.922    -0.329    -0.308  0.4117  0.7626  0.4989
     2 Na(23) Bbb    -0.0045    -0.631    -0.225    -0.210 -0.4721  0.6468 -0.5990
              Bcc     0.0110     1.553     0.554     0.518  0.7795 -0.0111 -0.6263
 
              Baa    -0.0080    -1.133    -0.404    -0.378  0.2242  0.9743 -0.0227
     3 Na(23) Bbb    -0.0062    -0.882    -0.315    -0.294  0.8999 -0.1980  0.3886
              Bcc     0.0143     2.015     0.719     0.672 -0.3741  0.1076  0.9211
 
              Baa    -0.0185    -2.615    -0.933    -0.872  0.7861  0.3360  0.5188
     4 Na(23) Bbb    -0.0169    -2.389    -0.852    -0.797 -0.1930  0.9308 -0.3103
              Bcc     0.0354     5.004     1.786     1.669 -0.5871  0.1439  0.7966
 
              Baa    -0.0229    -3.237    -1.155    -1.080  0.8065 -0.5512 -0.2140
     5 Na(23) Bbb    -0.0198    -2.798    -0.999    -0.933  0.5109  0.8317 -0.2173
              Bcc     0.0427     6.035     2.154     2.013  0.2977  0.0659  0.9524
 
              Baa    -0.0162    -2.283    -0.815    -0.762  0.3067  0.8616 -0.4044
     6 Na(23) Bbb    -0.0062    -0.881    -0.314    -0.294  0.6737 -0.4967 -0.5473
              Bcc     0.0224     3.165     1.129     1.056  0.6724  0.1046  0.7327
 
              Baa    -0.0135    -1.912    -0.682    -0.638  0.4187  0.5844  0.6951
     7 Na(23) Bbb    -0.0014    -0.194    -0.069    -0.065 -0.5930  0.7556 -0.2782
              Bcc     0.0149     2.106     0.752     0.703  0.6878  0.2957 -0.6629
 

 ---------------------------------------------------------------------------------

 No NMR shielding tensors so no spin-rotation constants.
 Leave Link  601 at Thu Dec  7 11:00:36 2023, MaxMem=  1879048192 cpu:               2.3 elap:               0.2
 (Enter /home/sekinelabo/g16/l701.exe)
 ... and contract with generalized density number  0.
 Compute integral first derivatives.
 Leave Link  701 at Thu Dec  7 11:00:36 2023, MaxMem=  1879048192 cpu:               1.5 elap:               0.1
 (Enter /home/sekinelabo/g16/l702.exe)
 L702 exits ... SP integral derivatives will be done elsewhere.
 Leave Link  702 at Thu Dec  7 11:00:36 2023, MaxMem=  1879048192 cpu:               0.5 elap:               0.0
 (Enter /home/sekinelabo/g16/l703.exe)
 Integral derivatives from FoFJK, PRISM(SPDF).
 Compute integral first derivatives, UseDBF=F ICtDFT=           0.
 Calling FoFJK, ICntrl=      2127 FMM=F ISym2X=0 I1Cent= 0 IOpClX= 1 NMat=1 NMatS=1 NMatT=0.
 FoFJK:  IHMeth= 1 ICntrl=    2127 DoSepK=F KAlg= 0 I1Cent=           0 FoldK=F
 IRaf=         0 NMat=       1 IRICut=       1 DoRegI=T DoRafI=F ISym2E= 0 IDoP0=0 IntGTp=1.
 FoFCou: FMM=F IPFlag=           0 FMFlag=      100000 FMFlg1=         800
         NFxFlg=           0 DoJE=F BraDBF=F KetDBF=F FulRan=T
         wScrn=  0.000000 ICntrl=      2127 IOpCl=  1 I1Cent=           0 NGrid=           0
         NMat0=    1 NMatS0=      1 NMatT0=    0 NMatD0=    1 NMtDS0=    0 NMtDT0=    0
 Symmetry not used in FoFCou.
 Leave Link  703 at Thu Dec  7 11:00:39 2023, MaxMem=  1879048192 cpu:              33.2 elap:               2.2
 (Enter /home/sekinelabo/g16/l716.exe)
 Dipole        = 1.53701433D-01 1.26108838D-02 9.03211306D-02
 ***** Axes restored to original set *****
 -------------------------------------------------------------------
 Center     Atomic                   Forces (Hartrees/Bohr)
 Number     Number              X              Y              Z
 -------------------------------------------------------------------
      1       11           0.000595389   -0.001708586    0.001010378
      2       11           0.008696908   -0.000314850    0.000248948
      3       11           0.002277087    0.001248605    0.000524631
      4       11          -0.001153111    0.000064599    0.000346496
      5       11          -0.007071897   -0.002726283   -0.002399321
      6       11          -0.002966920    0.000452309   -0.001111626
      7       11          -0.000377455    0.002984205    0.001380494
 -------------------------------------------------------------------
 Cartesian Forces:  Max     0.008696908 RMS     0.002869901
 Z-matrix is all fixed cartesians, so copy forces.
 Force constants in Cartesian coordinates: 
                1             2             3             4             5 
      1  0.697867D-01
      2  0.285528D-01  0.795952D-01
      3 -0.148516D-03 -0.128901D-01  0.798753D-01
      4 -0.471323D-03 -0.532168D-03 -0.110676D-02  0.719294D-01
      5 -0.199525D-02  0.370989D-02 -0.120172D-02 -0.451634D-02  0.498858D-01
      6  0.360051D-02 -0.457003D-03  0.604903D-02 -0.475447D-02  0.142892D-01
      7 -0.111259D-01 -0.956118D-02  0.991726D-02  0.101223D-02 -0.973115D-03
      8 -0.331658D-02 -0.116680D-01  0.177076D-01 -0.222485D-02  0.115701D-01
      9 -0.107863D-01 -0.361492D-02 -0.252058D-01 -0.171788D-02  0.109348D-03
     10 -0.189371D-01 -0.845811D-02 -0.143028D-01 -0.290433D-02 -0.189552D-02
     11 -0.153902D-01 -0.186623D-01 -0.120552D-01  0.211728D-02  0.563959D-02
     12  0.101759D-01  0.146410D-01 -0.281188D-01  0.124025D-02  0.188400D-02
     13 -0.220532D-01  0.988950D-02  0.598853D-02 -0.489350D-01 -0.972707D-02
     14 -0.130721D-01 -0.173034D-01  0.758110D-02  0.105870D-01 -0.563793D-01
     15  0.180247D-02 -0.766526D-02 -0.259586D-01  0.840721D-02 -0.608389D-02
     16 -0.387334D-03 -0.571616D-02 -0.789183D-03 -0.175247D-01  0.145323D-01
     17 -0.687758D-02 -0.331273D-03 -0.189368D-02 -0.781812D-02 -0.214642D-01
     18 -0.194164D-03 -0.478148D-03  0.806355D-02 -0.377998D-02 -0.102477D-01
     19 -0.168118D-01 -0.141747D-01  0.441420D-03 -0.310623D-02  0.457496D-02
     20  0.120989D-01 -0.353402D-01  0.275190D-02  0.238717D-02  0.703816D-02
     21 -0.444996D-02  0.104644D-01 -0.147047D-01  0.171163D-02  0.125071D-02
                6             7             8             9            10 
      6  0.485089D-01
      7 -0.379087D-02  0.422863D-01
      8  0.559963D-03  0.243300D-02  0.444733D-01
      9  0.771548D-02  0.747471D-02  0.512252D-02  0.615301D-01
     10  0.737694D-02  0.467271D-02  0.374842D-03 -0.472319D-02  0.573865D-01
     11 -0.175669D-02  0.232043D-03  0.845735D-02 -0.251917D-02  0.117131D-01
     12  0.442468D-03 -0.404167D-02 -0.184902D-02 -0.316418D-02  0.410583D-02
     13 -0.139158D-01 -0.268716D-01  0.123830D-01  0.186630D-01 -0.140283D-01
     14 -0.807928D-02  0.334186D-03 -0.349227D-01 -0.459280D-02  0.901617D-03
     15 -0.564116D-01 -0.994267D-02  0.112950D-02 -0.263613D-01  0.838667D-02
     16  0.107531D-01  0.347080D-02 -0.419628D-02 -0.266581D-02 -0.139437D-01
     17 -0.646171D-02 -0.396838D-02  0.533908D-02  0.447719D-03 -0.753936D-02
     18 -0.125431D-01 -0.346629D-02 -0.267767D-02  0.129491D-02  0.135513D-01
     19  0.730577D-03 -0.134445D-01 -0.545318D-02 -0.624455D-02 -0.122458D-01
     20  0.190551D-02  0.115034D-01 -0.232491D-01  0.504730D-02  0.490340D-02
     21  0.623880D-02  0.384953D-02 -0.199929D-01 -0.158091D-01 -0.143948D-01
               11            12            13            14            15 
     11  0.579248D-01
     12 -0.741661D-02  0.955404D-01
     13  0.271526D-02 -0.574590D-02  0.158642D+00
     14 -0.884204D-02  0.578308D-02 -0.126061D-01  0.179474D+00
     15 -0.101608D-01 -0.206704D-01 -0.917430D-02  0.203418D-01  0.175227D+00
     16 -0.747232D-02 -0.892792D-02 -0.165978D-01  0.362084D-02  0.654222D-02
     17 -0.230474D-01 -0.880121D-02 -0.500323D-02 -0.256166D-01 -0.734581D-03
     18  0.159117D-01 -0.230950D-01 -0.405513D-02 -0.820430D-02 -0.200718D-01
     19  0.608482D-02  0.319350D-02 -0.301563D-01  0.102346D-01 -0.602160D-02
     20 -0.214701D-01 -0.424123D-02  0.234864D-02 -0.364100D-01  0.317325D-02
     21  0.179967D-01 -0.209345D-01  0.823962D-02 -0.128296D-01 -0.257536D-01
               16            17            18            19            20 
     16  0.677253D-01
     17  0.119295D-01  0.833651D-01
     18 -0.701292D-03  0.139692D-01  0.619987D-01
     19 -0.227426D-01  0.192771D-01 -0.135447D-02  0.985072D-01
     20 -0.126980D-01 -0.182447D-01 -0.827315D-02 -0.205436D-01  0.127676D+00
     21 -0.421113D-02  0.347425D-02 -0.156472D-01  0.925512D-02 -0.363584D-03
               21 
     21  0.866104D-01
 Leave Link  716 at Thu Dec  7 11:00:39 2023, MaxMem=  1879048192 cpu:               0.4 elap:               0.0
 (Enter /home/sekinelabo/g16/l103.exe)

 GradGradGradGradGradGradGradGradGradGradGradGradGradGradGradGradGradGrad
 Berny optimization.
 Search for a local minimum.
 Step number   1 out of a maximum of    2
 All quantities printed in internal units (Hartrees-Bohrs-Radians)
 Second derivative matrix not updated -- first step.
 ITU=  0
     Eigenvalues ---    0.04159   0.04535   0.05389   0.06607   0.07348
     Eigenvalues ---    0.09546   0.09875   0.11035   0.12003   0.12696
     Eigenvalues ---    0.14923   0.15900   0.19385   0.19973   0.24801
 Angle between quadratic step and forces=  26.47 degrees.
 Linear search not attempted -- first point.
 B after Tr=    -0.000000   -0.000000    0.000000
         Rot=    1.000000    0.000000   -0.000000    0.000000 Ang=   0.00 deg.
 Variable       Old X    -DE/DX   Delta X   Delta X   Delta X     New X
                                 (Linear)    (Quad)   (Total)
    X1       20.71877   0.00060   0.00000  -0.00219  -0.00219  20.71658
    Y1       21.67289  -0.00171   0.00000  -0.01925  -0.01925  21.65364
    Z1       26.13472   0.00101   0.00000   0.00935   0.00935  26.14407
    X2       31.80258   0.00870   0.00000   0.09472   0.09472  31.89730
    Y2       24.64921  -0.00031   0.00000  -0.01745  -0.01745  24.63176
    Z2       23.95020   0.00025   0.00000  -0.00752  -0.00752  23.94268
    X3       20.30719   0.00228   0.00000   0.01158   0.01158  20.31876
    Y3       23.20262   0.00125   0.00000   0.02525   0.02525  23.22787
    Z3       19.75274   0.00052   0.00000   0.01089   0.01089  19.76363
    X4       24.56965  -0.00115   0.00000  -0.02432  -0.02432  24.54534
    Y4       24.76335   0.00006   0.00000   0.00230   0.00230  24.76565
    Z4       30.15247   0.00035   0.00000   0.00588   0.00588  30.15835
    X5       26.59695  -0.00707   0.00000  -0.03003  -0.03003  26.56692
    Y5       23.70643  -0.00273   0.00000  -0.01762  -0.01762  23.68881
    Z5       22.80068  -0.00240   0.00000  -0.01566  -0.01566  22.78502
    X6       28.48422  -0.00297   0.00000  -0.02972  -0.02972  28.45450
    Y6       28.90109   0.00045   0.00000   0.01426   0.01426  28.91535
    Z6       27.14762  -0.00111   0.00000  -0.01813  -0.01813  27.12949
    X7       22.05669  -0.00038   0.00000  -0.02005  -0.02005  22.03665
    Y7       27.64027   0.00298   0.00000   0.01250   0.01250  27.65277
    Z7       24.59762   0.00138   0.00000   0.01518   0.01518  24.61280
         Item               Value     Threshold  Converged?
 Maximum Force            0.008697     0.000450     NO 
 RMS     Force            0.002870     0.000300     NO 
 Maximum Displacement     0.094717     0.001800     NO 
 RMS     Displacement     0.026706     0.001200     NO 
 Predicted change in Energy=-7.203850D-04
 GradGradGradGradGradGradGradGradGradGradGradGradGradGradGradGradGradGrad

 Leave Link  103 at Thu Dec  7 11:00:39 2023, MaxMem=  1879048192 cpu:               0.2 elap:               0.0
 (Enter /home/sekinelabo/g16/l9999.exe)
 1\1\GINC-SEKINELABO-XA7R-R37\Force\UB3LYP\6-311+G(d)\Na7(2)\SEKINELABO
 \07-Dec-2023\0\\#P B3LYP/6-311+g(d) force\\DPGEN\\0,2\Na,10.9639,11.46
 88,13.8299\Na,16.8292,13.0438,12.6739\Na,10.7461,12.2783,10.4527\Na,13
 .0017,13.1042,15.956\Na,14.0745,12.5449,12.0656\Na,15.0732,15.2938,14.
 3659\Na,11.6719,14.6266,13.0165\\Version=ES64L-G16RevB.01\State=2-A\HF
 =-1136.127943\S2=0.768366\S2-1=0.\S2A=0.750212\RMSD=6.779e-09\RMSF=2.8
 70e-03\Dipole=-0.1626613,0.0393122,-0.0627449\Quadrupole=4.9552717,-3.
 0414252,-1.9138465,4.8626933,6.4137128,2.2838495\PG=C01 [X(Na7)]\\@


 PERICLES, SOPHOCLES,
 PELOPONESIAN WAR,
 FRENCH VERBS, LATIN VERBS
 H2SO4.
 Job cpu time:       0 days  0 hours  4 minutes  5.2 seconds.
 Elapsed time:       0 days  0 hours  0 minutes 20.9 seconds.
 File lengths (MBytes):  RWF=     32 Int=      0 D2E=      0 Chk=      4 Scr=      1
 Normal termination of Gaussian 16 at Thu Dec  7 11:00:39 2023.
