
7 atoms
1 atom types
   0.0000000000    0.0000000000 xlo xhi
   0.0000000000    0.0000000000 ylo yhi
   0.0000000000    0.0000000000 zlo zhi
   0.0000000000    0.0000000000    0.0000000000 xy xz yz

Atoms # atomic

     1      1    6.6858650000    0.0000000000    1.6299170000
     2      1    9.9137630000    2.8756950000    0.0000000000
     3      1    8.4679310000    2.2354030000    2.5454800000
     4      1    6.1097770000    4.0924650000    2.4871520000
     5      1    4.6978720000    2.0780400000    0.7672950000
     6      1    2.0118290000    1.1004240000    1.6714090000
     7      1    0.0000000000    3.2151110000    0.9895010000
