
7 atoms
1 atom types
   0.0000000000    0.0000000000 xlo xhi
   0.0000000000    0.0000000000 ylo yhi
   0.0000000000    0.0000000000 zlo zhi
   0.0000000000    0.0000000000    0.0000000000 xy xz yz

Atoms # atomic

     1      1    2.7765760000    2.7844050000    2.2403310000
     2      1    0.0000000000    2.7188520000    1.1154140000
     3      1    1.9567500000    4.7879650000    0.1742020000
     4      1    4.8145880000    3.8989530000    0.3431760000
     5      1    6.1699860000    1.2345520000    0.6227770000
     6      1    3.4254800000    0.0977210000    1.0576420000
     7      1    0.6193560000    0.0000000000    0.0000000000
