
7 atoms
1 atom types
   0.0000000000    0.0000000000 xlo xhi
   0.0000000000    0.0000000000 ylo yhi
   0.0000000000    0.0000000000 zlo zhi
   0.0000000000    0.0000000000    0.0000000000 xy xz yz

Atoms # atomic

     1      1    5.4266960000    3.8298160000    0.0000000000
     2      1    7.6569150000    0.0000000000    1.0849180000
     3      1    7.1232050000    5.7566660000    1.5539400000
     4      1    7.3302750000    2.8105180000    2.0837330000
     5      1    4.9179660000    1.1975690000    1.3371810000
     6      1    2.8535880000    3.3725680000    1.4765760000
     7      1    0.0000000000    2.4426100000    1.4722600000
