
7 atoms
1 atom types
   0.0000000000    0.0000000000 xlo xhi
   0.0000000000    0.0000000000 ylo yhi
   0.0000000000    0.0000000000 zlo zhi
   0.0000000000    0.0000000000    0.0000000000 xy xz yz

Atoms # atomic

     1      1    7.0506440000    0.0000000000    0.0661940000
     2      1   11.6913230000    0.4005930000    0.0000000000
     3      1    9.3693540000    0.5218570000    1.8971540000
     4      1    7.7331220000    2.8110960000    0.8542820000
     5      1    4.8895510000    2.0701030000    0.2598020000
     6      1    2.7084200000    0.4573740000    1.5445030000
     7      1    0.0000000000    0.6148560000    0.2606420000
