
7 atoms
1 atom types
   0.0000000000    0.0000000000 xlo xhi
   0.0000000000    0.0000000000 ylo yhi
   0.0000000000    0.0000000000 zlo zhi
   0.0000000000    0.0000000000    0.0000000000 xy xz yz

Atoms # atomic

     1      1    2.5801940000    3.6379340000    2.5332170000
     2      1    4.1472020000    3.9710870000    0.0000000000
     3      1    7.0624050000    4.2713400000    0.6326240000
     4      1    5.3426540000    2.4783670000    2.3056590000
     5      1    4.2948440000    0.0000000000    0.9652380000
     6      1    2.0400690000    1.8356620000    0.2033490000
     7      1    0.0000000000    3.8725200000    1.0238140000
