
7 atoms
1 atom types
   0.0000000000    0.0000000000 xlo xhi
   0.0000000000    0.0000000000 ylo yhi
   0.0000000000    0.0000000000 zlo zhi
   0.0000000000    0.0000000000    0.0000000000 xy xz yz

Atoms # atomic

     1      1    2.8003380000    1.9772870000    2.7624080000
     2      1    3.7498630000    2.6512080000    0.0000000000
     3      1    4.4527450000    0.0000000000    1.2223380000
     4      1    5.7099170000    2.5156360000    2.2656860000
     5      1    3.7284730000    4.7598110000    2.1297380000
     6      1    1.1402630000    3.7469560000    1.0020700000
     7      1    0.0000000000    1.1706120000    2.0344420000
