
7 atoms
1 atom types
   0.0000000000    0.0000000000 xlo xhi
   0.0000000000    0.0000000000 ylo yhi
   0.0000000000    0.0000000000 zlo zhi
   0.0000000000    0.0000000000    0.0000000000 xy xz yz

Atoms # atomic

     1      1    2.7738700000    1.2492720000    0.0000000000
     2      1    3.0660770000    1.9634250000    2.8983350000
     3      1    5.4725450000    1.1682000000    1.2996100000
     4      1    4.1353480000    3.8010330000    0.7929730000
     5      1    1.4752490000    4.3741270000    2.0618600000
     6      1    0.0000000000    2.3328580000    0.4157660000
     7      1    0.9660020000    0.0000000000    2.0339770000
