
7 atoms
1 atom types
   0.0000000000    0.0000000000 xlo xhi
   0.0000000000    0.0000000000 ylo yhi
   0.0000000000    0.0000000000 zlo zhi
   0.0000000000    0.0000000000    0.0000000000 xy xz yz

Atoms # atomic

     1      1    2.4083360000    1.5276530000    3.1419450000
     2      1    2.8792350000    3.3860740000    1.1483890000
     3      1    0.5710370000    2.3538690000    0.0000000000
     4      1    0.1106280000    3.0213600000    2.6624800000
     5      1    0.0000000000    0.0000000000    1.9664500000
     6      1    2.7673480000    0.2973010000    0.6477850000
     7      1    5.0404870000    1.5967800000    1.9102360000
