
7 atoms
1 atom types
   0.0000000000    0.0000000000 xlo xhi
   0.0000000000    0.0000000000 ylo yhi
   0.0000000000    0.0000000000 zlo zhi
   0.0000000000    0.0000000000    0.0000000000 xy xz yz

Atoms # atomic

     1      1    2.9697450000    1.8517190000    0.9365560000
     2      1    5.3684680000    0.2696430000    0.0765960000
     3      1    5.7339280000    2.8738880000    1.5151570000
     4      1    3.3392880000    4.4229000000    2.4398860000
     5      1    1.5960920000    4.3474220000    0.0000000000
     6      1    0.0000000000    1.8603280000    0.5029630000
     7      1    1.2111640000    0.0000000000    2.5190580000
