
7 atoms
1 atom types
   0.0000000000    0.0000000000 xlo xhi
   0.0000000000    0.0000000000 ylo yhi
   0.0000000000    0.0000000000 zlo zhi
   0.0000000000    0.0000000000    0.0000000000 xy xz yz

Atoms # atomic

     1      1    2.3846760000    2.5658500000    0.1575820000
     2      1    5.9031420000    4.9087580000    1.1068080000
     3      1    0.0000000000    1.1713020000    1.3205020000
     4      1    2.3279290000    1.8873140000    3.0715630000
     5      1    4.9567500000    2.1080180000    1.6382040000
     6      1    7.5928940000    0.9864440000    2.5335380000
     7      1    6.3332080000    0.0000000000    0.0000000000
