
7 atoms
1 atom types
   0.0000000000    0.0000000000 xlo xhi
   0.0000000000    0.0000000000 ylo yhi
   0.0000000000    0.0000000000 zlo zhi
   0.0000000000    0.0000000000    0.0000000000 xy xz yz

Atoms # atomic

     1      1    0.0000000000    3.1167700000    1.5828240000
     2      1    4.0020340000    4.1474550000    1.1674500000
     3      1    7.5325870000    1.4176840000    1.8935270000
     4      1    5.0723790000    0.0000000000    0.9223160000
     5      1    2.5492760000    1.5339520000    1.4897320000
     6      1    0.1763290000    0.4814740000    2.9932550000
     7      1    0.1292720000    0.5775160000    0.0000000000
