
7 atoms
1 atom types
   0.0000000000    0.0000000000 xlo xhi
   0.0000000000    0.0000000000 ylo yhi
   0.0000000000    0.0000000000 zlo zhi
   0.0000000000    0.0000000000    0.0000000000 xy xz yz

Atoms # atomic

     1      1    4.3399130000    2.3485820000    3.5012700000
     2      1    4.0793880000    4.1069220000    1.3513190000
     3      1    0.0000000000    2.0937250000    1.8173990000
     4      1    2.7741880000    1.2780350000    1.4196610000
     5      1    5.5485250000    0.0000000000    1.9365810000
     6      1    5.3945200000    2.0404800000    0.0000000000
     7      1    6.8061400000    2.8336020000    2.2698320000
