
7 atoms
1 atom types
   0.0000000000    0.0000000000 xlo xhi
   0.0000000000    0.0000000000 ylo yhi
   0.0000000000    0.0000000000 zlo zhi
   0.0000000000    0.0000000000    0.0000000000 xy xz yz

Atoms # atomic

     1      1    8.5018150000    0.3780230000    0.0944810000
     2      1    0.0000000000    0.0000000000    0.0647340000
     3      1    0.7915560000    4.4222610000    0.1323930000
     4      1    2.3573810000    1.8597250000    0.0565630000
     5      1    5.0599330000    3.1604440000    0.0000000000
     6      1    8.0539800000    3.3427880000    0.0306340000
     7      1   10.8434480000    2.2490680000    0.1109700000
