
7 atoms
1 atom types
   0.0000000000    0.0000000000 xlo xhi
   0.0000000000    0.0000000000 ylo yhi
   0.0000000000    0.0000000000 zlo zhi
   0.0000000000    0.0000000000    0.0000000000 xy xz yz

Atoms # atomic

     1      1    2.0133270000    0.0000000000    2.3025840000
     2      1    0.0000000000    1.4244820000    4.0110250000
     3      1    7.0887080000    2.5565900000    2.6250560000
     4      1    4.5838050000    1.0973680000    3.3941680000
     5      1    1.8845740000    1.9152330000    0.0000000000
     6      1    2.2864930000    2.9396060000    2.7925220000
     7      1    1.9021650000    5.9147930000    2.7077940000
