
7 atoms
1 atom types
   0.0000000000    0.0000000000 xlo xhi
   0.0000000000    0.0000000000 ylo yhi
   0.0000000000    0.0000000000 zlo zhi
   0.0000000000    0.0000000000    0.0000000000 xy xz yz

Atoms # atomic

     1      1    4.4302110000    4.0221070000    0.0151840000
     2      1    0.0000000000    4.1507580000    0.4796550000
     3      1    1.6274190000    1.1107760000    3.3794470000
     4      1    2.1908760000    2.1056720000    0.6057180000
     5      1    4.2481420000    0.0000000000    0.0000000000
     6      1    6.3257610000    1.9209940000    1.0020900000
     7      1    5.9412380000    4.4499980000    2.5631530000
