
7 atoms
1 atom types
   0.0000000000    0.0000000000 xlo xhi
   0.0000000000    0.0000000000 ylo yhi
   0.0000000000    0.0000000000 zlo zhi
   0.0000000000    0.0000000000    0.0000000000 xy xz yz

Atoms # atomic

     1      1    2.3911650000    4.4538660000    0.2298190000
     2      1    0.9517810000    3.5406110000    2.6993470000
     3      1    0.0000000000    2.6617210000    0.0000000000
     4      1    1.2865870000    0.0000000000    0.5229670000
     5      1    2.9479950000    1.2951650000    2.6617340000
     6      1    4.8461070000    3.3393980000    1.5517130000
     7      1    7.3437590000    2.0263420000    0.5506440000
