
7 atoms
1 atom types
   0.0000000000    0.0000000000 xlo xhi
   0.0000000000    0.0000000000 ylo yhi
   0.0000000000    0.0000000000 zlo zhi
   0.0000000000    0.0000000000    0.0000000000 xy xz yz

Atoms # atomic

     1      1    2.3546140000    0.1533760000    2.0955540000
     2      1    3.9076710000    2.7128410000    2.2854470000
     3      1    7.3077700000    0.2604570000    0.4047690000
     4      1    4.3913130000    0.8291770000    0.0000000000
     5      1    3.3114960000    4.9784630000    0.4095190000
     6      1    1.8240410000    2.3811580000    0.1616790000
     7      1    0.0000000000    0.0000000000    0.2419600000
