
7 atoms
1 atom types
   0.0000000000    0.0000000000 xlo xhi
   0.0000000000    0.0000000000 ylo yhi
   0.0000000000    0.0000000000 zlo zhi
   0.0000000000    0.0000000000    0.0000000000 xy xz yz

Atoms # atomic

     1      1    2.1543510000    2.7973180000    0.2300270000
     2      1    3.9329870000    2.6817040000    2.6406850000
     3      1    0.0000000000    0.7228150000    0.0000000000
     4      1    2.3262380000    0.2765490000    1.8427180000
     5      1    4.8334440000    4.1460980000    0.1809480000
     6      1    4.6636120000    1.1508490000    0.1719420000
     7      1    7.4276850000    0.0000000000    0.3924570000
