
7 atoms
1 atom types
   0.0000000000    0.0000000000 xlo xhi
   0.0000000000    0.0000000000 ylo yhi
   0.0000000000    0.0000000000 zlo zhi
   0.0000000000    0.0000000000    0.0000000000 xy xz yz

Atoms # atomic

     1      1    2.7546530000    3.6041790000    1.4618910000
     2      1    0.0000000000    0.1563200000    2.4922810000
     3      1    2.4865960000    0.0000000000    0.9227810000
     4      1    0.8982850000    1.9867390000    0.0000000000
     5      1    0.0104970000    3.0967120000    2.4215390000
     6      1    2.2488720000    1.6550790000    3.2640400000
     7      1    4.9846800000    1.4989980000    2.1178240000
