
7 atoms
1 atom types
   0.0000000000    0.0000000000 xlo xhi
   0.0000000000    0.0000000000 ylo yhi
   0.0000000000    0.0000000000 zlo zhi
   0.0000000000    0.0000000000    0.0000000000 xy xz yz

Atoms # atomic

     1      1    2.3897630000    1.2505830000    0.0000000000
     2      1    4.3852550000    2.8590310000    1.7483280000
     3      1    6.4647540000    0.9148530000    1.2572920000
     4      1    3.8134460000    0.0000000000    1.9542770000
     5      1    1.8095540000    3.6037330000    1.2345380000
     6      1    1.8768200000    1.5774630000    3.0445340000
     7      1    0.0000000000    0.2311710000    1.2900900000
