
7 atoms
1 atom types
   0.0000000000    0.0000000000 xlo xhi
   0.0000000000    0.0000000000 ylo yhi
   0.0000000000    0.0000000000 zlo zhi
   0.0000000000    0.0000000000    0.0000000000 xy xz yz

Atoms # atomic

     1      1    4.8709140000    2.0491850000    0.6834500000
     2      1    6.9556200000    0.0000000000    0.0000000000
     3      1    6.8309500000    4.2914900000    1.0682060000
     4      1    7.2348980000    1.6725000000    2.4778660000
     5      1    4.4566300000    1.4324870000    3.5885680000
     6      1    2.3167530000    0.7666980000    1.5966760000
     7      1    0.0000000000    2.5502150000    0.9237380000
