
7 atoms
1 atom types
   0.0000000000    0.0000000000 xlo xhi
   0.0000000000    0.0000000000 ylo yhi
   0.0000000000    0.0000000000 zlo zhi
   0.0000000000    0.0000000000    0.0000000000 xy xz yz

Atoms # atomic

     1      1    2.8631360000    0.1019570000    2.4894140000
     2      1    5.1400510000    1.8936610000    3.2936460000
     3      1    7.0164780000    0.1795520000    1.7019220000
     4      1    4.5477390000    0.1763480000    0.0000000000
     5      1    4.2670860000    3.0918140000    0.6791320000
     6      1    1.4624260000    2.6070770000    1.6258670000
     7      1    0.0000000000    0.0000000000    1.6311390000
