
7 atoms
1 atom types
   0.0000000000    0.0000000000 xlo xhi
   0.0000000000    0.0000000000 ylo yhi
   0.0000000000    0.0000000000 zlo zhi
   0.0000000000    0.0000000000    0.0000000000 xy xz yz

Atoms # atomic

     1      1    2.3039080000    1.1412750000    3.1369620000
     2      1    2.8020280000    0.1584660000    0.5159380000
     3      1    5.0151670000    1.4031330000    2.0107510000
     4      1    2.9839190000    3.2548010000    0.9373670000
     5      1    0.6520060000    1.9257540000    0.0000000000
     6      1    0.3108830000    3.0813710000    2.5591500000
     7      1    0.0000000000    0.0000000000    1.9607970000
