
7 atoms
1 atom types
   0.0000000000    0.0000000000 xlo xhi
   0.0000000000    0.0000000000 ylo yhi
   0.0000000000    0.0000000000 zlo zhi
   0.0000000000    0.0000000000    0.0000000000 xy xz yz

Atoms # atomic

     1      1    2.4009100000    2.0024440000    0.0000000000
     2      1    2.6665950000    0.0000000000    1.8452140000
     3      1    0.0000000000    1.1843670000    1.4212820000
     4      1    1.0651430000    3.9148330000    1.7215400000
     5      1    2.9528690000    2.3299830000    3.2668530000
     6      1    3.9737060000    3.8672690000    1.2432370000
     7      1    5.0854760000    1.3022480000    1.3151330000
