
7 atoms
1 atom types
   0.0000000000    0.0000000000 xlo xhi
   0.0000000000    0.0000000000 ylo yhi
   0.0000000000    0.0000000000 zlo zhi
   0.0000000000    0.0000000000    0.0000000000 xy xz yz

Atoms # atomic

     1      1    2.5512380000    1.9966510000    3.3207680000
     2      1    2.5513910000    1.9972290000    0.0000000000
     3      1    5.0179160000    1.0931860000    1.6604770000
     4      1    3.9869770000    3.5887800000    1.6608930000
     5      1    1.1909270000    3.6768880000    1.6606000000
     6      1    2.3618860000    0.0000000000    1.6604120000
     7      1    0.0000000000    1.2674560000    1.6605550000
