
7 atoms
1 atom types
   0.0000000000    0.0000000000 xlo xhi
   0.0000000000    0.0000000000 ylo yhi
   0.0000000000    0.0000000000 zlo zhi
   0.0000000000    0.0000000000    0.0000000000 xy xz yz

Atoms # atomic

     1      1    2.4508560000    1.9787830000    0.0000000000
     2      1    2.4517110000    1.9783300000    3.5744470000
     3      1    0.0000000000    1.9825800000    1.7876610000
     4      1    1.8284830000    3.9616340000    1.7876680000
     5      1    4.3255170000    3.2814270000    1.7871130000
     6      1    1.8238350000    0.0000000000    1.7871850000
     7      1    4.3228920000    0.6757480000    1.7872270000
