
7 atoms
1 atom types
   0.0000000000    0.0000000000 xlo xhi
   0.0000000000    0.0000000000 ylo yhi
   0.0000000000    0.0000000000 zlo zhi
   0.0000000000    0.0000000000    0.0000000000 xy xz yz

Atoms # atomic

     1      1    0.0000000000    2.1173170000    0.1615960000
     2      1    3.0633720000    6.0325110000    1.2482000000
     3      1    1.8083980000    3.4585530000    2.1417780000
     4      1    2.3100030000    0.6115890000    1.3351850000
     5      1    5.2251640000    0.0000000000    0.9750020000
     6      1    6.7926570000    2.1664480000    2.3388380000
     7      1    7.9128720000    3.6781870000    0.0000000000
