
7 atoms
1 atom types
   0.0000000000    0.0000000000 xlo xhi
   0.0000000000    0.0000000000 ylo yhi
   0.0000000000    0.0000000000 zlo zhi
   0.0000000000    0.0000000000    0.0000000000 xy xz yz

Atoms # atomic

     1      1    2.9790010000    2.2726240000    0.2807850000
     2      1    2.3241710000    0.0000000000    2.1306200000
     3      1    5.1803440000    0.6697690000    1.5247070000
     4      1    5.3379460000    3.6604060000    1.4874270000
     5      1    2.6157670000    4.0715060000    2.6617590000
     6      1    0.3526800000    2.1156180000    2.9533860000
     7      1    0.0000000000    2.5494580000    0.0000000000
