 Set GAUSS_MDEF to "14GB".
 Entering Gaussian System, Link 0=g16
 Initial command:
 /home/sekinelabo/g16/l1.exe "/home/sekinelabo/g16temp/Gau-733899.inp" -scrdir="/home/sekinelabo/g16temp/"
 Entering Link 1 = /home/sekinelabo/g16/l1.exe PID=    733901.
  
 Copyright (c) 1988-2017, Gaussian, Inc.  All Rights Reserved.
  
 This is part of the Gaussian(R) 16 program.  It is based on
 the Gaussian(R) 09 system (copyright 2009, Gaussian, Inc.),
 the Gaussian(R) 03 system (copyright 2003, Gaussian, Inc.),
 the Gaussian(R) 98 system (copyright 1998, Gaussian, Inc.),
 the Gaussian(R) 94 system (copyright 1995, Gaussian, Inc.),
 the Gaussian 92(TM) system (copyright 1992, Gaussian, Inc.),
 the Gaussian 90(TM) system (copyright 1990, Gaussian, Inc.),
 the Gaussian 88(TM) system (copyright 1988, Gaussian, Inc.),
 the Gaussian 86(TM) system (copyright 1986, Carnegie Mellon
 University), and the Gaussian 82(TM) system (copyright 1983,
 Carnegie Mellon University). Gaussian is a federally registered
 trademark of Gaussian, Inc.
  
 This software contains proprietary and confidential information,
 including trade secrets, belonging to Gaussian, Inc.
  
 This software is provided under written license and may be
 used, copied, transmitted, or stored only in accord with that
 written license.
  
 The following legend is applicable only to US Government
 contracts under FAR:
  
                    RESTRICTED RIGHTS LEGEND
  
 Use, reproduction and disclosure by the US Government is
 subject to restrictions as set forth in subparagraphs (a)
 and (c) of the Commercial Computer Software - Restricted
 Rights clause in FAR 52.227-19.
  
 Gaussian, Inc.
 340 Quinnipiac St., Bldg. 40, Wallingford CT 06492
  
  
 ---------------------------------------------------------------
 Warning -- This program may not be used in any manner that
 competes with the business of Gaussian, Inc. or will provide
 assistance to any competitor of Gaussian, Inc.  The licensee
 of this program is prohibited from giving any competitor of
 Gaussian, Inc. access to this program.  By using this program,
 the user acknowledges that Gaussian, Inc. is engaged in the
 business of creating and licensing software in the field of
 computational chemistry and represents and warrants to the
 licensee that it is not a competitor of Gaussian, Inc. and that
 it will not use this program in any manner prohibited above.
 ---------------------------------------------------------------
  

 Cite this work as:
 Gaussian 16, Revision B.01,
 M. J. Frisch, G. W. Trucks, H. B. Schlegel, G. E. Scuseria, 
 M. A. Robb, J. R. Cheeseman, G. Scalmani, V. Barone, 
 G. A. Petersson, H. Nakatsuji, X. Li, M. Caricato, A. V. Marenich, 
 J. Bloino, B. G. Janesko, R. Gomperts, B. Mennucci, H. P. Hratchian, 
 J. V. Ortiz, A. F. Izmaylov, J. L. Sonnenberg, D. Williams-Young, 
 F. Ding, F. Lipparini, F. Egidi, J. Goings, B. Peng, A. Petrone, 
 T. Henderson, D. Ranasinghe, V. G. Zakrzewski, J. Gao, N. Rega, 
 G. Zheng, W. Liang, M. Hada, M. Ehara, K. Toyota, R. Fukuda, 
 J. Hasegawa, M. Ishida, T. Nakajima, Y. Honda, O. Kitao, H. Nakai, 
 T. Vreven, K. Throssell, J. A. Montgomery, Jr., J. E. Peralta, 
 F. Ogliaro, M. J. Bearpark, J. J. Heyd, E. N. Brothers, K. N. Kudin, 
 V. N. Staroverov, T. A. Keith, R. Kobayashi, J. Normand, 
 K. Raghavachari, A. P. Rendell, J. C. Burant, S. S. Iyengar, 
 J. Tomasi, M. Cossi, J. M. Millam, M. Klene, C. Adamo, R. Cammi, 
 J. W. Ochterski, R. L. Martin, K. Morokuma, O. Farkas, 
 J. B. Foresman, and D. J. Fox, Gaussian, Inc., Wallingford CT, 2016.
 
 ******************************************
 Gaussian 16:  ES64L-G16RevB.01 20-Dec-2017
                29-Nov-2023 
 ******************************************
 %nproc=15
 Will use up to   15 processors via shared memory.
 -------------------------
 #P B3LYP/6-311+g(d) force
 -------------------------
 1/10=7,30=1,38=1/1,3;
 2/12=2,17=6,18=5,40=1/2;
 3/5=4,6=6,7=11,11=2,25=1,30=1,71=1,74=-5/1,2,3;
 4//1;
 5/5=2,38=5/2;
 6/7=2,8=2,9=2,10=2,28=1/1;
 7/29=1/1,2,3,16;
 1/10=7,30=1/3;
 99//99;
 Leave Link    1 at Wed Nov 29 16:57:29 2023, MaxMem=           0 cpu:               0.3 elap:               0.0
 (Enter /home/sekinelabo/g16/l101.exe)
 -----
 DPGEN
 -----
 Symbolic Z-matrix:
 Charge =  0 Multiplicity = 2
 Na                    12.7694   16.7036   13.6152 
 Na                    16.3142   17.7989   17.2353 
 Na                    17.8242   13.0239   13.8017 
 Na                    13.5613   16.0988   16.8874 
 Na                    16.9333   14.3763   17.1507 
 Na                    14.0003   13.3324   14.8205 
 Na                    16.0228   16.0915   13.9146 
 
 ITRead=  0  0  0  0  0  0  0
 MicOpt= -1 -1 -1 -1 -1 -1 -1
 NAtoms=      7 NQM=        7 NQMF=       0 NMMI=      0 NMMIF=      0
                NMic=       0 NMicF=      0.
                    Isotopes and Nuclear Properties:
 (Nuclear quadrupole moments (NQMom) in fm**2, nuclear magnetic moments (NMagM)
  in nuclear magnetons)

  Atom         1           2           3           4           5           6           7
 IAtWgt=          23          23          23          23          23          23          23
 AtmWgt=  22.9897697  22.9897697  22.9897697  22.9897697  22.9897697  22.9897697  22.9897697
 NucSpn=           3           3           3           3           3           3           3
 AtZEff=  -0.0000000  -0.0000000  -0.0000000  -0.0000000  -0.0000000  -0.0000000  -0.0000000
 NQMom=   10.4000000  10.4000000  10.4000000  10.4000000  10.4000000  10.4000000  10.4000000
 NMagM=    2.2175200   2.2175200   2.2175200   2.2175200   2.2175200   2.2175200   2.2175200
 AtZNuc=  11.0000000  11.0000000  11.0000000  11.0000000  11.0000000  11.0000000  11.0000000
 Leave Link  101 at Wed Nov 29 16:57:29 2023, MaxMem=  1879048192 cpu:               2.4 elap:               0.2
 (Enter /home/sekinelabo/g16/l103.exe)

 GradGradGradGradGradGradGradGradGradGradGradGradGradGradGradGradGradGrad
 Berny optimization.
 Initialization pass.
 Trust Radius=3.00D-01 FncErr=1.00D-07 GrdErr=1.00D-07 EigMax=2.50D+02 EigMin=1.00D-04
 Number of steps in this run=      2 maximum allowed number of steps=      2.
 GradGradGradGradGradGradGradGradGradGradGradGradGradGradGradGradGradGrad

 Leave Link  103 at Wed Nov 29 16:57:29 2023, MaxMem=  1879048192 cpu:               0.2 elap:               0.0
 (Enter /home/sekinelabo/g16/l202.exe)
                          Input orientation:                          
 ---------------------------------------------------------------------
 Center     Atomic      Atomic             Coordinates (Angstroms)
 Number     Number       Type             X           Y           Z
 ---------------------------------------------------------------------
      1         11           0       12.769400   16.703600   13.615200
      2         11           0       16.314200   17.798900   17.235300
      3         11           0       17.824200   13.023900   13.801700
      4         11           0       13.561300   16.098800   16.887400
      5         11           0       16.933300   14.376300   17.150700
      6         11           0       14.000300   13.332400   14.820500
      7         11           0       16.022800   16.091500   13.914600
 ---------------------------------------------------------------------
                    Distance matrix (angstroms):
                    1          2          3          4          5
     1  Na   0.000000
     2  Na   5.183668   0.000000
     3  Na   6.255076   6.072095   0.000000
     4  Na   3.420553   3.254202   6.094987   0.000000
     5  Na   5.937520   3.479171   3.720012   3.795618   0.000000
     6  Na   3.785875   5.579876   3.969299   3.481058   3.888708
     7  Na   3.323991   3.745287   3.559208   3.859608   3.774025
                    6          7
     6  Na   0.000000
     7  Na   3.538897   0.000000
 Stoichiometry    Na7(2)
 Framework group  C1[X(Na7)]
 Deg. of freedom    15
 Full point group                 C1      NOp   1
 Largest Abelian subgroup         C1      NOp   1
 Largest concise Abelian subgroup C1      NOp   1
                         Standard orientation:                         
 ---------------------------------------------------------------------
 Center     Atomic      Atomic             Coordinates (Angstroms)
 Number     Number       Type             X           Y           Z
 ---------------------------------------------------------------------
      1         11           0       -2.411426   -2.265352   -0.730589
      2         11           0       -1.366365    2.809987   -0.869150
      3         11           0        3.626331   -0.635768   -0.604390
      4         11           0       -2.060307    0.473988    1.287558
      5         11           0        1.437519    1.916746    0.986919
      6         11           0        0.541514   -1.817994    1.595969
      7         11           0        0.232734   -0.481606   -1.666318
 ---------------------------------------------------------------------
 Rotational constants (GHZ):           0.7212745           0.5925126           0.4545785
 Leave Link  202 at Wed Nov 29 16:57:29 2023, MaxMem=  1879048192 cpu:               0.0 elap:               0.0
 (Enter /home/sekinelabo/g16/l301.exe)
 Standard basis: 6-311+G(d) (5D, 7F)
 Ernie: Thresh=  0.10000D-02 Tol=  0.10000D-05 Strict=F.
 There are   217 symmetry adapted cartesian basis functions of A   symmetry.
 There are   210 symmetry adapted basis functions of A   symmetry.
   210 basis functions,   350 primitive gaussians,   217 cartesian basis functions
    39 alpha electrons       38 beta electrons
       nuclear repulsion energy       330.6830110734 Hartrees.
 IExCor=  402 DFT=T Ex+Corr=B3LYP ExCW=0 ScaHFX=  0.200000
 ScaDFX=  0.800000  0.720000  1.000000  0.810000 ScalE2=  1.000000  1.000000
 IRadAn=      5 IRanWt=     -1 IRanGd=            0 ICorTp=0 IEmpDi=  4
 NAtoms=    7 NActive=    7 NUniq=    7 SFac= 1.00D+00 NAtFMM=   60 NAOKFM=F Big=F
 Integral buffers will be    131072 words long.
 Raffenetti 2 integral format.
 Two-electron integral symmetry is turned on.
 Leave Link  301 at Wed Nov 29 16:57:29 2023, MaxMem=  1879048192 cpu:               0.5 elap:               0.0
 (Enter /home/sekinelabo/g16/l302.exe)
 NPDir=0 NMtPBC=     1 NCelOv=     1 NCel=       1 NClECP=     1 NCelD=      1
         NCelK=      1 NCelE2=     1 NClLst=     1 CellRange=     0.0.
 One-electron integrals computed using PRISM.
 One-electron integral symmetry used in STVInt
 NBasis=   210 RedAO= T EigKep=  6.06D-06  NBF=   210
 NBsUse=   210 1.00D-06 EigRej= -1.00D+00 NBFU=   210
 Precomputing XC quadrature grid using
 IXCGrd= 4 IRadAn=           5 IRanWt=          -1 IRanGd=           0 AccXCQ= 0.00D+00.
 Generated NRdTot=       0 NPtTot=           0 NUsed=           0 NTot=          32
 NSgBfM=   211   211   211   211   211 MxSgAt=     7 MxSgA2=     7.
 Leave Link  302 at Wed Nov 29 16:57:29 2023, MaxMem=  1879048192 cpu:               2.0 elap:               0.1
 (Enter /home/sekinelabo/g16/l303.exe)
 DipDrv:  MaxL=1.
 Leave Link  303 at Wed Nov 29 16:57:29 2023, MaxMem=  1879048192 cpu:               0.5 elap:               0.0
 (Enter /home/sekinelabo/g16/l401.exe)
 ExpMin= 7.60D-03 ExpMax= 3.62D+04 ExpMxC= 1.21D+03 IAcc=3 IRadAn=         5 AccDes= 0.00D+00
 Harris functional with IExCor=  402 and IRadAn=       5 diagonalized for initial guess.
 HarFok:  IExCor=  402 AccDes= 0.00D+00 IRadAn=         5 IDoV= 1 UseB2=F ITyADJ=14
 ICtDFT=  3500011 ScaDFX=  1.000000  1.000000  1.000000  1.000000
 FoFCou: FMM=F IPFlag=           0 FMFlag=      100000 FMFlg1=           0
         NFxFlg=           0 DoJE=T BraDBF=F KetDBF=T FulRan=T
         wScrn=  0.000000 ICntrl=       500 IOpCl=  0 I1Cent=   200000004 NGrid=           0
         NMat0=    1 NMatS0=      1 NMatT0=    0 NMatD0=    1 NMtDS0=    0 NMtDT0=    0
 Petite list used in FoFCou.
 Harris En= -1135.90520438478    
 JPrj=0 DoOrth=F DoCkMO=F.
 Initial guess <Sx>= 0.0000 <Sy>= 0.0000 <Sz>= 0.5000 <S**2>= 0.7500 S= 0.5000
 Leave Link  401 at Wed Nov 29 16:57:30 2023, MaxMem=  1879048192 cpu:               4.4 elap:               0.3
 (Enter /home/sekinelabo/g16/l502.exe)
 Keep R1 and R2 ints in memory in canonical form, NReq=506573321.
 FoFCou: FMM=F IPFlag=           0 FMFlag=           0 FMFlg1=           0
         NFxFlg=           0 DoJE=F BraDBF=F KetDBF=F FulRan=T
         wScrn=  0.000000 ICntrl=       600 IOpCl=  0 I1Cent=           0 NGrid=           0
         NMat0=    1 NMatS0=  22155 NMatT0=    0 NMatD0=    1 NMtDS0=    0 NMtDT0=    0
 Symmetry not used in FoFCou.
 Two-electron integral symmetry not used.
 UHF open shell SCF:
 Using DIIS extrapolation, IDIIS=  1040.
 NGot=  1879048192 LenX=  1388082579 LenY=  1388035049
 Requested convergence on RMS density matrix=1.00D-08 within 128 cycles.
 Requested convergence on MAX density matrix=1.00D-06.
 Requested convergence on             energy=1.00D-06.
 No special actions if energy rises.

 Cycle   1  Pass 1  IDiag  1:
 E= -1136.10032961223    
 DIIS: error= 1.61D-02 at cycle   1 NSaved=   1.
 NSaved= 1 IEnMin= 1 EnMin= -1136.10032961223     IErMin= 1 ErrMin= 1.61D-02
 ErrMax= 1.61D-02  0.00D+00 EMaxC= 1.00D-01 BMatC= 1.92D-01 BMatP= 1.92D-01
 IDIUse=3 WtCom= 8.39D-01 WtEn= 1.61D-01
 Coeff-Com:  0.100D+01
 Coeff-En:   0.100D+01
 Coeff:      0.100D+01
 Gap=     0.043 Goal=   None    Shift=    0.000
 Gap=     0.047 Goal=   None    Shift=    0.000
 GapD=    0.043 DampG=0.250 DampE=0.500 DampFc=0.2500 IDamp=-1.
 Damping current iteration by 2.50D-01
 RMSDP=1.42D-02 MaxDP=8.78D-01              OVMax= 2.34D-01

 Cycle   2  Pass 1  IDiag  1:
 E= -1136.11274393018     Delta-E=       -0.012414317948 Rises=F Damp=T
 DIIS: error= 1.14D-02 at cycle   2 NSaved=   2.
 NSaved= 2 IEnMin= 2 EnMin= -1136.11274393018     IErMin= 2 ErrMin= 1.14D-02
 ErrMax= 1.14D-02  0.00D+00 EMaxC= 1.00D-01 BMatC= 7.29D-02 BMatP= 1.92D-01
 IDIUse=3 WtCom= 8.86D-01 WtEn= 1.14D-01
 Coeff-Com: -0.127D+01 0.227D+01
 Coeff-En:   0.000D+00 0.100D+01
 Coeff:     -0.112D+01 0.212D+01
 Gap=     0.056 Goal=   None    Shift=    0.000
 Gap=     0.050 Goal=   None    Shift=    0.000
 RMSDP=7.09D-03 MaxDP=3.98D-01 DE=-1.24D-02 OVMax= 1.63D-01

 Cycle   3  Pass 1  IDiag  1:
 E= -1136.13435286486     Delta-E=       -0.021608934684 Rises=F Damp=F
 DIIS: error= 2.77D-03 at cycle   3 NSaved=   3.
 NSaved= 3 IEnMin= 3 EnMin= -1136.13435286486     IErMin= 3 ErrMin= 2.77D-03
 ErrMax= 2.77D-03  0.00D+00 EMaxC= 1.00D-01 BMatC= 2.34D-03 BMatP= 7.29D-02
 IDIUse=3 WtCom= 9.72D-01 WtEn= 2.77D-02
 Coeff-Com: -0.132D+00 0.260D+00 0.872D+00
 Coeff-En:   0.000D+00 0.000D+00 0.100D+01
 Coeff:     -0.129D+00 0.253D+00 0.876D+00
 Gap=     0.051 Goal=   None    Shift=    0.000
 Gap=     0.048 Goal=   None    Shift=    0.000
 RMSDP=5.41D-03 MaxDP=8.95D-01 DE=-2.16D-02 OVMax= 9.61D-02

 Cycle   4  Pass 1  IDiag  1:
 E= -1136.13314460236     Delta-E=        0.001208262505 Rises=F Damp=F
 DIIS: error= 2.75D-03 at cycle   4 NSaved=   4.
 NSaved= 4 IEnMin= 3 EnMin= -1136.13435286486     IErMin= 4 ErrMin= 2.75D-03
 ErrMax= 2.75D-03  0.00D+00 EMaxC= 1.00D-01 BMatC= 3.03D-03 BMatP= 2.34D-03
 IDIUse=3 WtCom= 1.60D-01 WtEn= 8.40D-01
 Coeff-Com:  0.302D-01-0.393D-01 0.538D+00 0.471D+00
 Coeff-En:   0.000D+00 0.000D+00 0.604D+00 0.396D+00
 Coeff:      0.483D-02-0.629D-02 0.594D+00 0.408D+00
 Gap=     0.054 Goal=   None    Shift=    0.000
 Gap=     0.049 Goal=   None    Shift=    0.000
 RMSDP=2.00D-03 MaxDP=2.85D-01 DE= 1.21D-03 OVMax= 5.55D-02

 Cycle   5  Pass 1  IDiag  1:
 E= -1136.13614152952     Delta-E=       -0.002996927164 Rises=F Damp=F
 DIIS: error= 5.62D-04 at cycle   5 NSaved=   5.
 NSaved= 5 IEnMin= 5 EnMin= -1136.13614152952     IErMin= 5 ErrMin= 5.62D-04
 ErrMax= 5.62D-04  0.00D+00 EMaxC= 1.00D-01 BMatC= 1.27D-04 BMatP= 2.34D-03
 IDIUse=3 WtCom= 9.94D-01 WtEn= 5.62D-03
 Coeff-Com:  0.868D-02-0.127D-01 0.318D+00 0.230D+00 0.456D+00
 Coeff-En:   0.000D+00 0.000D+00 0.000D+00 0.000D+00 0.100D+01
 Coeff:      0.863D-02-0.126D-01 0.316D+00 0.229D+00 0.459D+00
 Gap=     0.054 Goal=   None    Shift=    0.000
 Gap=     0.049 Goal=   None    Shift=    0.000
 RMSDP=3.11D-04 MaxDP=1.86D-02 DE=-3.00D-03 OVMax= 8.67D-03

 Cycle   6  Pass 1  IDiag  1:
 E= -1136.13622786892     Delta-E=       -0.000086339400 Rises=F Damp=F
 DIIS: error= 7.79D-05 at cycle   6 NSaved=   6.
 NSaved= 6 IEnMin= 6 EnMin= -1136.13622786892     IErMin= 6 ErrMin= 7.79D-05
 ErrMax= 7.79D-05  0.00D+00 EMaxC= 1.00D-01 BMatC= 2.84D-06 BMatP= 1.27D-04
 IDIUse=1 WtCom= 1.00D+00 WtEn= 0.00D+00
 Coeff-Com: -0.595D-02 0.749D-02-0.279D-01-0.359D-01 0.907D-01 0.972D+00
 Coeff:     -0.595D-02 0.749D-02-0.279D-01-0.359D-01 0.907D-01 0.972D+00
 Gap=     0.054 Goal=   None    Shift=    0.000
 Gap=     0.049 Goal=   None    Shift=    0.000
 RMSDP=2.37D-04 MaxDP=2.27D-02 DE=-8.63D-05 OVMax= 3.09D-03

 Cycle   7  Pass 1  IDiag  1:
 E= -1136.13623170325     Delta-E=       -0.000003834330 Rises=F Damp=F
 DIIS: error= 6.71D-05 at cycle   7 NSaved=   7.
 NSaved= 7 IEnMin= 7 EnMin= -1136.13623170325     IErMin= 7 ErrMin= 6.71D-05
 ErrMax= 6.71D-05  0.00D+00 EMaxC= 1.00D-01 BMatC= 1.38D-06 BMatP= 2.84D-06
 IDIUse=1 WtCom= 1.00D+00 WtEn= 0.00D+00
 Coeff-Com: -0.427D-02 0.548D-02-0.440D-01-0.407D-01 0.175D-01 0.572D+00
 Coeff-Com:  0.494D+00
 Coeff:     -0.427D-02 0.548D-02-0.440D-01-0.407D-01 0.175D-01 0.572D+00
 Coeff:      0.494D+00
 Gap=     0.054 Goal=   None    Shift=    0.000
 Gap=     0.049 Goal=   None    Shift=    0.000
 RMSDP=9.71D-05 MaxDP=9.76D-03 DE=-3.83D-06 OVMax= 1.67D-03

 Cycle   8  Pass 1  IDiag  1:
 E= -1136.13623353317     Delta-E=       -0.000001829922 Rises=F Damp=F
 DIIS: error= 2.09D-05 at cycle   8 NSaved=   8.
 NSaved= 8 IEnMin= 8 EnMin= -1136.13623353317     IErMin= 8 ErrMin= 2.09D-05
 ErrMax= 2.09D-05  0.00D+00 EMaxC= 1.00D-01 BMatC= 1.27D-07 BMatP= 1.38D-06
 IDIUse=1 WtCom= 1.00D+00 WtEn= 0.00D+00
 Coeff-Com:  0.818D-03-0.105D-02-0.455D-02 0.349D-03-0.210D-01-0.145D+00
 Coeff-Com:  0.169D+00 0.100D+01
 Coeff:      0.818D-03-0.105D-02-0.455D-02 0.349D-03-0.210D-01-0.145D+00
 Coeff:      0.169D+00 0.100D+01
 Gap=     0.055 Goal=   None    Shift=    0.000
 Gap=     0.049 Goal=   None    Shift=    0.000
 RMSDP=6.21D-05 MaxDP=5.90D-03 DE=-1.83D-06 OVMax= 8.19D-04

 Cycle   9  Pass 1  IDiag  1:
 E= -1136.13623385296     Delta-E=       -0.000000319785 Rises=F Damp=F
 DIIS: error= 6.94D-06 at cycle   9 NSaved=   9.
 NSaved= 9 IEnMin= 9 EnMin= -1136.13623385296     IErMin= 9 ErrMin= 6.94D-06
 ErrMax= 6.94D-06  0.00D+00 EMaxC= 1.00D-01 BMatC= 9.67D-09 BMatP= 1.27D-07
 IDIUse=1 WtCom= 1.00D+00 WtEn= 0.00D+00
 Coeff-Com:  0.510D-03-0.657D-03 0.118D-02 0.222D-02-0.746D-02-0.584D-01
 Coeff-Com:  0.641D-02 0.175D+00 0.881D+00
 Coeff:      0.510D-03-0.657D-03 0.118D-02 0.222D-02-0.746D-02-0.584D-01
 Coeff:      0.641D-02 0.175D+00 0.881D+00
 Gap=     0.055 Goal=   None    Shift=    0.000
 Gap=     0.049 Goal=   None    Shift=    0.000
 RMSDP=1.93D-05 MaxDP=1.62D-03 DE=-3.20D-07 OVMax= 3.23D-04

 Cycle  10  Pass 1  IDiag  1:
 E= -1136.13623387968     Delta-E=       -0.000000026718 Rises=F Damp=F
 DIIS: error= 5.20D-06 at cycle  10 NSaved=  10.
 NSaved=10 IEnMin=10 EnMin= -1136.13623387968     IErMin=10 ErrMin= 5.20D-06
 ErrMax= 5.20D-06  0.00D+00 EMaxC= 1.00D-01 BMatC= 7.54D-09 BMatP= 9.67D-09
 IDIUse=1 WtCom= 1.00D+00 WtEn= 0.00D+00
 Coeff-Com:  0.129D-03-0.165D-03 0.199D-02 0.130D-02 0.253D-03-0.871D-03
 Coeff-Com: -0.390D-01-0.147D+00 0.564D+00 0.619D+00
 Coeff:      0.129D-03-0.165D-03 0.199D-02 0.130D-02 0.253D-03-0.871D-03
 Coeff:     -0.390D-01-0.147D+00 0.564D+00 0.619D+00
 Gap=     0.055 Goal=   None    Shift=    0.000
 Gap=     0.049 Goal=   None    Shift=    0.000
 RMSDP=1.21D-05 MaxDP=1.46D-03 DE=-2.67D-08 OVMax= 1.90D-04

 Cycle  11  Pass 1  IDiag  1:
 E= -1136.13623389645     Delta-E=       -0.000000016778 Rises=F Damp=F
 DIIS: error= 1.63D-06 at cycle  11 NSaved=  11.
 NSaved=11 IEnMin=11 EnMin= -1136.13623389645     IErMin=11 ErrMin= 1.63D-06
 ErrMax= 1.63D-06  0.00D+00 EMaxC= 1.00D-01 BMatC= 9.84D-10 BMatP= 7.54D-09
 IDIUse=1 WtCom= 1.00D+00 WtEn= 0.00D+00
 Coeff-Com: -0.615D-04 0.812D-04 0.854D-03 0.229D-03 0.199D-02 0.792D-02
 Coeff-Com: -0.158D-01-0.829D-01-0.295D-01 0.219D+00 0.898D+00
 Coeff:     -0.615D-04 0.812D-04 0.854D-03 0.229D-03 0.199D-02 0.792D-02
 Coeff:     -0.158D-01-0.829D-01-0.295D-01 0.219D+00 0.898D+00
 Gap=     0.055 Goal=   None    Shift=    0.000
 Gap=     0.049 Goal=   None    Shift=    0.000
 RMSDP=6.40D-06 MaxDP=6.97D-04 DE=-1.68D-08 OVMax= 1.17D-04

 Cycle  12  Pass 1  IDiag  1:
 E= -1136.13623390060     Delta-E=       -0.000000004146 Rises=F Damp=F
 DIIS: error= 1.00D-06 at cycle  12 NSaved=  12.
 NSaved=12 IEnMin=12 EnMin= -1136.13623390060     IErMin=12 ErrMin= 1.00D-06
 ErrMax= 1.00D-06  0.00D+00 EMaxC= 1.00D-01 BMatC= 2.09D-10 BMatP= 9.84D-10
 IDIUse=1 WtCom= 1.00D+00 WtEn= 0.00D+00
 Coeff-Com: -0.791D-04 0.102D-03-0.169D-03-0.273D-03 0.102D-02 0.585D-02
 Coeff-Com:  0.125D-02-0.132D-01-0.134D+00-0.381D-01 0.331D+00 0.847D+00
 Coeff:     -0.791D-04 0.102D-03-0.169D-03-0.273D-03 0.102D-02 0.585D-02
 Coeff:      0.125D-02-0.132D-01-0.134D+00-0.381D-01 0.331D+00 0.847D+00
 Gap=     0.055 Goal=   None    Shift=    0.000
 Gap=     0.049 Goal=   None    Shift=    0.000
 RMSDP=3.02D-06 MaxDP=3.05D-04 DE=-4.15D-09 OVMax= 6.51D-05

 Cycle  13  Pass 1  IDiag  1:
 E= -1136.13623390159     Delta-E=       -0.000000000995 Rises=F Damp=F
 DIIS: error= 3.35D-07 at cycle  13 NSaved=  13.
 NSaved=13 IEnMin=13 EnMin= -1136.13623390159     IErMin=13 ErrMin= 3.35D-07
 ErrMax= 3.35D-07  0.00D+00 EMaxC= 1.00D-01 BMatC= 2.63D-11 BMatP= 2.09D-10
 IDIUse=1 WtCom= 1.00D+00 WtEn= 0.00D+00
 Coeff-Com:  0.197D-04-0.262D-04-0.160D-03-0.950D-05-0.459D-03-0.214D-02
 Coeff-Com:  0.329D-02 0.201D-01 0.211D-02-0.458D-01-0.166D+00-0.790D-01
 Coeff-Com:  0.127D+01
 Coeff:      0.197D-04-0.262D-04-0.160D-03-0.950D-05-0.459D-03-0.214D-02
 Coeff:      0.329D-02 0.201D-01 0.211D-02-0.458D-01-0.166D+00-0.790D-01
 Coeff:      0.127D+01
 Gap=     0.055 Goal=   None    Shift=    0.000
 Gap=     0.049 Goal=   None    Shift=    0.000
 RMSDP=1.39D-06 MaxDP=5.63D-05 DE=-9.95D-10 OVMax= 3.86D-05

 Cycle  14  Pass 1  IDiag  1:
 E= -1136.13623390183     Delta-E=       -0.000000000237 Rises=F Damp=F
 DIIS: error= 1.19D-07 at cycle  14 NSaved=  14.
 NSaved=14 IEnMin=14 EnMin= -1136.13623390183     IErMin=14 ErrMin= 1.19D-07
 ErrMax= 1.19D-07  0.00D+00 EMaxC= 1.00D-01 BMatC= 3.90D-12 BMatP= 2.63D-11
 IDIUse=1 WtCom= 1.00D+00 WtEn= 0.00D+00
 Coeff-Com:  0.125D-04-0.160D-04 0.310D-04 0.359D-04-0.133D-03-0.914D-03
 Coeff-Com: -0.379D-03 0.870D-03 0.220D-01 0.916D-02-0.327D-01-0.127D+00
 Coeff-Com: -0.159D+00 0.129D+01
 Coeff:      0.125D-04-0.160D-04 0.310D-04 0.359D-04-0.133D-03-0.914D-03
 Coeff:     -0.379D-03 0.870D-03 0.220D-01 0.916D-02-0.327D-01-0.127D+00
 Coeff:     -0.159D+00 0.129D+01
 Gap=     0.055 Goal=   None    Shift=    0.000
 Gap=     0.049 Goal=   None    Shift=    0.000
 RMSDP=5.22D-07 MaxDP=3.19D-05 DE=-2.37D-10 OVMax= 1.58D-05

 Cycle  15  Pass 1  IDiag  1:
 E= -1136.13623390186     Delta-E=       -0.000000000029 Rises=F Damp=F
 DIIS: error= 3.33D-08 at cycle  15 NSaved=  15.
 NSaved=15 IEnMin=15 EnMin= -1136.13623390186     IErMin=15 ErrMin= 3.33D-08
 ErrMax= 3.33D-08  0.00D+00 EMaxC= 1.00D-01 BMatC= 5.18D-13 BMatP= 3.90D-12
 IDIUse=1 WtCom= 1.00D+00 WtEn= 0.00D+00
 Coeff-Com: -0.372D-05 0.501D-05 0.232D-04-0.632D-06 0.641D-04 0.375D-03
 Coeff-Com: -0.529D-03-0.343D-02 0.105D-04 0.801D-02 0.263D-01 0.727D-02
 Coeff-Com: -0.207D+00 0.904D-01 0.108D+01
 Coeff:     -0.372D-05 0.501D-05 0.232D-04-0.632D-06 0.641D-04 0.375D-03
 Coeff:     -0.529D-03-0.343D-02 0.105D-04 0.801D-02 0.263D-01 0.727D-02
 Coeff:     -0.207D+00 0.904D-01 0.108D+01
 Gap=     0.055 Goal=   None    Shift=    0.000
 Gap=     0.049 Goal=   None    Shift=    0.000
 RMSDP=1.49D-07 MaxDP=6.64D-06 DE=-2.93D-11 OVMax= 4.48D-06

 Cycle  16  Pass 1  IDiag  1:
 E= -1136.13623390187     Delta-E=       -0.000000000006 Rises=F Damp=F
 DIIS: error= 1.31D-08 at cycle  16 NSaved=  16.
 NSaved=16 IEnMin=16 EnMin= -1136.13623390187     IErMin=16 ErrMin= 1.31D-08
 ErrMax= 1.31D-08  0.00D+00 EMaxC= 1.00D-01 BMatC= 7.53D-14 BMatP= 5.18D-13
 IDIUse=1 WtCom= 1.00D+00 WtEn= 0.00D+00
 Coeff-Com: -0.824D-06 0.101D-05-0.224D-05-0.773D-06 0.605D-05 0.480D-04
 Coeff-Com:  0.886D-04 0.367D-03-0.231D-02-0.257D-02-0.964D-03 0.169D-01
 Coeff-Com:  0.530D-01-0.209D+00-0.425D-01 0.119D+01
 Coeff:     -0.824D-06 0.101D-05-0.224D-05-0.773D-06 0.605D-05 0.480D-04
 Coeff:      0.886D-04 0.367D-03-0.231D-02-0.257D-02-0.964D-03 0.169D-01
 Coeff:      0.530D-01-0.209D+00-0.425D-01 0.119D+01
 Gap=     0.055 Goal=   None    Shift=    0.000
 Gap=     0.049 Goal=   None    Shift=    0.000
 RMSDP=5.87D-08 MaxDP=5.07D-06 DE=-6.14D-12 OVMax= 1.43D-06

 Cycle  17  Pass 1  IDiag  1:
 E= -1136.13623390187     Delta-E=       -0.000000000008 Rises=F Damp=F
 DIIS: error= 5.86D-09 at cycle  17 NSaved=  17.
 NSaved=17 IEnMin=17 EnMin= -1136.13623390187     IErMin=17 ErrMin= 5.86D-09
 ErrMax= 5.86D-09  0.00D+00 EMaxC= 1.00D-01 BMatC= 1.38D-14 BMatP= 7.53D-14
 IDIUse=1 WtCom= 1.00D+00 WtEn= 0.00D+00
 Coeff-Com:  0.573D-06-0.773D-06-0.323D-05-0.165D-06-0.820D-05-0.483D-04
 Coeff-Com:  0.625D-04 0.404D-03 0.156D-03-0.809D-03-0.319D-02-0.160D-02
 Coeff-Com:  0.220D-01 0.500D-02-0.169D+00 0.657D-01 0.108D+01
 Coeff:      0.573D-06-0.773D-06-0.323D-05-0.165D-06-0.820D-05-0.483D-04
 Coeff:      0.625D-04 0.404D-03 0.156D-03-0.809D-03-0.319D-02-0.160D-02
 Coeff:      0.220D-01 0.500D-02-0.169D+00 0.657D-01 0.108D+01
 Gap=     0.055 Goal=   None    Shift=    0.000
 Gap=     0.049 Goal=   None    Shift=    0.000
 RMSDP=1.65D-08 MaxDP=6.50D-07 DE=-8.19D-12 OVMax= 5.24D-07

 Cycle  18  Pass 1  IDiag  1:
 E= -1136.13623390187     Delta-E=        0.000000000003 Rises=F Damp=F
 DIIS: error= 2.47D-09 at cycle  18 NSaved=  18.
 NSaved=18 IEnMin=17 EnMin= -1136.13623390187     IErMin=18 ErrMin= 2.47D-09
 ErrMax= 2.47D-09  0.00D+00 EMaxC= 1.00D-01 BMatC= 3.42D-15 BMatP= 1.38D-14
 IDIUse=1 WtCom= 1.00D+00 WtEn= 0.00D+00
 Large coefficients: NSaved= 18 BigCof=    0.00 CofMax=   10.00 Det=-7.52D-15
 Inversion failed.  Reducing to 17 matrices.
 Large coefficients: NSaved= 17 BigCof=    0.00 CofMax=   10.00 Det=-8.10D-15
 Inversion failed.  Reducing to 16 matrices.
 Large coefficients: NSaved= 16 BigCof=    0.00 CofMax=   10.00 Det=-8.10D-15
 Inversion failed.  Reducing to 15 matrices.
 Coeff-Com:  0.548D-06 0.184D-05 0.221D-05-0.230D-04-0.110D-03 0.247D-03
 Coeff-Com:  0.576D-03 0.647D-03-0.321D-02-0.915D-02 0.380D-01 0.306D-02
 Coeff-Com: -0.291D+00 0.194D+00 0.107D+01
 Coeff:      0.548D-06 0.184D-05 0.221D-05-0.230D-04-0.110D-03 0.247D-03
 Coeff:      0.576D-03 0.647D-03-0.321D-02-0.915D-02 0.380D-01 0.306D-02
 Coeff:     -0.291D+00 0.194D+00 0.107D+01
 Gap=     0.055 Goal=   None    Shift=    0.000
 Gap=     0.049 Goal=   None    Shift=    0.000
 RMSDP=1.03D-08 MaxDP=9.80D-07 DE= 2.96D-12 OVMax= 3.09D-07

 Cycle  19  Pass 1  IDiag  1:
 E= -1136.13623390187     Delta-E=        0.000000000005 Rises=F Damp=F
 DIIS: error= 1.28D-09 at cycle  19 NSaved=  16.
 NSaved=16 IEnMin=14 EnMin= -1136.13623390187     IErMin=16 ErrMin= 1.28D-09
 ErrMax= 1.28D-09  0.00D+00 EMaxC= 1.00D-01 BMatC= 4.33D-16 BMatP= 3.42D-15
 IDIUse=1 WtCom= 1.00D+00 WtEn= 0.00D+00
 Large coefficients: NSaved= 16 BigCof=    0.00 CofMax=   10.00 Det=-1.08D-15
 Inversion failed.  Reducing to 15 matrices.
 Coeff-Com: -0.758D-06-0.376D-05-0.490D-05-0.212D-04 0.155D-03 0.158D-03
 Coeff-Com:  0.629D-04-0.929D-03-0.428D-02 0.115D-01 0.156D-01-0.636D-01
 Coeff-Com: -0.987D-01 0.110D+00 0.103D+01
 Coeff:     -0.758D-06-0.376D-05-0.490D-05-0.212D-04 0.155D-03 0.158D-03
 Coeff:      0.629D-04-0.929D-03-0.428D-02 0.115D-01 0.156D-01-0.636D-01
 Coeff:     -0.987D-01 0.110D+00 0.103D+01
 Gap=     0.055 Goal=   None    Shift=    0.000
 Gap=     0.049 Goal=   None    Shift=    0.000
 RMSDP=3.78D-09 MaxDP=2.68D-07 DE= 4.77D-12 OVMax= 1.26D-07

 SCF Done:  E(UB3LYP) =  -1136.13623390     A.U. after   19 cycles
            NFock= 19  Conv=0.38D-08     -V/T= 2.0029
 <Sx>= 0.0000 <Sy>= 0.0000 <Sz>= 0.5000 <S**2>= 0.7612 S= 0.5056
 <L.S>= 0.000000000000E+00
 KE= 1.132863486566D+03 PE=-3.390836306978D+03 EE= 7.911535754365D+02
 Annihilation of the first spin contaminant:
 S**2 before annihilation     0.7612,   after     0.7501
 Leave Link  502 at Wed Nov 29 16:57:45 2023, MaxMem=  1879048192 cpu:             177.5 elap:              15.7
 (Enter /home/sekinelabo/g16/l601.exe)
 Copying SCF densities to generalized density rwf, IOpCl= 1 IROHF=0.

 **********************************************************************

            Population analysis using the SCF Density.

 **********************************************************************

 Orbital symmetries:
 Alpha Orbitals:
       Occupied  (A) (A) (A) (A) (A) (A) (A) (A) (A) (A) (A) (A)
                 (A) (A) (A) (A) (A) (A) (A) (A) (A) (A) (A) (A)
                 (A) (A) (A) (A) (A) (A) (A) (A) (A) (A) (A) (A)
                 (A) (A) (A)
       Virtual   (A) (A) (A) (A) (A) (A) (A) (A) (A) (A) (A) (A)
                 (A) (A) (A) (A) (A) (A) (A) (A) (A) (A) (A) (A)
                 (A) (A) (A) (A) (A) (A) (A) (A) (A) (A) (A) (A)
                 (A) (A) (A) (A) (A) (A) (A) (A) (A) (A) (A) (A)
                 (A) (A) (A) (A) (A) (A) (A) (A) (A) (A) (A) (A)
                 (A) (A) (A) (A) (A) (A) (A) (A) (A) (A) (A) (A)
                 (A) (A) (A) (A) (A) (A) (A) (A) (A) (A) (A) (A)
                 (A) (A) (A) (A) (A) (A) (A) (A) (A) (A) (A) (A)
                 (A) (A) (A) (A) (A) (A) (A) (A) (A) (A) (A) (A)
                 (A) (A) (A) (A) (A) (A) (A) (A) (A) (A) (A) (A)
                 (A) (A) (A) (A) (A) (A) (A) (A) (A) (A) (A) (A)
                 (A) (A) (A) (A) (A) (A) (A) (A) (A) (A) (A) (A)
                 (A) (A) (A) (A) (A) (A) (A) (A) (A) (A) (A) (A)
                 (A) (A) (A) (A) (A) (A) (A) (A) (A) (A) (A) (A)
                 (A) (A) (A)
 Beta  Orbitals:
       Occupied  (A) (A) (A) (A) (A) (A) (A) (A) (A) (A) (A) (A)
                 (A) (A) (A) (A) (A) (A) (A) (A) (A) (A) (A) (A)
                 (A) (A) (A) (A) (A) (A) (A) (A) (A) (A) (A) (A)
                 (A) (A)
       Virtual   (A) (A) (A) (A) (A) (A) (A) (A) (A) (A) (A) (A)
                 (A) (A) (A) (A) (A) (A) (A) (A) (A) (A) (A) (A)
                 (A) (A) (A) (A) (A) (A) (A) (A) (A) (A) (A) (A)
                 (A) (A) (A) (A) (A) (A) (A) (A) (A) (A) (A) (A)
                 (A) (A) (A) (A) (A) (A) (A) (A) (A) (A) (A) (A)
                 (A) (A) (A) (A) (A) (A) (A) (A) (A) (A) (A) (A)
                 (A) (A) (A) (A) (A) (A) (A) (A) (A) (A) (A) (A)
                 (A) (A) (A) (A) (A) (A) (A) (A) (A) (A) (A) (A)
                 (A) (A) (A) (A) (A) (A) (A) (A) (A) (A) (A) (A)
                 (A) (A) (A) (A) (A) (A) (A) (A) (A) (A) (A) (A)
                 (A) (A) (A) (A) (A) (A) (A) (A) (A) (A) (A) (A)
                 (A) (A) (A) (A) (A) (A) (A) (A) (A) (A) (A) (A)
                 (A) (A) (A) (A) (A) (A) (A) (A) (A) (A) (A) (A)
                 (A) (A) (A) (A) (A) (A) (A) (A) (A) (A) (A) (A)
                 (A) (A) (A) (A)
 The electronic state is 2-A.
 Alpha  occ. eigenvalues --  -38.43973 -38.43959 -38.43895 -38.43628 -38.43580
 Alpha  occ. eigenvalues --  -38.43508 -38.43226  -2.19802  -2.19755  -2.19718
 Alpha  occ. eigenvalues --   -2.19477  -2.19459  -2.19414  -2.19066  -1.13500
 Alpha  occ. eigenvalues --   -1.13459  -1.13430  -1.13419  -1.13412  -1.13401
 Alpha  occ. eigenvalues --   -1.13398  -1.13384  -1.13321  -1.13169  -1.13164
 Alpha  occ. eigenvalues --   -1.13152  -1.13131  -1.13099  -1.13090  -1.13064
 Alpha  occ. eigenvalues --   -1.13051  -1.13017  -1.12729  -1.12722  -1.12698
 Alpha  occ. eigenvalues --   -0.18224  -0.12745  -0.12227  -0.11068
 Alpha virt. eigenvalues --   -0.05617  -0.05209  -0.04532  -0.03290  -0.03132
 Alpha virt. eigenvalues --   -0.02625  -0.01606  -0.01115  -0.00655   0.00019
 Alpha virt. eigenvalues --    0.00211   0.00333   0.00567   0.00693   0.00749
 Alpha virt. eigenvalues --    0.00835   0.00874   0.01118   0.01166   0.01257
 Alpha virt. eigenvalues --    0.01297   0.01452   0.01692   0.01738   0.01984
 Alpha virt. eigenvalues --    0.02369   0.02485   0.02629   0.02661   0.02690
 Alpha virt. eigenvalues --    0.02733   0.02806   0.02920   0.02999   0.03013
 Alpha virt. eigenvalues --    0.03070   0.03150   0.03309   0.03428   0.03439
 Alpha virt. eigenvalues --    0.04150   0.04235   0.04450   0.04651   0.04804
 Alpha virt. eigenvalues --    0.05017   0.05090   0.05398   0.05470   0.05646
 Alpha virt. eigenvalues --    0.05779   0.06006   0.06569   0.07143   0.07363
 Alpha virt. eigenvalues --    0.07498   0.07789   0.07945   0.08144   0.08619
 Alpha virt. eigenvalues --    0.08888   0.09825   0.10687   0.10966   0.11845
 Alpha virt. eigenvalues --    0.12278   0.12502   0.12610   0.12814   0.13098
 Alpha virt. eigenvalues --    0.13662   0.13868   0.13945   0.14462   0.14491
 Alpha virt. eigenvalues --    0.14572   0.14990   0.15066   0.15941   0.16436
 Alpha virt. eigenvalues --    0.26424   0.27222   0.28019   0.28354   0.28927
 Alpha virt. eigenvalues --    0.30264   0.30490   0.31458   0.32236   0.33691
 Alpha virt. eigenvalues --    0.34135   0.35921   0.36401   0.36954   0.38252
 Alpha virt. eigenvalues --    0.38772   0.39238   0.40939   0.41275   0.42118
 Alpha virt. eigenvalues --    0.43411   0.43768   0.44009   0.44126   0.44283
 Alpha virt. eigenvalues --    0.44773   0.45080   0.45270   0.45657   0.45927
 Alpha virt. eigenvalues --    0.46343   0.46771   0.47123   0.48312   0.48896
 Alpha virt. eigenvalues --    0.49026   0.49519   0.49965   0.50370   0.51205
 Alpha virt. eigenvalues --    0.52173   0.52992   0.54324   0.55080   0.55628
 Alpha virt. eigenvalues --    0.56351   0.57266   0.58161   0.58703   0.59972
 Alpha virt. eigenvalues --    0.60738   0.61508   0.62421   0.64274   0.64864
 Alpha virt. eigenvalues --    0.68156   2.02454   2.12459   2.13916   2.17774
 Alpha virt. eigenvalues --    2.19034   2.21996   2.23022   4.43838   4.44179
 Alpha virt. eigenvalues --    4.44982   4.45263   4.45745   4.45961   4.46373
 Alpha virt. eigenvalues --    4.46818   4.47165   4.47306   4.47898   4.49104
 Alpha virt. eigenvalues --    4.49885   4.50293   4.51431   4.51858   4.53005
 Alpha virt. eigenvalues --    4.53744   4.56981   4.59514   4.62792  96.21989
 Alpha virt. eigenvalues --   96.33458  96.35005  96.39634  96.41185  96.44667
 Alpha virt. eigenvalues --   96.46586
  Beta  occ. eigenvalues --  -38.43969 -38.43906 -38.43881 -38.43616 -38.43552
  Beta  occ. eigenvalues --  -38.43445 -38.43216  -2.19749  -2.19707  -2.19694
  Beta  occ. eigenvalues --   -2.19441  -2.19427  -2.19299  -2.19048  -1.13435
  Beta  occ. eigenvalues --   -1.13417  -1.13414  -1.13395  -1.13385  -1.13374
  Beta  occ. eigenvalues --   -1.13361  -1.13334  -1.13310  -1.13143  -1.13122
  Beta  occ. eigenvalues --   -1.13119  -1.13091  -1.13077  -1.13041  -1.13013
  Beta  occ. eigenvalues --   -1.12971  -1.12937  -1.12718  -1.12703  -1.12683
  Beta  occ. eigenvalues --   -0.17463  -0.12577  -0.12054
  Beta virt. eigenvalues --   -0.07164  -0.05480  -0.05066  -0.04320  -0.02760
  Beta virt. eigenvalues --   -0.02592  -0.01715  -0.01490  -0.01046  -0.00276
  Beta virt. eigenvalues --   -0.00012   0.00279   0.00375   0.00694   0.00772
  Beta virt. eigenvalues --    0.00836   0.00868   0.00898   0.01235   0.01265
  Beta virt. eigenvalues --    0.01356   0.01502   0.01549   0.01749   0.01765
  Beta virt. eigenvalues --    0.02170   0.02363   0.02536   0.02662   0.02670
  Beta virt. eigenvalues --    0.02746   0.02787   0.02866   0.02942   0.03021
  Beta virt. eigenvalues --    0.03054   0.03135   0.03223   0.03412   0.03537
  Beta virt. eigenvalues --    0.03550   0.04310   0.04333   0.04589   0.04770
  Beta virt. eigenvalues --    0.04929   0.05161   0.05232   0.05491   0.05552
  Beta virt. eigenvalues --    0.05684   0.05948   0.06119   0.06758   0.07222
  Beta virt. eigenvalues --    0.07489   0.07590   0.07921   0.08054   0.08162
  Beta virt. eigenvalues --    0.08745   0.09077   0.10039   0.11008   0.11296
  Beta virt. eigenvalues --    0.12017   0.12545   0.12687   0.12830   0.12956
  Beta virt. eigenvalues --    0.13320   0.13785   0.14002   0.14214   0.14569
  Beta virt. eigenvalues --    0.14709   0.14782   0.15223   0.15340   0.16283
  Beta virt. eigenvalues --    0.16690   0.26576   0.27563   0.28127   0.28816
  Beta virt. eigenvalues --    0.29210   0.30418   0.30894   0.31752   0.32566
  Beta virt. eigenvalues --    0.33984   0.34407   0.36104   0.36654   0.37158
  Beta virt. eigenvalues --    0.38430   0.38947   0.39396   0.41095   0.41467
  Beta virt. eigenvalues --    0.42320   0.43552   0.43953   0.44132   0.44244
  Beta virt. eigenvalues --    0.44453   0.44899   0.45179   0.45417   0.45818
  Beta virt. eigenvalues --    0.46099   0.46479   0.46864   0.47282   0.48462
  Beta virt. eigenvalues --    0.49043   0.49150   0.49613   0.50042   0.50556
  Beta virt. eigenvalues --    0.51360   0.52392   0.53274   0.54552   0.55231
  Beta virt. eigenvalues --    0.55830   0.56518   0.57386   0.58325   0.58902
  Beta virt. eigenvalues --    0.60301   0.60953   0.61608   0.62584   0.64507
  Beta virt. eigenvalues --    0.65053   0.68201   2.02571   2.12489   2.13966
  Beta virt. eigenvalues --    2.17887   2.19143   2.22197   2.23162   4.43875
  Beta virt. eigenvalues --    4.44231   4.45013   4.45313   4.45783   4.46002
  Beta virt. eigenvalues --    4.46401   4.46868   4.47212   4.47333   4.47935
  Beta virt. eigenvalues --    4.49167   4.49912   4.50375   4.51473   4.51910
  Beta virt. eigenvalues --    4.53042   4.53776   4.57062   4.59550   4.62838
  Beta virt. eigenvalues --   96.22026  96.33470  96.35023  96.39673  96.41218
  Beta virt. eigenvalues --   96.44733  96.46626
          Condensed to atoms (all electrons):
               1          2          3          4          5          6
     1  Na  10.981010   0.247127  -0.145043  -0.561061   0.117040  -0.081413
     2  Na   0.247127  10.961582  -0.074829  -0.423499   0.183978   0.386030
     3  Na  -0.145043  -0.074829  10.567419   0.304953  -0.016639   0.174264
     4  Na  -0.561061  -0.423499   0.304953  12.055946  -0.111005   0.219003
     5  Na   0.117040   0.183978  -0.016639  -0.111005  10.877303   0.323336
     6  Na  -0.081413   0.386030   0.174264   0.219003   0.323336  12.249629
     7  Na   0.379166  -0.440469  -0.191989  -0.797025  -0.122430  -1.973318
               7
     1  Na   0.379166
     2  Na  -0.440469
     3  Na  -0.191989
     4  Na  -0.797025
     5  Na  -0.122430
     6  Na  -1.973318
     7  Na  14.514757
          Atomic-Atomic Spin Densities.
               1          2          3          4          5          6
     1  Na  -0.007292  -0.060103  -0.030791  -0.126291  -0.048586  -0.253724
     2  Na  -0.060103  -0.038959   0.002609   0.043858  -0.031122   0.067071
     3  Na  -0.030791   0.002609   0.008408   0.080841  -0.033646   0.055719
     4  Na  -0.126291   0.043858   0.080841   0.486242   0.148713   0.661266
     5  Na  -0.048586  -0.031122  -0.033646   0.148713   0.111921   0.192820
     6  Na  -0.253724   0.067071   0.055719   0.661266   0.192820   1.254367
     7  Na   0.424843  -0.125879  -0.144882  -0.940002  -0.252807  -1.708553
               7
     1  Na   0.424843
     2  Na  -0.125879
     3  Na  -0.144882
     4  Na  -0.940002
     5  Na  -0.252807
     6  Na  -1.708553
     7  Na   3.342605
 Mulliken charges and spin densities:
               1          2
     1  Na   0.063174  -0.101945
     2  Na   0.160081  -0.142525
     3  Na   0.381864  -0.061742
     4  Na   0.312688   0.354627
     5  Na  -0.251582   0.087293
     6  Na  -0.297532   0.268966
     7  Na  -0.368693   0.595326
 Sum of Mulliken charges =  -0.00000   1.00000
 Mulliken charges and spin densities with hydrogens summed into heavy atoms:
               1          2
     1  Na   0.063174  -0.101945
     2  Na   0.160081  -0.142525
     3  Na   0.381864  -0.061742
     4  Na   0.312688   0.354627
     5  Na  -0.251582   0.087293
     6  Na  -0.297532   0.268966
     7  Na  -0.368693   0.595326
 Electronic spatial extent (au):  <R**2>=           2420.8585
 Charge=              0.0000 electrons
 Dipole moment (field-independent basis, Debye):
    X=              0.2665    Y=             -0.2060    Z=              0.0840  Tot=              0.3472
 Quadrupole moment (field-independent basis, Debye-Ang):
   XX=            -57.6138   YY=            -66.1871   ZZ=            -69.5505
   XY=              0.5556   XZ=              0.9965   YZ=             -0.6482
 Traceless Quadrupole moment (field-independent basis, Debye-Ang):
   XX=              6.8366   YY=             -1.7366   ZZ=             -5.1000
   XY=              0.5556   XZ=              0.9965   YZ=             -0.6482
 Octapole moment (field-independent basis, Debye-Ang**2):
  XXX=             20.6797  YYY=              1.2895  ZZZ=              1.6829  XYY=             -7.9464
  XXY=            -11.2924  XXZ=             -5.5276  XZZ=             -0.7945  YZZ=              0.4493
  YYZ=             -1.3464  XYZ=              1.8150
 Hexadecapole moment (field-independent basis, Debye-Ang**3):
 XXXX=          -1617.9968 YYYY=          -1486.9624 ZZZZ=           -895.3858 XXXY=             -2.0744
 XXXZ=            -52.0215 YYYX=             24.5721 YYYZ=            -40.4842 ZZZX=              1.0098
 ZZZY=            -10.1290 XXYY=           -505.0414 XXZZ=           -451.7337 YYZZ=           -382.0199
 XXYZ=             38.4722 YYXZ=             69.4057 ZZXY=             -9.7782
 N-N= 3.306830110734D+02 E-N=-3.390836306806D+03  KE= 1.132863486566D+03
                          Isotropic Fermi Contact Couplings
        Atom                 a.u.       MegaHertz       Gauss      10(-4) cm-1
     1  Na(23)             0.02136      25.26388       9.01478       8.42712
     2  Na(23)             0.02775      32.83201      11.71528      10.95158
     3  Na(23)             0.00329       3.89611       1.39023       1.29960
     4  Na(23)             0.07994      94.57484      33.74666      31.54677
     5  Na(23)             0.03112      36.81083      13.13502      12.27877
     6  Na(23)             0.19519     230.91404      82.39587      77.02463
     7  Na(23)             0.24028     284.25381     101.42883      94.81686
 --------------------------------------------------------
       Center         ----  Spin Dipole Couplings  ----
                      3XX-RR        3YY-RR        3ZZ-RR
 --------------------------------------------------------
     1   Atom       -0.007418     -0.008171      0.015590
     2   Atom       -0.006214     -0.000453      0.006667
     3   Atom       -0.001929     -0.006501      0.008430
     4   Atom        0.000722     -0.015675      0.014953
     5   Atom       -0.010153     -0.005358      0.015512
     6   Atom       -0.007593      0.003862      0.003731
     7   Atom        0.002104     -0.004017      0.001913
 --------------------------------------------------------
                        XY            XZ            YZ
 --------------------------------------------------------
     1   Atom        0.003444     -0.008614     -0.009314
     2   Atom       -0.002600     -0.002584      0.008566
     3   Atom       -0.000426      0.005467     -0.000998
     4   Atom       -0.008123      0.021583     -0.011498
     5   Atom        0.007096     -0.008600     -0.012847
     6   Atom       -0.007487     -0.009635      0.016625
     7   Atom        0.000612      0.006682      0.000825
 --------------------------------------------------------


 ---------------------------------------------------------------------------------
              Anisotropic Spin Dipole Couplings in Principal Axis System
 ---------------------------------------------------------------------------------

       Atom             a.u.   MegaHertz   Gauss  10(-4) cm-1        Axes

              Baa    -0.0115    -1.630    -0.581    -0.544 -0.3234  0.9218  0.2138
     1 Na(23) Bbb    -0.0102    -1.442    -0.514    -0.481  0.8965  0.2261  0.3810
              Bcc     0.0217     3.071     1.096     1.024 -0.3028 -0.3149  0.8995
 
              Baa    -0.0073    -1.035    -0.369    -0.345  0.8365  0.5224 -0.1653
     2 Na(23) Bbb    -0.0057    -0.809    -0.289    -0.270 -0.5163  0.6504 -0.5572
              Bcc     0.0131     1.843     0.658     0.615 -0.1835  0.5514  0.8138
 
              Baa    -0.0066    -0.928    -0.331    -0.309  0.0234  0.9981  0.0579
     3 Na(23) Bbb    -0.0043    -0.604    -0.216    -0.202  0.9187  0.0014 -0.3950
              Bcc     0.0108     1.532     0.547     0.511  0.3943 -0.0624  0.9168
 
              Baa    -0.0196    -2.772    -0.989    -0.925  0.1325  0.9624  0.2373
     4 Na(23) Bbb    -0.0149    -2.102    -0.750    -0.701  0.8154  0.0303 -0.5781
              Bcc     0.0345     4.873     1.739     1.626  0.5636 -0.2701  0.7807
 
              Baa    -0.0153    -2.155    -0.769    -0.719  0.7911 -0.6107 -0.0339
     5 Na(23) Bbb    -0.0097    -1.372    -0.489    -0.458  0.5354  0.6647  0.5211
              Bcc     0.0250     3.527     1.259     1.177 -0.2957 -0.4304  0.8528
 
              Baa    -0.0140    -1.971    -0.703    -0.658  0.5787 -0.4129  0.7033
     6 Na(23) Bbb    -0.0110    -1.550    -0.553    -0.517  0.7369  0.6341 -0.2341
              Bcc     0.0249     3.521     1.256     1.175 -0.3493  0.6537  0.6713
 
              Baa    -0.0047    -0.666    -0.238    -0.222 -0.6669 -0.2469  0.7031
     7 Na(23) Bbb    -0.0041    -0.573    -0.204    -0.191 -0.2286  0.9658  0.1223
              Bcc     0.0088     1.239     0.442     0.413  0.7093  0.0791  0.7005
 

 ---------------------------------------------------------------------------------

 No NMR shielding tensors so no spin-rotation constants.
 Leave Link  601 at Wed Nov 29 16:57:46 2023, MaxMem=  1879048192 cpu:               2.3 elap:               0.2
 (Enter /home/sekinelabo/g16/l701.exe)
 ... and contract with generalized density number  0.
 Compute integral first derivatives.
 Leave Link  701 at Wed Nov 29 16:57:46 2023, MaxMem=  1879048192 cpu:               1.5 elap:               0.1
 (Enter /home/sekinelabo/g16/l702.exe)
 L702 exits ... SP integral derivatives will be done elsewhere.
 Leave Link  702 at Wed Nov 29 16:57:46 2023, MaxMem=  1879048192 cpu:               0.5 elap:               0.0
 (Enter /home/sekinelabo/g16/l703.exe)
 Integral derivatives from FoFJK, PRISM(SPDF).
 Compute integral first derivatives, UseDBF=F ICtDFT=           0.
 Calling FoFJK, ICntrl=      2127 FMM=F ISym2X=0 I1Cent= 0 IOpClX= 1 NMat=1 NMatS=1 NMatT=0.
 FoFJK:  IHMeth= 1 ICntrl=    2127 DoSepK=F KAlg= 0 I1Cent=           0 FoldK=F
 IRaf=         0 NMat=       1 IRICut=       1 DoRegI=T DoRafI=F ISym2E= 0 IDoP0=0 IntGTp=1.
 FoFCou: FMM=F IPFlag=           0 FMFlag=      100000 FMFlg1=         800
         NFxFlg=           0 DoJE=F BraDBF=F KetDBF=F FulRan=T
         wScrn=  0.000000 ICntrl=      2127 IOpCl=  1 I1Cent=           0 NGrid=           0
         NMat0=    1 NMatS0=      1 NMatT0=    0 NMatD0=    1 NMtDS0=    0 NMtDT0=    0
 Symmetry not used in FoFCou.
 Leave Link  703 at Wed Nov 29 16:57:48 2023, MaxMem=  1879048192 cpu:              33.3 elap:               2.2
 (Enter /home/sekinelabo/g16/l716.exe)
 Dipole        = 1.04852351D-01-8.10515468D-02 3.30620597D-02
 ***** Axes restored to original set *****
 -------------------------------------------------------------------
 Center     Atomic                   Forces (Hartrees/Bohr)
 Number     Number              X              Y              Z
 -------------------------------------------------------------------
      1       11          -0.000502131   -0.001573979   -0.000188472
      2       11           0.001760020    0.000092781    0.000200006
      3       11          -0.003075396    0.001552642    0.002074764
      4       11           0.000572268   -0.001523239   -0.000109721
      5       11          -0.001669717    0.001179028   -0.002642883
      6       11           0.001715457    0.001236373   -0.000948893
      7       11           0.001199501   -0.000963606    0.001615198
 -------------------------------------------------------------------
 Cartesian Forces:  Max     0.003075396 RMS     0.001484130
 Z-matrix is all fixed cartesians, so copy forces.
 Force constants in Cartesian coordinates: 
                1             2             3             4             5 
      1  0.590571D-01
      2 -0.758544D-02  0.467007D-01
      3  0.826693D-02 -0.806850D-02  0.540072D-01
      4 -0.442663D-03 -0.327119D-02 -0.504732D-02  0.505006D-01
      5  0.167987D-02  0.238430D-02  0.998307D-03  0.776208D-02  0.623694D-01
      6 -0.506903D-02 -0.397814D-02  0.373943D-03  0.467053D-02  0.992119D-02
      7  0.732972D-03  0.545455D-02  0.109703D-02  0.234672D-02 -0.961569D-03
      8  0.448026D-02  0.396416D-02 -0.122306D-02  0.233294D-02 -0.121194D-03
      9 -0.184721D-02  0.985379D-03  0.262667D-02  0.261029D-02 -0.397108D-02
     10 -0.166334D-01  0.224414D-02 -0.130871D-01 -0.305798D-01  0.385231D-02
     11  0.694129D-03 -0.125066D-01  0.104210D-01 -0.195786D-01 -0.205163D-01
     12  0.152973D-01 -0.506723D-02 -0.296532D-01 -0.559629D-02 -0.683989D-02
     13  0.996093D-03  0.263012D-02 -0.587512D-02 -0.121603D-01 -0.748975D-02
     14  0.398582D-02  0.411591D-02  0.309719D-02  0.131408D-01 -0.270292D-01
     15 -0.586314D-02  0.194384D-02  0.277979D-02 -0.127324D-02 -0.832239D-02
     16 -0.105835D-01  0.121475D-01 -0.260192D-02  0.485953D-02 -0.445150D-02
     17 -0.123689D-01 -0.218908D-01 -0.416716D-02 -0.471229D-02 -0.261010D-02
     18  0.778716D-03  0.121897D-01 -0.855781D-02 -0.291737D-02 -0.395556D-02
     19 -0.331266D-01 -0.116197D-01  0.172474D-01 -0.145241D-01 -0.391445D-03
     20  0.911430D-02 -0.227677D-01 -0.105779D-02  0.432622D-02 -0.144769D-01
     21 -0.115635D-01  0.199492D-02 -0.215765D-01  0.755340D-02  0.121694D-01
                6             7             8             9            10 
      6  0.490223D-01
      7  0.622995D-03  0.449338D-01
      8 -0.497157D-02 -0.861162D-02  0.441533D-01
      9  0.383592D-02 -0.561322D-02  0.423640D-02  0.422993D-01
     10  0.149300D-01  0.881429D-03  0.421409D-02  0.451108D-02  0.110270D+00
     11  0.327318D-02  0.435884D-02  0.305859D-02 -0.345983D-02 -0.348157D-02
     12 -0.176193D-01  0.404219D-02 -0.299752D-02  0.343923D-02 -0.214292D-01
     13 -0.517425D-02 -0.120472D-01  0.481170D-02  0.107888D-01 -0.216539D-01
     14  0.152404D-01  0.749524D-03 -0.117124D-01 -0.943109D-02  0.266088D-02
     15 -0.170687D-01 -0.129752D-01  0.942773D-02 -0.241169D-01  0.135660D-01
     16 -0.279922D-02 -0.183362D-01 -0.169116D-01 -0.265864D-02 -0.253077D-01
     17 -0.406163D-02  0.903096D-02 -0.113607D-01 -0.362907D-02 -0.138452D-01
     18  0.400449D-02  0.813549D-02  0.311452D-02 -0.838249D-02 -0.535860D-02
     19 -0.718107D-02 -0.185116D-01  0.968419D-02 -0.779104D-02 -0.169769D-01
     20 -0.154234D-01 -0.100207D-01 -0.279817D-01  0.152693D-01  0.435535D-02
     21 -0.225486D-01  0.469070D-02 -0.758652D-02 -0.197017D-01  0.686766D-02
               11            12            13            14            15 
     11  0.801749D-01
     12  0.920505D-02  0.103735D+00
     13  0.114760D-01 -0.145919D-01  0.787734D-01
     14 -0.106974D-01  0.554132D-02 -0.143405D-01  0.795110D-01
     15 -0.831060D-02 -0.207583D-01  0.177292D-01 -0.114988D-01  0.967816D-01
     16  0.113582D-01  0.100445D-01 -0.161481D-01 -0.119011D-01 -0.165949D-02
     17 -0.240389D-01  0.166046D-02  0.847953D-02 -0.180365D-01  0.869395D-02
     18 -0.205462D-01 -0.186962D-01 -0.134230D-01 -0.121409D-01 -0.130735D-01
     19 -0.482695D-02  0.122334D-01 -0.177600D-01  0.570453D-02 -0.952421D-02
     20 -0.154743D-01 -0.150218D-02 -0.556711D-02 -0.161515D-01  0.806625D-02
     21  0.941738D-02 -0.204472D-01  0.105463D-01  0.919185D-02 -0.245440D-01
               16            17            18            19            20 
     16  0.860391D-01
     17  0.196813D-01  0.104151D+00
     18  0.273734D-02  0.776845D-02  0.665788D-01
     19 -0.205232D-01 -0.626541D-02  0.100474D-01  0.121422D+00
     20 -0.992284D-02 -0.262136D-01  0.135699D-01  0.771477D-02  0.123066D+00
     21 -0.306252D-02 -0.626499D-02 -0.218734D-01 -0.150320D-01 -0.189221D-01
               21 
     21  0.130691D+00
 Leave Link  716 at Wed Nov 29 16:57:48 2023, MaxMem=  1879048192 cpu:               0.4 elap:               0.0
 (Enter /home/sekinelabo/g16/l103.exe)

 GradGradGradGradGradGradGradGradGradGradGradGradGradGradGradGradGradGrad
 Berny optimization.
 Search for a local minimum.
 Step number   1 out of a maximum of    2
 All quantities printed in internal units (Hartrees-Bohrs-Radians)
 Second derivative matrix not updated -- first step.
 ITU=  0
     Eigenvalues ---    0.04692   0.04732   0.04983   0.07421   0.07860
     Eigenvalues ---    0.09295   0.10031   0.10269   0.11307   0.12820
     Eigenvalues ---    0.13224   0.14394   0.15735   0.16770   0.18605
 Angle between quadratic step and forces=  21.78 degrees.
 Linear search not attempted -- first point.
 B after Tr=    -0.000000    0.000000    0.000000
         Rot=    1.000000    0.000000   -0.000000    0.000000 Ang=   0.00 deg.
 Variable       Old X    -DE/DX   Delta X   Delta X   Delta X     New X
                                 (Linear)    (Quad)   (Total)
    X1       24.13067  -0.00050   0.00000   0.00717   0.00717  24.13784
    Y1       31.56523  -0.00157   0.00000  -0.03056  -0.03056  31.53467
    Z1       25.72900  -0.00019   0.00000  -0.00029  -0.00029  25.72871
    X2       30.82937   0.00176   0.00000   0.02480   0.02480  30.85417
    Y2       33.63505   0.00009   0.00000  -0.01249  -0.01249  33.62256
    Z2       32.57000   0.00020   0.00000  -0.00553  -0.00553  32.56447
    X3       33.68286  -0.00308   0.00000  -0.05688  -0.05688  33.62597
    Y3       24.61160   0.00155   0.00000   0.04244   0.04244  24.65405
    Z3       26.08143   0.00207   0.00000   0.03750   0.03750  26.11893
    X4       25.62714   0.00057   0.00000   0.01597   0.01597  25.64311
    Y4       30.42232  -0.00152   0.00000  -0.01919  -0.01919  30.40313
    Z4       31.91256  -0.00011   0.00000  -0.00856  -0.00856  31.90400
    X5       31.99930  -0.00167   0.00000  -0.02139  -0.02139  31.97791
    Y5       27.16727   0.00118   0.00000   0.01050   0.01050  27.17777
    Z5       32.41013  -0.00264   0.00000  -0.02806  -0.02806  32.38206
    X6       26.45673   0.00172   0.00000   0.02330   0.02330  26.48003
    Y6       25.19458   0.00124   0.00000   0.01745   0.01745  25.21203
    Z6       28.00669  -0.00095   0.00000  -0.01168  -0.01168  27.99501
    X7       30.27870   0.00120   0.00000   0.00703   0.00703  30.28573
    Y7       30.40853  -0.00096   0.00000  -0.00815  -0.00815  30.40038
    Z7       26.29478   0.00162   0.00000   0.01661   0.01661  26.31140
         Item               Value     Threshold  Converged?
 Maximum Force            0.003075     0.000450     NO 
 RMS     Force            0.001484     0.000300     NO 
 Maximum Displacement     0.056884     0.001800     NO 
 RMS     Displacement     0.023561     0.001200     NO 
 Predicted change in Energy=-3.409488D-04
 GradGradGradGradGradGradGradGradGradGradGradGradGradGradGradGradGradGrad

 Leave Link  103 at Wed Nov 29 16:57:48 2023, MaxMem=  1879048192 cpu:               0.2 elap:               0.0
 (Enter /home/sekinelabo/g16/l9999.exe)
 1\1\GINC-SEKINELABO-XA7R-R37\Force\UB3LYP\6-311+G(d)\Na7(2)\SEKINELABO
 \29-Nov-2023\0\\#P B3LYP/6-311+g(d) force\\DPGEN\\0,2\Na,12.7694,16.70
 36,13.6152\Na,16.3142,17.7989,17.2353\Na,17.8242,13.0239,13.8017\Na,13
 .5613,16.0988,16.8874\Na,16.9333,14.3763,17.1507\Na,14.0003,13.3324,14
 .8205\Na,16.0228,16.0915,13.9146\\Version=ES64L-G16RevB.01\State=2-A\H
 F=-1136.1362339\S2=0.76118\S2-1=0.\S2A=0.750069\RMSD=3.777e-09\RMSF=1.
 484e-03\Dipole=0.0142341,-0.1208732,-0.0619962\Quadrupole=1.3730408,1.
 3659744,-2.7390152,-3.7254194,0.43839,1.4811928\PG=C01 [X(Na7)]\\@


 IF AT FIRST YOU DON'T SUCCEED, TRY LOOKING IN 
 THE WASTEBASKET FOR THE DIRECTIONS.
 Job cpu time:       0 days  0 hours  3 minutes 46.9 seconds.
 Elapsed time:       0 days  0 hours  0 minutes 19.0 seconds.
 File lengths (MBytes):  RWF=     32 Int=      0 D2E=      0 Chk=      4 Scr=      1
 Normal termination of Gaussian 16 at Wed Nov 29 16:57:48 2023.
