ITEM: TIMESTEP
1120
ITEM: NUMBER OF ATOMS
7
ITEM: BOX BOUNDS xy xz yz ff ff ff
0.0000000000000000e+00 2.6365260618200001e+01 0.0000000000000000e+00
0.0000000000000000e+00 2.6365260618200001e+01 0.0000000000000000e+00
0.0000000000000000e+00 2.6365260618200001e+01 0.0000000000000000e+00
ITEM: ATOMS id type x y z fx fy fz
6 1 10.6449 11.5041 11.501 0.119973 0.0547386 0.135973
2 1 13.6295 10.4642 13.6197 0.0967154 -0.0829726 -0.196072
5 1 11.5167 14.7112 12.5819 0.137851 -0.0581855 -0.0107731
4 1 15.1387 13.4667 11.5815 -0.119824 -0.0976219 0.0254529
3 1 15.042 16.4448 12.8578 -0.0530272 0.0131081 0.0367429
7 1 11.6029 12.2867 15.1007 -0.264962 0.0707637 0.0334348
1 1 14.7038 13.4007 15.0359 0.0832731 0.10017 -0.0247578
