 Set GAUSS_MDEF to "14GB".
 Entering Gaussian System, Link 0=g16
 Initial command:
 /home/sekinelabo/g16/l1.exe "/home/sekinelabo/g16temp/Gau-131159.inp" -scrdir="/home/sekinelabo/g16temp/"
 Entering Link 1 = /home/sekinelabo/g16/l1.exe PID=    131161.
  
 Copyright (c) 1988-2017, Gaussian, Inc.  All Rights Reserved.
  
 This is part of the Gaussian(R) 16 program.  It is based on
 the Gaussian(R) 09 system (copyright 2009, Gaussian, Inc.),
 the Gaussian(R) 03 system (copyright 2003, Gaussian, Inc.),
 the Gaussian(R) 98 system (copyright 1998, Gaussian, Inc.),
 the Gaussian(R) 94 system (copyright 1995, Gaussian, Inc.),
 the Gaussian 92(TM) system (copyright 1992, Gaussian, Inc.),
 the Gaussian 90(TM) system (copyright 1990, Gaussian, Inc.),
 the Gaussian 88(TM) system (copyright 1988, Gaussian, Inc.),
 the Gaussian 86(TM) system (copyright 1986, Carnegie Mellon
 University), and the Gaussian 82(TM) system (copyright 1983,
 Carnegie Mellon University). Gaussian is a federally registered
 trademark of Gaussian, Inc.
  
 This software contains proprietary and confidential information,
 including trade secrets, belonging to Gaussian, Inc.
  
 This software is provided under written license and may be
 used, copied, transmitted, or stored only in accord with that
 written license.
  
 The following legend is applicable only to US Government
 contracts under FAR:
  
                    RESTRICTED RIGHTS LEGEND
  
 Use, reproduction and disclosure by the US Government is
 subject to restrictions as set forth in subparagraphs (a)
 and (c) of the Commercial Computer Software - Restricted
 Rights clause in FAR 52.227-19.
  
 Gaussian, Inc.
 340 Quinnipiac St., Bldg. 40, Wallingford CT 06492
  
  
 ---------------------------------------------------------------
 Warning -- This program may not be used in any manner that
 competes with the business of Gaussian, Inc. or will provide
 assistance to any competitor of Gaussian, Inc.  The licensee
 of this program is prohibited from giving any competitor of
 Gaussian, Inc. access to this program.  By using this program,
 the user acknowledges that Gaussian, Inc. is engaged in the
 business of creating and licensing software in the field of
 computational chemistry and represents and warrants to the
 licensee that it is not a competitor of Gaussian, Inc. and that
 it will not use this program in any manner prohibited above.
 ---------------------------------------------------------------
  

 Cite this work as:
 Gaussian 16, Revision B.01,
 M. J. Frisch, G. W. Trucks, H. B. Schlegel, G. E. Scuseria, 
 M. A. Robb, J. R. Cheeseman, G. Scalmani, V. Barone, 
 G. A. Petersson, H. Nakatsuji, X. Li, M. Caricato, A. V. Marenich, 
 J. Bloino, B. G. Janesko, R. Gomperts, B. Mennucci, H. P. Hratchian, 
 J. V. Ortiz, A. F. Izmaylov, J. L. Sonnenberg, D. Williams-Young, 
 F. Ding, F. Lipparini, F. Egidi, J. Goings, B. Peng, A. Petrone, 
 T. Henderson, D. Ranasinghe, V. G. Zakrzewski, J. Gao, N. Rega, 
 G. Zheng, W. Liang, M. Hada, M. Ehara, K. Toyota, R. Fukuda, 
 J. Hasegawa, M. Ishida, T. Nakajima, Y. Honda, O. Kitao, H. Nakai, 
 T. Vreven, K. Throssell, J. A. Montgomery, Jr., J. E. Peralta, 
 F. Ogliaro, M. J. Bearpark, J. J. Heyd, E. N. Brothers, K. N. Kudin, 
 V. N. Staroverov, T. A. Keith, R. Kobayashi, J. Normand, 
 K. Raghavachari, A. P. Rendell, J. C. Burant, S. S. Iyengar, 
 J. Tomasi, M. Cossi, J. M. Millam, M. Klene, C. Adamo, R. Cammi, 
 J. W. Ochterski, R. L. Martin, K. Morokuma, O. Farkas, 
 J. B. Foresman, and D. J. Fox, Gaussian, Inc., Wallingford CT, 2016.
 
 ******************************************
 Gaussian 16:  ES64L-G16RevB.01 20-Dec-2017
                28-Nov-2023 
 ******************************************
 %nproc=15
 Will use up to   15 processors via shared memory.
 -------------------------
 #P B3LYP/6-311+g(d) force
 -------------------------
 1/10=7,30=1,38=1/1,3;
 2/12=2,17=6,18=5,40=1/2;
 3/5=4,6=6,7=11,11=2,25=1,30=1,71=1,74=-5/1,2,3;
 4//1;
 5/5=2,38=5/2;
 6/7=2,8=2,9=2,10=2,28=1/1;
 7/29=1/1,2,3,16;
 1/10=7,30=1/3;
 99//99;
 Leave Link    1 at Tue Nov 28 21:54:47 2023, MaxMem=           0 cpu:               0.3 elap:               0.0
 (Enter /home/sekinelabo/g16/l101.exe)
 -----
 DPGEN
 -----
 Symbolic Z-matrix:
 Charge =  0 Multiplicity = 2
 Na                    14.7942   17.3429   15.3874 
 Na                    17.3676   18.7223   18.0309 
 Na                    16.4779   15.3541   18.3256 
 Na                    16.0405   13.7125   15.2151 
 Na                    13.5594   15.4884   13.1496 
 Na                    15.6524   11.8506   17.8316 
 Na                    13.5335   14.9547   9.48547 
 
 ITRead=  0  0  0  0  0  0  0
 MicOpt= -1 -1 -1 -1 -1 -1 -1
 NAtoms=      7 NQM=        7 NQMF=       0 NMMI=      0 NMMIF=      0
                NMic=       0 NMicF=      0.
                    Isotopes and Nuclear Properties:
 (Nuclear quadrupole moments (NQMom) in fm**2, nuclear magnetic moments (NMagM)
  in nuclear magnetons)

  Atom         1           2           3           4           5           6           7
 IAtWgt=          23          23          23          23          23          23          23
 AtmWgt=  22.9897697  22.9897697  22.9897697  22.9897697  22.9897697  22.9897697  22.9897697
 NucSpn=           3           3           3           3           3           3           3
 AtZEff=  -0.0000000  -0.0000000  -0.0000000  -0.0000000  -0.0000000  -0.0000000  -0.0000000
 NQMom=   10.4000000  10.4000000  10.4000000  10.4000000  10.4000000  10.4000000  10.4000000
 NMagM=    2.2175200   2.2175200   2.2175200   2.2175200   2.2175200   2.2175200   2.2175200
 AtZNuc=  11.0000000  11.0000000  11.0000000  11.0000000  11.0000000  11.0000000  11.0000000
 Leave Link  101 at Tue Nov 28 21:54:47 2023, MaxMem=  1879048192 cpu:               2.4 elap:               0.2
 (Enter /home/sekinelabo/g16/l103.exe)

 GradGradGradGradGradGradGradGradGradGradGradGradGradGradGradGradGradGrad
 Berny optimization.
 Initialization pass.
 Trust Radius=3.00D-01 FncErr=1.00D-07 GrdErr=1.00D-07 EigMax=2.50D+02 EigMin=1.00D-04
 Number of steps in this run=      2 maximum allowed number of steps=      2.
 GradGradGradGradGradGradGradGradGradGradGradGradGradGradGradGradGradGrad

 Leave Link  103 at Tue Nov 28 21:54:47 2023, MaxMem=  1879048192 cpu:               0.2 elap:               0.0
 (Enter /home/sekinelabo/g16/l202.exe)
                          Input orientation:                          
 ---------------------------------------------------------------------
 Center     Atomic      Atomic             Coordinates (Angstroms)
 Number     Number       Type             X           Y           Z
 ---------------------------------------------------------------------
      1         11           0       14.794200   17.342900   15.387400
      2         11           0       17.367600   18.722300   18.030900
      3         11           0       16.477900   15.354100   18.325600
      4         11           0       16.040500   13.712500   15.215100
      5         11           0       13.559400   15.488400   13.149600
      6         11           0       15.652400   11.850600   17.831600
      7         11           0       13.533500   14.954700    9.485470
 ---------------------------------------------------------------------
                    Distance matrix (angstroms):
                    1          2          3          4          5
     1  Na   0.000000
     2  Na   3.938683   0.000000
     3  Na   3.927237   3.496167   0.000000
     4  Na   3.842233   5.898137   3.544204   0.000000
     5  Na   3.157792   6.984811   5.943623   3.684558   0.000000
     6  Na   6.072560   7.085329   3.633180   3.234713   6.287715
     7  Na   6.490427  10.095519   9.326141   6.376266   3.702885
                    6          7
     6  Na   0.000000
     7  Na   9.153309   0.000000
 Stoichiometry    Na7(2)
 Framework group  C1[X(Na7)]
 Deg. of freedom    15
 Full point group                 C1      NOp   1
 Largest Abelian subgroup         C1      NOp   1
 Largest concise Abelian subgroup C1      NOp   1
                         Standard orientation:                         
 ---------------------------------------------------------------------
 Center     Atomic      Atomic             Coordinates (Angstroms)
 Number     Number       Type             X           Y           Z
 ---------------------------------------------------------------------
      1         11           0       -0.019946   -1.943517    0.717400
      2         11           0       -3.564085   -3.113028   -0.541388
      3         11           0       -3.171141    0.307635    0.065117
      4         11           0        0.014267    1.565649   -0.846997
      5         11           0        2.687175   -0.322812    0.845707
      6         11           0       -2.064310    3.759737    0.305765
      7         11           0        6.118039   -0.253664   -0.545604
 ---------------------------------------------------------------------
 Rotational constants (GHZ):           0.6670731           0.2958335           0.2155377
 Leave Link  202 at Tue Nov 28 21:54:47 2023, MaxMem=  1879048192 cpu:               0.0 elap:               0.0
 (Enter /home/sekinelabo/g16/l301.exe)
 Standard basis: 6-311+G(d) (5D, 7F)
 Ernie: Thresh=  0.10000D-02 Tol=  0.10000D-05 Strict=F.
 There are   217 symmetry adapted cartesian basis functions of A   symmetry.
 There are   210 symmetry adapted basis functions of A   symmetry.
   210 basis functions,   350 primitive gaussians,   217 cartesian basis functions
    39 alpha electrons       38 beta electrons
       nuclear repulsion energy       278.6439249386 Hartrees.
 IExCor=  402 DFT=T Ex+Corr=B3LYP ExCW=0 ScaHFX=  0.200000
 ScaDFX=  0.800000  0.720000  1.000000  0.810000 ScalE2=  1.000000  1.000000
 IRadAn=      5 IRanWt=     -1 IRanGd=            0 ICorTp=0 IEmpDi=  4
 NAtoms=    7 NActive=    7 NUniq=    7 SFac= 1.00D+00 NAtFMM=   60 NAOKFM=F Big=F
 Integral buffers will be    131072 words long.
 Raffenetti 2 integral format.
 Two-electron integral symmetry is turned on.
 Leave Link  301 at Tue Nov 28 21:54:47 2023, MaxMem=  1879048192 cpu:               0.5 elap:               0.0
 (Enter /home/sekinelabo/g16/l302.exe)
 NPDir=0 NMtPBC=     1 NCelOv=     1 NCel=       1 NClECP=     1 NCelD=      1
         NCelK=      1 NCelE2=     1 NClLst=     1 CellRange=     0.0.
 One-electron integrals computed using PRISM.
 One-electron integral symmetry used in STVInt
 NBasis=   210 RedAO= T EigKep=  5.88D-06  NBF=   210
 NBsUse=   210 1.00D-06 EigRej= -1.00D+00 NBFU=   210
 Precomputing XC quadrature grid using
 IXCGrd= 4 IRadAn=           5 IRanWt=          -1 IRanGd=           0 AccXCQ= 0.00D+00.
 Generated NRdTot=       0 NPtTot=           0 NUsed=           0 NTot=          32
 NSgBfM=   203   203   203   203   203 MxSgAt=     7 MxSgA2=     7.
 Leave Link  302 at Tue Nov 28 21:54:47 2023, MaxMem=  1879048192 cpu:               2.0 elap:               0.1
 (Enter /home/sekinelabo/g16/l303.exe)
 DipDrv:  MaxL=1.
 Leave Link  303 at Tue Nov 28 21:54:47 2023, MaxMem=  1879048192 cpu:               0.5 elap:               0.0
 (Enter /home/sekinelabo/g16/l401.exe)
 ExpMin= 7.60D-03 ExpMax= 3.62D+04 ExpMxC= 1.21D+03 IAcc=3 IRadAn=         5 AccDes= 0.00D+00
 Harris functional with IExCor=  402 and IRadAn=       5 diagonalized for initial guess.
 HarFok:  IExCor=  402 AccDes= 0.00D+00 IRadAn=         5 IDoV= 1 UseB2=F ITyADJ=14
 ICtDFT=  3500011 ScaDFX=  1.000000  1.000000  1.000000  1.000000
 FoFCou: FMM=F IPFlag=           0 FMFlag=      100000 FMFlg1=           0
         NFxFlg=           0 DoJE=T BraDBF=F KetDBF=T FulRan=T
         wScrn=  0.000000 ICntrl=       500 IOpCl=  0 I1Cent=   200000004 NGrid=           0
         NMat0=    1 NMatS0=      1 NMatT0=    0 NMatD0=    1 NMtDS0=    0 NMtDT0=    0
 Petite list used in FoFCou.
 Harris En= -1135.89002668335    
 JPrj=0 DoOrth=F DoCkMO=F.
 Initial guess <Sx>= 0.0000 <Sy>= 0.0000 <Sz>= 0.5000 <S**2>= 0.7500 S= 0.5000
 Leave Link  401 at Tue Nov 28 21:54:47 2023, MaxMem=  1879048192 cpu:               4.1 elap:               0.3
 (Enter /home/sekinelabo/g16/l502.exe)
 Keep R1 and R2 ints in memory in canonical form, NReq=506573293.
 FoFCou: FMM=F IPFlag=           0 FMFlag=           0 FMFlg1=           0
         NFxFlg=           0 DoJE=F BraDBF=F KetDBF=F FulRan=T
         wScrn=  0.000000 ICntrl=       600 IOpCl=  0 I1Cent=           0 NGrid=           0
         NMat0=    1 NMatS0=  22155 NMatT0=    0 NMatD0=    1 NMtDS0=    0 NMtDT0=    0
 Symmetry not used in FoFCou.
 Two-electron integral symmetry not used.
 UHF open shell SCF:
 Using DIIS extrapolation, IDIIS=  1040.
 NGot=  1879048192 LenX=  1388082607 LenY=  1388035077
 Requested convergence on RMS density matrix=1.00D-08 within 128 cycles.
 Requested convergence on MAX density matrix=1.00D-06.
 Requested convergence on             energy=1.00D-06.
 No special actions if energy rises.

 Cycle   1  Pass 1  IDiag  1:
 E= -1136.09590750856    
 DIIS: error= 8.96D-03 at cycle   1 NSaved=   1.
 NSaved= 1 IEnMin= 1 EnMin= -1136.09590750856     IErMin= 1 ErrMin= 8.96D-03
 ErrMax= 8.96D-03  0.00D+00 EMaxC= 1.00D-01 BMatC= 1.83D-01 BMatP= 1.83D-01
 IDIUse=3 WtCom= 9.10D-01 WtEn= 8.96D-02
 Coeff-Com:  0.100D+01
 Coeff-En:   0.100D+01
 Coeff:      0.100D+01
 Gap=     0.061 Goal=   None    Shift=    0.000
 Gap=     0.038 Goal=   None    Shift=    0.000
 GapD=    0.038 DampG=0.250 DampE=1.000 DampFc=0.2500 IDamp=-1.
 Damping current iteration by 2.50D-01
 RMSDP=1.09D-02 MaxDP=1.00D+00              OVMax= 1.90D-01

 Cycle   2  Pass 1  IDiag  1:
 E= -1136.10469418553     Delta-E=       -0.008786676968 Rises=F Damp=T
 DIIS: error= 6.33D-03 at cycle   2 NSaved=   2.
 NSaved= 2 IEnMin= 2 EnMin= -1136.10469418553     IErMin= 2 ErrMin= 6.33D-03
 ErrMax= 6.33D-03  0.00D+00 EMaxC= 1.00D-01 BMatC= 7.04D-02 BMatP= 1.83D-01
 IDIUse=3 WtCom= 9.37D-01 WtEn= 6.33D-02
 Coeff-Com: -0.128D+01 0.228D+01
 Coeff-En:   0.000D+00 0.100D+01
 Coeff:     -0.120D+01 0.220D+01
 Gap=     0.058 Goal=   None    Shift=    0.000
 Gap=     0.048 Goal=   None    Shift=    0.000
 RMSDP=7.56D-03 MaxDP=7.48D-01 DE=-8.79D-03 OVMax= 1.96D-01

 Cycle   3  Pass 1  IDiag  1:
 E= -1136.12018772054     Delta-E=       -0.015493535012 Rises=F Damp=F
 DIIS: error= 2.59D-03 at cycle   3 NSaved=   3.
 NSaved= 3 IEnMin= 3 EnMin= -1136.12018772054     IErMin= 3 ErrMin= 2.59D-03
 ErrMax= 2.59D-03  0.00D+00 EMaxC= 1.00D-01 BMatC= 2.23D-03 BMatP= 7.04D-02
 IDIUse=3 WtCom= 9.74D-01 WtEn= 2.59D-02
 Coeff-Com: -0.204D+00 0.346D+00 0.857D+00
 Coeff-En:   0.000D+00 0.000D+00 0.100D+01
 Coeff:     -0.198D+00 0.337D+00 0.861D+00
 Gap=     0.060 Goal=   None    Shift=    0.000
 Gap=     0.042 Goal=   None    Shift=    0.000
 RMSDP=2.65D-03 MaxDP=1.17D-01 DE=-1.55D-02 OVMax= 1.27D-01

 Cycle   4  Pass 1  IDiag  1:
 E= -1136.11966965947     Delta-E=        0.000518061066 Rises=F Damp=F
 DIIS: error= 3.02D-03 at cycle   4 NSaved=   4.
 NSaved= 4 IEnMin= 3 EnMin= -1136.12018772054     IErMin= 3 ErrMin= 2.59D-03
 ErrMax= 3.02D-03  0.00D+00 EMaxC= 1.00D-01 BMatC= 2.85D-03 BMatP= 2.23D-03
 IDIUse=3 WtCom= 1.54D-01 WtEn= 8.46D-01
 Coeff-Com: -0.178D-01 0.229D-01 0.530D+00 0.465D+00
 Coeff-En:   0.000D+00 0.000D+00 0.540D+00 0.460D+00
 Coeff:     -0.274D-02 0.352D-02 0.538D+00 0.461D+00
 Gap=     0.054 Goal=   None    Shift=    0.000
 Gap=     0.047 Goal=   None    Shift=    0.000
 RMSDP=1.36D-03 MaxDP=6.09D-02 DE= 5.18D-04 OVMax= 7.24D-02

 Cycle   5  Pass 1  IDiag  1:
 E= -1136.12276957831     Delta-E=       -0.003099918838 Rises=F Damp=F
 DIIS: error= 1.31D-04 at cycle   5 NSaved=   5.
 NSaved= 5 IEnMin= 5 EnMin= -1136.12276957831     IErMin= 5 ErrMin= 1.31D-04
 ErrMax= 1.31D-04  0.00D+00 EMaxC= 1.00D-01 BMatC= 8.36D-06 BMatP= 2.23D-03
 IDIUse=3 WtCom= 9.99D-01 WtEn= 1.31D-03
 Coeff-Com:  0.119D-01-0.166D-01 0.111D-02-0.100D-01 0.101D+01
 Coeff-En:   0.000D+00 0.000D+00 0.000D+00 0.000D+00 0.100D+01
 Coeff:      0.118D-01-0.165D-01 0.111D-02-0.100D-01 0.101D+01
 Gap=     0.053 Goal=   None    Shift=    0.000
 Gap=     0.047 Goal=   None    Shift=    0.000
 RMSDP=3.17D-04 MaxDP=4.22D-02 DE=-3.10D-03 OVMax= 8.81D-03

 Cycle   6  Pass 1  IDiag  1:
 E= -1136.12278910688     Delta-E=       -0.000019528573 Rises=F Damp=F
 DIIS: error= 1.16D-04 at cycle   6 NSaved=   6.
 NSaved= 6 IEnMin= 6 EnMin= -1136.12278910688     IErMin= 6 ErrMin= 1.16D-04
 ErrMax= 1.16D-04  0.00D+00 EMaxC= 1.00D-01 BMatC= 5.49D-06 BMatP= 8.36D-06
 IDIUse=3 WtCom= 9.99D-01 WtEn= 1.16D-03
 Coeff-Com:  0.892D-02-0.121D-01-0.882D-01-0.801D-01 0.551D+00 0.620D+00
 Coeff-En:   0.000D+00 0.000D+00 0.000D+00 0.000D+00 0.000D+00 0.100D+01
 Coeff:      0.891D-02-0.121D-01-0.881D-01-0.800D-01 0.551D+00 0.621D+00
 Gap=     0.054 Goal=   None    Shift=    0.000
 Gap=     0.047 Goal=   None    Shift=    0.000
 RMSDP=1.02D-04 MaxDP=5.69D-03 DE=-1.95D-05 OVMax= 4.37D-03

 Cycle   7  Pass 1  IDiag  1:
 E= -1136.12279833269     Delta-E=       -0.000009225808 Rises=F Damp=F
 DIIS: error= 3.61D-05 at cycle   7 NSaved=   7.
 NSaved= 7 IEnMin= 7 EnMin= -1136.12279833269     IErMin= 7 ErrMin= 3.61D-05
 ErrMax= 3.61D-05  0.00D+00 EMaxC= 1.00D-01 BMatC= 6.73D-07 BMatP= 5.49D-06
 IDIUse=1 WtCom= 1.00D+00 WtEn= 0.00D+00
 Coeff-Com:  0.954D-03-0.116D-02-0.369D-01-0.274D-01-0.226D-01 0.231D+00
 Coeff-Com:  0.856D+00
 Coeff:      0.954D-03-0.116D-02-0.369D-01-0.274D-01-0.226D-01 0.231D+00
 Coeff:      0.856D+00
 Gap=     0.054 Goal=   None    Shift=    0.000
 Gap=     0.047 Goal=   None    Shift=    0.000
 RMSDP=7.48D-05 MaxDP=8.45D-03 DE=-9.23D-06 OVMax= 2.30D-03

 Cycle   8  Pass 1  IDiag  1:
 E= -1136.12280013629     Delta-E=       -0.000001803596 Rises=F Damp=F
 DIIS: error= 1.15D-05 at cycle   8 NSaved=   8.
 NSaved= 8 IEnMin= 8 EnMin= -1136.12280013629     IErMin= 8 ErrMin= 1.15D-05
 ErrMax= 1.15D-05  0.00D+00 EMaxC= 1.00D-01 BMatC= 6.99D-08 BMatP= 6.73D-07
 IDIUse=1 WtCom= 1.00D+00 WtEn= 0.00D+00
 Coeff-Com: -0.709D-03 0.101D-02 0.119D-02 0.366D-02-0.843D-01-0.335D-01
 Coeff-Com:  0.244D+00 0.868D+00
 Coeff:     -0.709D-03 0.101D-02 0.119D-02 0.366D-02-0.843D-01-0.335D-01
 Coeff:      0.244D+00 0.868D+00
 Gap=     0.054 Goal=   None    Shift=    0.000
 Gap=     0.048 Goal=   None    Shift=    0.000
 RMSDP=2.32D-05 MaxDP=2.05D-03 DE=-1.80D-06 OVMax= 7.04D-04

 Cycle   9  Pass 1  IDiag  1:
 E= -1136.12280034783     Delta-E=       -0.000000211545 Rises=F Damp=F
 DIIS: error= 4.21D-06 at cycle   9 NSaved=   9.
 NSaved= 9 IEnMin= 9 EnMin= -1136.12280034783     IErMin= 9 ErrMin= 4.21D-06
 ErrMax= 4.21D-06  0.00D+00 EMaxC= 1.00D-01 BMatC= 7.90D-09 BMatP= 6.99D-08
 IDIUse=1 WtCom= 1.00D+00 WtEn= 0.00D+00
 Coeff-Com: -0.118D-03 0.160D-03 0.311D-02 0.200D-02-0.574D-02-0.216D-01
 Coeff-Com: -0.488D-01 0.850D-01 0.986D+00
 Coeff:     -0.118D-03 0.160D-03 0.311D-02 0.200D-02-0.574D-02-0.216D-01
 Coeff:     -0.488D-01 0.850D-01 0.986D+00
 Gap=     0.054 Goal=   None    Shift=    0.000
 Gap=     0.048 Goal=   None    Shift=    0.000
 RMSDP=8.72D-06 MaxDP=4.82D-04 DE=-2.12D-07 OVMax= 4.27D-04

 Cycle  10  Pass 1  IDiag  1:
 E= -1136.12280038810     Delta-E=       -0.000000040272 Rises=F Damp=F
 DIIS: error= 2.27D-06 at cycle  10 NSaved=  10.
 NSaved=10 IEnMin=10 EnMin= -1136.12280038810     IErMin=10 ErrMin= 2.27D-06
 ErrMax= 2.27D-06  0.00D+00 EMaxC= 1.00D-01 BMatC= 2.87D-09 BMatP= 7.90D-09
 IDIUse=1 WtCom= 1.00D+00 WtEn= 0.00D+00
 Coeff-Com:  0.386D-04-0.603D-04 0.753D-03-0.144D-03 0.106D-01-0.227D-03
 Coeff-Com: -0.463D-01-0.137D+00 0.261D+00 0.911D+00
 Coeff:      0.386D-04-0.603D-04 0.753D-03-0.144D-03 0.106D-01-0.227D-03
 Coeff:     -0.463D-01-0.137D+00 0.261D+00 0.911D+00
 Gap=     0.054 Goal=   None    Shift=    0.000
 Gap=     0.048 Goal=   None    Shift=    0.000
 RMSDP=4.88D-06 MaxDP=2.70D-04 DE=-4.03D-08 OVMax= 2.14D-04

 Cycle  11  Pass 1  IDiag  1:
 E= -1136.12280040272     Delta-E=       -0.000000014621 Rises=F Damp=F
 DIIS: error= 1.47D-06 at cycle  11 NSaved=  11.
 NSaved=11 IEnMin=11 EnMin= -1136.12280040272     IErMin=11 ErrMin= 1.47D-06
 ErrMax= 1.47D-06  0.00D+00 EMaxC= 1.00D-01 BMatC= 1.23D-09 BMatP= 2.87D-09
 IDIUse=1 WtCom= 1.00D+00 WtEn= 0.00D+00
 Coeff-Com:  0.493D-04-0.735D-04-0.425D-03-0.602D-03 0.674D-02 0.586D-02
 Coeff-Com: -0.795D-02-0.103D+00-0.177D+00 0.478D+00 0.799D+00
 Coeff:      0.493D-04-0.735D-04-0.425D-03-0.602D-03 0.674D-02 0.586D-02
 Coeff:     -0.795D-02-0.103D+00-0.177D+00 0.478D+00 0.799D+00
 Gap=     0.054 Goal=   None    Shift=    0.000
 Gap=     0.048 Goal=   None    Shift=    0.000
 RMSDP=3.32D-06 MaxDP=1.85D-04 DE=-1.46D-08 OVMax= 1.91D-04

 Cycle  12  Pass 1  IDiag  1:
 E= -1136.12280040900     Delta-E=       -0.000000006275 Rises=F Damp=F
 DIIS: error= 7.15D-07 at cycle  12 NSaved=  12.
 NSaved=12 IEnMin=12 EnMin= -1136.12280040900     IErMin=12 ErrMin= 7.15D-07
 ErrMax= 7.15D-07  0.00D+00 EMaxC= 1.00D-01 BMatC= 2.77D-10 BMatP= 1.23D-09
 IDIUse=1 WtCom= 1.00D+00 WtEn= 0.00D+00
 Coeff-Com:  0.195D-04-0.275D-04-0.471D-03-0.223D-03-0.550D-03 0.264D-02
 Coeff-Com:  0.122D-01 0.202D-02-0.157D+00-0.925D-01 0.277D+00 0.956D+00
 Coeff:      0.195D-04-0.275D-04-0.471D-03-0.223D-03-0.550D-03 0.264D-02
 Coeff:      0.122D-01 0.202D-02-0.157D+00-0.925D-01 0.277D+00 0.956D+00
 Gap=     0.054 Goal=   None    Shift=    0.000
 Gap=     0.048 Goal=   None    Shift=    0.000
 RMSDP=1.92D-06 MaxDP=9.73D-05 DE=-6.27D-09 OVMax= 9.84D-05

 Cycle  13  Pass 1  IDiag  1:
 E= -1136.12280041072     Delta-E=       -0.000000001721 Rises=F Damp=F
 DIIS: error= 2.55D-07 at cycle  13 NSaved=  13.
 NSaved=13 IEnMin=13 EnMin= -1136.12280041072     IErMin=13 ErrMin= 2.55D-07
 ErrMax= 2.55D-07  0.00D+00 EMaxC= 1.00D-01 BMatC= 4.65D-11 BMatP= 2.77D-10
 IDIUse=1 WtCom= 1.00D+00 WtEn= 0.00D+00
 Coeff-Com: -0.398D-05 0.624D-05-0.746D-04 0.749D-04-0.213D-02-0.624D-03
 Coeff-Com:  0.675D-02 0.283D-01-0.767D-02-0.154D+00-0.121D+00 0.287D+00
 Coeff-Com:  0.964D+00
 Coeff:     -0.398D-05 0.624D-05-0.746D-04 0.749D-04-0.213D-02-0.624D-03
 Coeff:      0.675D-02 0.283D-01-0.767D-02-0.154D+00-0.121D+00 0.287D+00
 Coeff:      0.964D+00
 Gap=     0.054 Goal=   None    Shift=    0.000
 Gap=     0.048 Goal=   None    Shift=    0.000
 RMSDP=8.75D-07 MaxDP=4.47D-05 DE=-1.72D-09 OVMax= 5.12D-05

 Cycle  14  Pass 1  IDiag  1:
 E= -1136.12280041098     Delta-E=       -0.000000000263 Rises=F Damp=F
 DIIS: error= 8.15D-08 at cycle  14 NSaved=  14.
 NSaved=14 IEnMin=14 EnMin= -1136.12280041098     IErMin=14 ErrMin= 8.15D-08
 ErrMax= 8.15D-08  0.00D+00 EMaxC= 1.00D-01 BMatC= 4.02D-12 BMatP= 4.65D-11
 IDIUse=1 WtCom= 1.00D+00 WtEn= 0.00D+00
 Coeff-Com: -0.292D-05 0.419D-05 0.256D-04 0.627D-05-0.151D-03-0.266D-03
 Coeff-Com: -0.234D-03 0.108D-02 0.151D-01-0.639D-02-0.277D-01-0.742D-01
 Coeff-Com:  0.869D-01 0.101D+01
 Coeff:     -0.292D-05 0.419D-05 0.256D-04 0.627D-05-0.151D-03-0.266D-03
 Coeff:     -0.234D-03 0.108D-02 0.151D-01-0.639D-02-0.277D-01-0.742D-01
 Coeff:      0.869D-01 0.101D+01
 Gap=     0.054 Goal=   None    Shift=    0.000
 Gap=     0.048 Goal=   None    Shift=    0.000
 RMSDP=1.85D-07 MaxDP=8.77D-06 DE=-2.63D-10 OVMax= 8.04D-06

 Cycle  15  Pass 1  IDiag  1:
 E= -1136.12280041101     Delta-E=       -0.000000000027 Rises=F Damp=F
 DIIS: error= 3.39D-08 at cycle  15 NSaved=  15.
 NSaved=15 IEnMin=15 EnMin= -1136.12280041101     IErMin=15 ErrMin= 3.39D-08
 ErrMax= 3.39D-08  0.00D+00 EMaxC= 1.00D-01 BMatC= 1.19D-12 BMatP= 4.02D-12
 IDIUse=1 WtCom= 1.00D+00 WtEn= 0.00D+00
 Coeff-Com: -0.758D-06 0.101D-05 0.226D-04-0.721D-05 0.201D-03-0.141D-04
 Coeff-Com: -0.841D-03-0.322D-02 0.675D-02 0.169D-01 0.615D-02-0.695D-01
 Coeff-Com: -0.873D-01 0.390D+00 0.740D+00
 Coeff:     -0.758D-06 0.101D-05 0.226D-04-0.721D-05 0.201D-03-0.141D-04
 Coeff:     -0.841D-03-0.322D-02 0.675D-02 0.169D-01 0.615D-02-0.695D-01
 Coeff:     -0.873D-01 0.390D+00 0.740D+00
 Gap=     0.054 Goal=   None    Shift=    0.000
 Gap=     0.048 Goal=   None    Shift=    0.000
 RMSDP=7.32D-08 MaxDP=3.23D-06 DE=-2.68D-11 OVMax= 2.70D-06

 Cycle  16  Pass 1  IDiag  1:
 E= -1136.12280041100     Delta-E=        0.000000000006 Rises=F Damp=F
 DIIS: error= 1.70D-08 at cycle  16 NSaved=  16.
 NSaved=16 IEnMin=15 EnMin= -1136.12280041101     IErMin=16 ErrMin= 1.70D-08
 ErrMax= 1.70D-08  0.00D+00 EMaxC= 1.00D-01 BMatC= 1.77D-13 BMatP= 1.19D-12
 IDIUse=1 WtCom= 1.00D+00 WtEn= 0.00D+00
 Coeff-Com:  0.398D-06-0.587D-06-0.902D-06 0.113D-06 0.321D-04 0.638D-04
 Coeff-Com:  0.376D-04-0.469D-03-0.278D-02 0.309D-02 0.627D-02 0.694D-02
 Coeff-Com: -0.228D-01-0.189D+00 0.269D-01 0.117D+01
 Coeff:      0.398D-06-0.587D-06-0.902D-06 0.113D-06 0.321D-04 0.638D-04
 Coeff:      0.376D-04-0.469D-03-0.278D-02 0.309D-02 0.627D-02 0.694D-02
 Coeff:     -0.228D-01-0.189D+00 0.269D-01 0.117D+01
 Gap=     0.054 Goal=   None    Shift=    0.000
 Gap=     0.048 Goal=   None    Shift=    0.000
 RMSDP=7.26D-08 MaxDP=4.51D-06 DE= 6.37D-12 OVMax= 2.46D-06

 Cycle  17  Pass 1  IDiag  1:
 E= -1136.12280041101     Delta-E=       -0.000000000010 Rises=F Damp=F
 DIIS: error= 8.35D-09 at cycle  17 NSaved=  17.
 NSaved=17 IEnMin=17 EnMin= -1136.12280041101     IErMin=17 ErrMin= 8.35D-09
 ErrMax= 8.35D-09  0.00D+00 EMaxC= 1.00D-01 BMatC= 3.74D-14 BMatP= 1.77D-13
 IDIUse=1 WtCom= 1.00D+00 WtEn= 0.00D+00
 Coeff-Com:  0.144D-06-0.191D-06-0.587D-05 0.127D-05-0.428D-04-0.146D-04
 Coeff-Com:  0.141D-03 0.800D-03-0.940D-03-0.406D-02-0.323D-02 0.151D-01
 Coeff-Com:  0.255D-01-0.482D-01-0.158D+00-0.292D+00 0.146D+01
 Coeff:      0.144D-06-0.191D-06-0.587D-05 0.127D-05-0.428D-04-0.146D-04
 Coeff:      0.141D-03 0.800D-03-0.940D-03-0.406D-02-0.323D-02 0.151D-01
 Coeff:      0.255D-01-0.482D-01-0.158D+00-0.292D+00 0.146D+01
 Gap=     0.054 Goal=   None    Shift=    0.000
 Gap=     0.048 Goal=   None    Shift=    0.000
 RMSDP=5.30D-08 MaxDP=4.40D-06 DE=-9.55D-12 OVMax= 1.52D-06

 Cycle  18  Pass 1  IDiag  1:
 E= -1136.12280041100     Delta-E=        0.000000000013 Rises=F Damp=F
 DIIS: error= 3.54D-09 at cycle  18 NSaved=  18.
 NSaved=18 IEnMin=17 EnMin= -1136.12280041101     IErMin=18 ErrMin= 3.54D-09
 ErrMax= 3.54D-09  0.00D+00 EMaxC= 1.00D-01 BMatC= 5.70D-15 BMatP= 3.74D-14
 IDIUse=1 WtCom= 1.00D+00 WtEn= 0.00D+00
 Large coefficients: NSaved= 18 BigCof=    0.00 CofMax=   10.00 Det=-6.36D-15
 Inversion failed.  Reducing to 17 matrices.
 Large coefficients: NSaved= 17 BigCof=    0.00 CofMax=   10.00 Det=-6.40D-15
 Inversion failed.  Reducing to 16 matrices.
 Large coefficients: NSaved= 16 BigCof=    0.00 CofMax=   10.00 Det=-6.41D-15
 Inversion failed.  Reducing to 15 matrices.
 Coeff-Com: -0.806D-06-0.130D-04-0.669D-05 0.232D-04 0.190D-03 0.131D-03
 Coeff-Com: -0.144D-02-0.623D-03 0.182D-02 0.491D-02 0.228D-01-0.158D-01
 Coeff-Com: -0.193D+00 0.389D-01 0.114D+01
 Coeff:     -0.806D-06-0.130D-04-0.669D-05 0.232D-04 0.190D-03 0.131D-03
 Coeff:     -0.144D-02-0.623D-03 0.182D-02 0.491D-02 0.228D-01-0.158D-01
 Coeff:     -0.193D+00 0.389D-01 0.114D+01
 Gap=     0.054 Goal=   None    Shift=    0.000
 Gap=     0.048 Goal=   None    Shift=    0.000
 RMSDP=1.92D-08 MaxDP=1.63D-06 DE= 1.32D-11 OVMax= 5.93D-07

 Cycle  19  Pass 1  IDiag  1:
 E= -1136.12280041101     Delta-E=       -0.000000000005 Rises=F Damp=F
 DIIS: error= 1.77D-09 at cycle  19 NSaved=  16.
 NSaved=16 IEnMin=14 EnMin= -1136.12280041101     IErMin=16 ErrMin= 1.77D-09
 ErrMax= 1.77D-09  0.00D+00 EMaxC= 1.00D-01 BMatC= 1.12D-15 BMatP= 5.70D-15
 IDIUse=1 WtCom= 1.00D+00 WtEn= 0.00D+00
 Large coefficients: NSaved= 16 BigCof=    0.00 CofMax=   10.00 Det=-2.12D-15
 Inversion failed.  Reducing to 15 matrices.
 Coeff-Com: -0.238D-05 0.587D-06 0.688D-05 0.211D-04 0.535D-04-0.176D-03
 Coeff-Com:  0.758D-04-0.493D-03-0.224D-03 0.443D-02 0.922D-02 0.101D-01
 Coeff-Com: -0.169D+00 0.227D+00 0.919D+00
 Coeff:     -0.238D-05 0.587D-06 0.688D-05 0.211D-04 0.535D-04-0.176D-03
 Coeff:      0.758D-04-0.493D-03-0.224D-03 0.443D-02 0.922D-02 0.101D-01
 Coeff:     -0.169D+00 0.227D+00 0.919D+00
 Gap=     0.054 Goal=   None    Shift=    0.000
 Gap=     0.048 Goal=   None    Shift=    0.000
 RMSDP=5.36D-09 MaxDP=5.09D-07 DE=-5.46D-12 OVMax= 1.62D-07

 SCF Done:  E(UB3LYP) =  -1136.12280041     A.U. after   19 cycles
            NFock= 19  Conv=0.54D-08     -V/T= 2.0029
 <Sx>= 0.0000 <Sy>= 0.0000 <Sz>= 0.5000 <S**2>= 0.7708 S= 0.5104
 <L.S>= 0.000000000000E+00
 KE= 1.132848585192D+03 PE=-3.286459023666D+03 EE= 7.388437131246D+02
 Annihilation of the first spin contaminant:
 S**2 before annihilation     0.7708,   after     0.7501
 Leave Link  502 at Tue Nov 28 21:55:02 2023, MaxMem=  1879048192 cpu:             159.7 elap:              14.8
 (Enter /home/sekinelabo/g16/l601.exe)
 Copying SCF densities to generalized density rwf, IOpCl= 1 IROHF=0.

 **********************************************************************

            Population analysis using the SCF Density.

 **********************************************************************

 Orbital symmetries:
 Alpha Orbitals:
       Occupied  (A) (A) (A) (A) (A) (A) (A) (A) (A) (A) (A) (A)
                 (A) (A) (A) (A) (A) (A) (A) (A) (A) (A) (A) (A)
                 (A) (A) (A) (A) (A) (A) (A) (A) (A) (A) (A) (A)
                 (A) (A) (A)
       Virtual   (A) (A) (A) (A) (A) (A) (A) (A) (A) (A) (A) (A)
                 (A) (A) (A) (A) (A) (A) (A) (A) (A) (A) (A) (A)
                 (A) (A) (A) (A) (A) (A) (A) (A) (A) (A) (A) (A)
                 (A) (A) (A) (A) (A) (A) (A) (A) (A) (A) (A) (A)
                 (A) (A) (A) (A) (A) (A) (A) (A) (A) (A) (A) (A)
                 (A) (A) (A) (A) (A) (A) (A) (A) (A) (A) (A) (A)
                 (A) (A) (A) (A) (A) (A) (A) (A) (A) (A) (A) (A)
                 (A) (A) (A) (A) (A) (A) (A) (A) (A) (A) (A) (A)
                 (A) (A) (A) (A) (A) (A) (A) (A) (A) (A) (A) (A)
                 (A) (A) (A) (A) (A) (A) (A) (A) (A) (A) (A) (A)
                 (A) (A) (A) (A) (A) (A) (A) (A) (A) (A) (A) (A)
                 (A) (A) (A) (A) (A) (A) (A) (A) (A) (A) (A) (A)
                 (A) (A) (A) (A) (A) (A) (A) (A) (A) (A) (A) (A)
                 (A) (A) (A) (A) (A) (A) (A) (A) (A) (A) (A) (A)
                 (A) (A) (A)
 Beta  Orbitals:
       Occupied  (A) (A) (A) (A) (A) (A) (A) (A) (A) (A) (A) (A)
                 (A) (A) (A) (A) (A) (A) (A) (A) (A) (A) (A) (A)
                 (A) (A) (A) (A) (A) (A) (A) (A) (A) (A) (A) (A)
                 (A) (A)
       Virtual   (A) (A) (A) (A) (A) (A) (A) (A) (A) (A) (A) (A)
                 (A) (A) (A) (A) (A) (A) (A) (A) (A) (A) (A) (A)
                 (A) (A) (A) (A) (A) (A) (A) (A) (A) (A) (A) (A)
                 (A) (A) (A) (A) (A) (A) (A) (A) (A) (A) (A) (A)
                 (A) (A) (A) (A) (A) (A) (A) (A) (A) (A) (A) (A)
                 (A) (A) (A) (A) (A) (A) (A) (A) (A) (A) (A) (A)
                 (A) (A) (A) (A) (A) (A) (A) (A) (A) (A) (A) (A)
                 (A) (A) (A) (A) (A) (A) (A) (A) (A) (A) (A) (A)
                 (A) (A) (A) (A) (A) (A) (A) (A) (A) (A) (A) (A)
                 (A) (A) (A) (A) (A) (A) (A) (A) (A) (A) (A) (A)
                 (A) (A) (A) (A) (A) (A) (A) (A) (A) (A) (A) (A)
                 (A) (A) (A) (A) (A) (A) (A) (A) (A) (A) (A) (A)
                 (A) (A) (A) (A) (A) (A) (A) (A) (A) (A) (A) (A)
                 (A) (A) (A) (A) (A) (A) (A) (A) (A) (A) (A) (A)
                 (A) (A) (A) (A)
 The electronic state is 2-A.
 Alpha  occ. eigenvalues --  -38.44827 -38.44585 -38.44180 -38.44114 -38.44044
 Alpha  occ. eigenvalues --  -38.43775 -38.43169  -2.20619  -2.20423  -2.19999
 Alpha  occ. eigenvalues --   -2.19947  -2.19854  -2.19553  -2.19003  -1.14248
 Alpha  occ. eigenvalues --   -1.14247  -1.14222  -1.14125  -1.14105  -1.14029
 Alpha  occ. eigenvalues --   -1.13711  -1.13703  -1.13632  -1.13620  -1.13579
 Alpha  occ. eigenvalues --   -1.13563  -1.13520  -1.13513  -1.13477  -1.13220
 Alpha  occ. eigenvalues --   -1.13215  -1.13173  -1.12691  -1.12671  -1.12653
 Alpha  occ. eigenvalues --   -0.16736  -0.13684  -0.12498  -0.11267
 Alpha virt. eigenvalues --   -0.05895  -0.05616  -0.04773  -0.03756  -0.02597
 Alpha virt. eigenvalues --   -0.02123  -0.02006  -0.01753  -0.01561  -0.00790
 Alpha virt. eigenvalues --   -0.00479  -0.00072   0.00201   0.00466   0.00551
 Alpha virt. eigenvalues --    0.00687   0.00862   0.01000   0.01186   0.01228
 Alpha virt. eigenvalues --    0.01347   0.01441   0.01563   0.01635   0.01758
 Alpha virt. eigenvalues --    0.01882   0.02055   0.02101   0.02334   0.02438
 Alpha virt. eigenvalues --    0.02461   0.02780   0.02871   0.02956   0.03048
 Alpha virt. eigenvalues --    0.03074   0.03217   0.03378   0.03407   0.03558
 Alpha virt. eigenvalues --    0.03605   0.03692   0.03908   0.04035   0.04339
 Alpha virt. eigenvalues --    0.04589   0.04930   0.05001   0.05283   0.05499
 Alpha virt. eigenvalues --    0.05835   0.06642   0.06712   0.07133   0.07275
 Alpha virt. eigenvalues --    0.07562   0.07972   0.08049   0.08446   0.08548
 Alpha virt. eigenvalues --    0.08642   0.08993   0.09345   0.09646   0.09817
 Alpha virt. eigenvalues --    0.10475   0.10822   0.11477   0.11979   0.12240
 Alpha virt. eigenvalues --    0.12496   0.12992   0.13502   0.13560   0.13995
 Alpha virt. eigenvalues --    0.14373   0.14740   0.15236   0.16223   0.18041
 Alpha virt. eigenvalues --    0.26835   0.27350   0.28206   0.29344   0.30076
 Alpha virt. eigenvalues --    0.30525   0.31630   0.31809   0.32778   0.33016
 Alpha virt. eigenvalues --    0.34358   0.34441   0.34864   0.35867   0.36371
 Alpha virt. eigenvalues --    0.36652   0.37442   0.38678   0.39227   0.40118
 Alpha virt. eigenvalues --    0.40660   0.41108   0.41473   0.41884   0.42765
 Alpha virt. eigenvalues --    0.43007   0.43430   0.43578   0.44141   0.44318
 Alpha virt. eigenvalues --    0.44507   0.44844   0.45302   0.45468   0.45785
 Alpha virt. eigenvalues --    0.46125   0.46636   0.46850   0.47173   0.47466
 Alpha virt. eigenvalues --    0.48134   0.48800   0.50012   0.51127   0.51343
 Alpha virt. eigenvalues --    0.51613   0.52543   0.53278   0.54960   0.56008
 Alpha virt. eigenvalues --    0.56708   0.56958   0.59104   0.63203   0.65169
 Alpha virt. eigenvalues --    0.68368   2.02055   2.06606   2.10220   2.11906
 Alpha virt. eigenvalues --    2.16599   2.17831   2.19430   4.42840   4.43954
 Alpha virt. eigenvalues --    4.44295   4.44349   4.44577   4.45129   4.45406
 Alpha virt. eigenvalues --    4.45477   4.45900   4.46144   4.46554   4.47072
 Alpha virt. eigenvalues --    4.47280   4.48066   4.48576   4.49145   4.49302
 Alpha virt. eigenvalues --    4.50699   4.52860   4.58252   4.62408  96.21207
 Alpha virt. eigenvalues --   96.26964  96.31340  96.32947  96.38272  96.40337
 Alpha virt. eigenvalues --   96.42354
  Beta  occ. eigenvalues --  -38.44690 -38.44576 -38.44169 -38.44080 -38.44039
  Beta  occ. eigenvalues --  -38.43758 -38.43167  -2.20407  -2.20363  -2.19979
  Beta  occ. eigenvalues --   -2.19888  -2.19846  -2.19522  -2.19008  -1.14117
  Beta  occ. eigenvalues --   -1.14095  -1.14074  -1.14074  -1.14052  -1.14009
  Beta  occ. eigenvalues --   -1.13699  -1.13686  -1.13594  -1.13579  -1.13561
  Beta  occ. eigenvalues --   -1.13515  -1.13513  -1.13508  -1.13471  -1.13199
  Beta  occ. eigenvalues --   -1.13190  -1.13155  -1.12696  -1.12682  -1.12602
  Beta  occ. eigenvalues --   -0.16375  -0.12792  -0.12304
  Beta virt. eigenvalues --   -0.07547  -0.05724  -0.05504  -0.04279  -0.03563
  Beta virt. eigenvalues --   -0.02373  -0.01960  -0.01775  -0.01242  -0.01047
  Beta virt. eigenvalues --   -0.00436  -0.00253   0.00125   0.00386   0.00556
  Beta virt. eigenvalues --    0.00583   0.00761   0.00902   0.01116   0.01284
  Beta virt. eigenvalues --    0.01297   0.01439   0.01485   0.01664   0.01757
  Beta virt. eigenvalues --    0.01847   0.02062   0.02151   0.02266   0.02386
  Beta virt. eigenvalues --    0.02539   0.02568   0.02847   0.02984   0.03011
  Beta virt. eigenvalues --    0.03113   0.03147   0.03241   0.03430   0.03450
  Beta virt. eigenvalues --    0.03613   0.03658   0.03724   0.03958   0.04091
  Beta virt. eigenvalues --    0.04400   0.04701   0.04941   0.05093   0.05363
  Beta virt. eigenvalues --    0.05631   0.05866   0.06780   0.06854   0.07269
  Beta virt. eigenvalues --    0.07377   0.07599   0.08177   0.08310   0.08712
  Beta virt. eigenvalues --    0.08718   0.09046   0.09178   0.09403   0.09740
  Beta virt. eigenvalues --    0.09996   0.10708   0.10988   0.11630   0.12078
  Beta virt. eigenvalues --    0.12367   0.12569   0.13071   0.13596   0.13733
  Beta virt. eigenvalues --    0.14051   0.14487   0.14821   0.15421   0.16293
  Beta virt. eigenvalues --    0.18168   0.26985   0.27588   0.28411   0.29579
  Beta virt. eigenvalues --    0.30183   0.30760   0.31870   0.32146   0.32840
  Beta virt. eigenvalues --    0.33179   0.34958   0.35724   0.36125   0.36242
  Beta virt. eigenvalues --    0.36584   0.36815   0.38011   0.39261   0.39460
  Beta virt. eigenvalues --    0.40151   0.40877   0.41205   0.41608   0.42027
  Beta virt. eigenvalues --    0.42916   0.43315   0.43650   0.43925   0.44233
  Beta virt. eigenvalues --    0.44510   0.44615   0.44923   0.45363   0.45622
  Beta virt. eigenvalues --    0.45826   0.46216   0.46704   0.46804   0.47307
  Beta virt. eigenvalues --    0.47531   0.48139   0.48800   0.50049   0.51148
  Beta virt. eigenvalues --    0.51426   0.51730   0.52594   0.53376   0.55055
  Beta virt. eigenvalues --    0.56117   0.56779   0.57101   0.59154   0.63282
  Beta virt. eigenvalues --    0.65209   0.68442   2.02167   2.07065   2.10281
  Beta virt. eigenvalues --    2.12037   2.16639   2.17895   2.19435   4.42855
  Beta virt. eigenvalues --    4.44016   4.44482   4.44533   4.44598   4.45149
  Beta virt. eigenvalues --    4.45444   4.45508   4.45932   4.46171   4.46728
  Beta virt. eigenvalues --    4.47084   4.47298   4.48064   4.48589   4.49181
  Beta virt. eigenvalues --    4.49304   4.50720   4.52889   4.58259   4.62466
  Beta virt. eigenvalues --   96.21244  96.27112  96.31359  96.32994  96.38286
  Beta virt. eigenvalues --   96.40356  96.42363
          Condensed to atoms (all electrons):
               1          2          3          4          5          6
     1  Na  11.664553  -0.191988   0.249117   0.179907  -0.612880   0.176902
     2  Na  -0.191988  10.790648   0.002944   0.131709  -0.124734  -0.160689
     3  Na   0.249117   0.002944  10.996927   0.210256  -0.118610   0.048725
     4  Na   0.179907   0.131709   0.210256  12.327803  -0.351451  -0.756173
     5  Na  -0.612880  -0.124734  -0.118610  -0.351451  11.705593   0.087680
     6  Na   0.176902  -0.160689   0.048725  -0.756173   0.087680  10.874458
     7  Na  -0.251712   0.020225  -0.012835   0.157495   0.298247  -0.105478
               7
     1  Na  -0.251712
     2  Na   0.020225
     3  Na  -0.012835
     4  Na   0.157495
     5  Na   0.298247
     6  Na  -0.105478
     7  Na  10.886702
          Atomic-Atomic Spin Densities.
               1          2          3          4          5          6
     1  Na   0.556463   0.063732  -0.068148  -0.081217  -0.418363   0.150032
     2  Na   0.063732   0.056700   0.000107   0.002896  -0.048175   0.001587
     3  Na  -0.068148   0.000107   0.150849   0.086921   0.079932  -0.049841
     4  Na  -0.081217   0.002896   0.086921  -0.217676   0.094945   0.079189
     5  Na  -0.418363  -0.048175   0.079932   0.094945   0.227989  -0.141940
     6  Na   0.150032   0.001587  -0.049841   0.079189  -0.141940   0.011742
     7  Na  -0.204617  -0.016901   0.010822  -0.027280   0.280489  -0.018676
               7
     1  Na  -0.204617
     2  Na  -0.016901
     3  Na   0.010822
     4  Na  -0.027280
     5  Na   0.280489
     6  Na  -0.018676
     7  Na   0.662942
 Mulliken charges and spin densities:
               1          2
     1  Na  -0.213898  -0.002118
     2  Na   0.531885   0.059946
     3  Na  -0.376525   0.210643
     4  Na  -0.899547  -0.062221
     5  Na   0.116155   0.074877
     6  Na   0.834574   0.032094
     7  Na   0.007356   0.686778
 Sum of Mulliken charges =  -0.00000   1.00000
 Mulliken charges and spin densities with hydrogens summed into heavy atoms:
               1          2
     1  Na  -0.213898  -0.002118
     2  Na   0.531885   0.059946
     3  Na  -0.376525   0.210643
     4  Na  -0.899547  -0.062221
     5  Na   0.116155   0.074877
     6  Na   0.834574   0.032094
     7  Na   0.007356   0.686778
 Electronic spatial extent (au):  <R**2>=           4257.4448
 Charge=             -0.0000 electrons
 Dipole moment (field-independent basis, Debye):
    X=             -0.7573    Y=              0.6127    Z=             -0.1127  Tot=              0.9807
 Quadrupole moment (field-independent basis, Debye-Ang):
   XX=            -68.4006   YY=            -60.4363   ZZ=            -69.6204
   XY=             -0.4287   XZ=             -2.0210   YZ=              2.0515
 Traceless Quadrupole moment (field-independent basis, Debye-Ang):
   XX=             -2.2482   YY=              5.7161   ZZ=             -3.4679
   XY=             -0.4287   XZ=             -2.0210   YZ=              2.0515
 Octapole moment (field-independent basis, Debye-Ang**2):
  XXX=             -6.8080  YYY=             16.8945  ZZZ=              0.0681  XYY=            -44.6829
  XXY=             -2.5372  XXZ=            -11.1402  XZZ=             -0.5157  YZZ=              2.6813
  YYZ=              5.7807  XYZ=            -15.2481
 Hexadecapole moment (field-independent basis, Debye-Ang**3):
 XXXX=          -4591.3156 YYYY=          -1778.6075 ZZZZ=           -413.8076 XXXY=              5.0839
 XXXZ=            -80.7756 YYYX=            -12.7944 YYYZ=             77.5142 ZZZX=             -3.1139
 ZZZY=              3.5740 XXYY=          -1044.4405 XXZZ=           -880.5889 YYZZ=           -415.3528
 XXYZ=             56.1881 YYXZ=              2.1875 ZZXY=              1.0683
 N-N= 2.786439249386D+02 E-N=-3.286459023459D+03  KE= 1.132848585192D+03
                          Isotropic Fermi Contact Couplings
        Atom                 a.u.       MegaHertz       Gauss      10(-4) cm-1
     1  Na(23)             0.12715     150.42447      53.67519      50.17620
     2  Na(23)             0.07192      85.08694      30.36114      28.38195
     3  Na(23)             0.03777      44.67844      15.94238      14.90312
     4  Na(23)             0.02601      30.77241      10.98036      10.26457
     5  Na(23)            -0.07656     -90.57098     -32.31798     -30.21123
     6  Na(23)             0.01689      19.98433       7.13091       6.66605
     7  Na(23)             0.59022     698.24468     249.15107     232.90936
 --------------------------------------------------------
       Center         ----  Spin Dipole Couplings  ----
                      3XX-RR        3YY-RR        3ZZ-RR
 --------------------------------------------------------
     1   Atom       -0.000046      0.006625     -0.006579
     2   Atom       -0.001395      0.002588     -0.001193
     3   Atom        0.004771     -0.000708     -0.004063
     4   Atom       -0.005943      0.007432     -0.001488
     5   Atom        0.063781     -0.031496     -0.032285
     6   Atom        0.001347     -0.000475     -0.000872
     7   Atom       -0.003290      0.001822      0.001467
 --------------------------------------------------------
                        XY            XZ            YZ
 --------------------------------------------------------
     1   Atom        0.012705     -0.000648      0.000074
     2   Atom       -0.004203     -0.001217     -0.000458
     3   Atom        0.004473      0.002381      0.001407
     4   Atom       -0.008200      0.004238     -0.007428
     5   Atom        0.012778     -0.008670     -0.000798
     6   Atom        0.001571      0.000800     -0.000289
     7   Atom       -0.000013      0.001706      0.000100
 --------------------------------------------------------


 ---------------------------------------------------------------------------------
              Anisotropic Spin Dipole Couplings in Principal Axis System
 ---------------------------------------------------------------------------------

       Atom             a.u.   MegaHertz   Gauss  10(-4) cm-1        Axes

              Baa    -0.0099    -1.404    -0.501    -0.468  0.7823 -0.6008  0.1642
     1 Na(23) Bbb    -0.0065    -0.917    -0.327    -0.306 -0.1212  0.1118  0.9863
              Bcc     0.0164     2.320     0.828     0.774  0.6109  0.7915 -0.0147
 
              Baa    -0.0045    -0.641    -0.229    -0.214  0.7947  0.4914  0.3564
     2 Na(23) Bbb    -0.0007    -0.101    -0.036    -0.034 -0.2791 -0.2255  0.9334
              Bcc     0.0053     0.743     0.265     0.248 -0.5391  0.8412  0.0420
 
              Baa    -0.0047    -0.664    -0.237    -0.222 -0.1755 -0.1464  0.9735
     3 Na(23) Bbb    -0.0032    -0.453    -0.162    -0.151 -0.4976  0.8664  0.0406
              Bcc     0.0079     1.118     0.399     0.373  0.8494  0.4773  0.2249
 
              Baa    -0.0099    -1.401    -0.500    -0.467  0.9167  0.3788 -0.1271
     4 Na(23) Bbb    -0.0057    -0.801    -0.286    -0.267 -0.0673  0.4599  0.8854
              Bcc     0.0156     2.201     0.785     0.734 -0.3939  0.8031 -0.4471
 
              Baa    -0.0335    -4.725    -1.686    -1.576 -0.1560  0.7554 -0.6365
     5 Na(23) Bbb    -0.0328    -4.628    -1.651    -1.544 -0.0162  0.6423  0.7663
              Bcc     0.0662     9.353     3.337     3.120  0.9876  0.1298 -0.0880
 
              Baa    -0.0018    -0.261    -0.093    -0.087 -0.4715  0.6620  0.5826
     6 Na(23) Bbb    -0.0005    -0.071    -0.025    -0.024  0.1558 -0.5877  0.7939
              Bcc     0.0023     0.332     0.118     0.111  0.8680  0.4651  0.1740
 
              Baa    -0.0038    -0.542    -0.193    -0.181  0.9519  0.0076 -0.3062
     7 Na(23) Bbb     0.0018     0.252     0.090     0.084 -0.1202  0.9288 -0.3505
              Bcc     0.0021     0.290     0.103     0.097  0.2817  0.3704  0.8851
 

 ---------------------------------------------------------------------------------

 No NMR shielding tensors so no spin-rotation constants.
 Leave Link  601 at Tue Nov 28 21:55:03 2023, MaxMem=  1879048192 cpu:               2.3 elap:               0.2
 (Enter /home/sekinelabo/g16/l701.exe)
 ... and contract with generalized density number  0.
 Compute integral first derivatives.
 Leave Link  701 at Tue Nov 28 21:55:03 2023, MaxMem=  1879048192 cpu:               1.5 elap:               0.1
 (Enter /home/sekinelabo/g16/l702.exe)
 L702 exits ... SP integral derivatives will be done elsewhere.
 Leave Link  702 at Tue Nov 28 21:55:03 2023, MaxMem=  1879048192 cpu:               0.5 elap:               0.0
 (Enter /home/sekinelabo/g16/l703.exe)
 Integral derivatives from FoFJK, PRISM(SPDF).
 Compute integral first derivatives, UseDBF=F ICtDFT=           0.
 Calling FoFJK, ICntrl=      2127 FMM=F ISym2X=0 I1Cent= 0 IOpClX= 1 NMat=1 NMatS=1 NMatT=0.
 FoFJK:  IHMeth= 1 ICntrl=    2127 DoSepK=F KAlg= 0 I1Cent=           0 FoldK=F
 IRaf=         0 NMat=       1 IRICut=       1 DoRegI=T DoRafI=F ISym2E= 0 IDoP0=0 IntGTp=1.
 FoFCou: FMM=F IPFlag=           0 FMFlag=      100000 FMFlg1=         800
         NFxFlg=           0 DoJE=F BraDBF=F KetDBF=F FulRan=T
         wScrn=  0.000000 ICntrl=      2127 IOpCl=  1 I1Cent=           0 NGrid=           0
         NMat0=    1 NMatS0=      1 NMatT0=    0 NMatD0=    1 NMtDS0=    0 NMtDT0=    0
 Symmetry not used in FoFCou.
 Leave Link  703 at Tue Nov 28 21:55:05 2023, MaxMem=  1879048192 cpu:              28.6 elap:               1.9
 (Enter /home/sekinelabo/g16/l716.exe)
 Dipole        =-2.97955991D-01 2.41063711D-01-4.43400753D-02
 ***** Axes restored to original set *****
 -------------------------------------------------------------------
 Center     Atomic                   Forces (Hartrees/Bohr)
 Number     Number              X              Y              Z
 -------------------------------------------------------------------
      1       11           0.004141907    0.001062307    0.004275111
      2       11          -0.002505577   -0.002803158   -0.001246923
      3       11           0.000116731    0.001300081   -0.001016707
      4       11          -0.002208061    0.001782253   -0.000710117
      5       11          -0.000422763   -0.002224822   -0.004160628
      6       11           0.000891913    0.000668834    0.000746763
      7       11          -0.000014151    0.000214506    0.002112501
 -------------------------------------------------------------------
 Cartesian Forces:  Max     0.004275111 RMS     0.002096407
 Z-matrix is all fixed cartesians, so copy forces.
 Force constants in Cartesian coordinates: 
                1             2             3             4             5 
      1  0.602346D-01
      2 -0.891648D-02  0.844338D-01
      3  0.106667D-01  0.396326D-02  0.619546D-01
      4 -0.166389D-01 -0.293389D-02 -0.269689D-02  0.178636D-01
      5  0.105508D-01 -0.132224D-01  0.495609D-02  0.394674D-02  0.322748D-01
      6 -0.360097D-02 -0.773628D-02 -0.984985D-02  0.590958D-02  0.216922D-02
      7 -0.106899D-01 -0.105195D-02 -0.835157D-02 -0.122399D-01 -0.655581D-02
      8  0.211545D-03 -0.187873D-01  0.625259D-02  0.837459D-03 -0.208042D-01
      9 -0.606416D-03 -0.476696D-02 -0.154168D-01 -0.237352D-02 -0.465362D-02
     10 -0.127779D-01  0.243297D-02  0.382609D-02  0.310640D-02 -0.352767D-02
     11  0.642320D-02 -0.177456D-01 -0.698052D-02  0.548578D-03 -0.133411D-02
     12  0.253077D-03  0.171365D-02 -0.153952D-01  0.925261D-03 -0.257349D-02
     13 -0.252514D-01  0.592001D-02  0.974568D-03  0.412332D-02 -0.340330D-02
     14 -0.858425D-02 -0.356074D-01 -0.842845D-02 -0.155676D-02  0.300556D-02
     15 -0.654106D-02  0.402809D-02 -0.262989D-01 -0.101150D-02 -0.605868D-03
     16  0.307950D-02  0.292657D-02 -0.194618D-02  0.371880D-02 -0.110247D-02
     17 -0.209545D-02 -0.179200D-02  0.382205D-02 -0.788933D-03  0.153448D-03
     18  0.194192D-03  0.320603D-02  0.446651D-02 -0.760200D-03  0.697663D-03
     19  0.204416D-02  0.162276D-02 -0.247276D-02  0.667098D-04  0.916592D-04
     20  0.241058D-02  0.272094D-02 -0.358502D-02 -0.531994D-04 -0.730959D-04
     21 -0.365563D-03 -0.407790D-03  0.539656D-03  0.727724D-05  0.999891D-05
                6             7             8             9            10 
      6  0.241591D-01
      7  0.315905D-02  0.450832D-01
      8  0.111671D-01  0.421613D-02  0.718662D-01
      9 -0.247230D-01  0.907033D-02 -0.135976D-02  0.877077D-01
     10 -0.199294D-02 -0.111382D-01  0.459624D-03 -0.529703D-02  0.544109D-01
     11 -0.507516D-02  0.590490D-02 -0.203219D-01  0.118167D-02 -0.111952D-01
     12  0.332003D-02  0.492178D-02 -0.437200D-02 -0.260181D-01 -0.805810D-02
     13 -0.227246D-02  0.178899D-02 -0.165481D-02 -0.127859D-02 -0.205487D-01
     14 -0.791078D-04 -0.104543D-02  0.666158D-02  0.105671D-02  0.106729D-01
     15  0.131951D-02 -0.474857D-02 -0.122647D-03 -0.188634D-02  0.543211D-02
     16 -0.108949D-02 -0.128856D-01 -0.409215D-02  0.530548D-03 -0.147055D-01
     17 -0.535688D-03 -0.145863D-02 -0.186393D-01  0.853612D-02  0.235495D-02
     18  0.578650D-02 -0.405179D-02 -0.115615D-01 -0.196629D-01  0.592712D-02
     19 -0.112769D-03  0.814065D-04  0.222020D-04 -0.453252D-04  0.165304D-02
     20  0.899307D-04 -0.921297D-05  0.248744D-04  0.584016D-05 -0.119756D-02
     21 -0.123018D-04  0.000000D+00 -0.378002D-05  0.000000D+00  0.162747D-03
               11            12            13            14            15 
     11  0.686473D-01
     12  0.320085D-02  0.804436D-01
     13  0.246390D-02 -0.230510D-02  0.447646D-01
     14 -0.131428D-01  0.327930D-02 -0.149858D-02  0.491016D-01
     15 -0.817557D-02 -0.151073D-01  0.453927D-02  0.471818D-02  0.565417D-01
     16 -0.249204D-02  0.767023D-02  0.450202D-02  0.212185D-02 -0.361232D-02
     17 -0.174848D-01 -0.387496D-02 -0.686555D-03 -0.248839D-03  0.614817D-03
     18  0.160383D-01 -0.268844D-01  0.212201D-03  0.138121D-03 -0.116887D-03
     19 -0.165331D-02 -0.340716D-02 -0.937878D-02 -0.109739D-03  0.594208D-02
     20  0.138187D-02  0.262664D-02 -0.114066D-02 -0.976971D-02 -0.457000D-03
     21 -0.189590D-03 -0.358501D-03  0.130112D-03 -0.684760D-03 -0.144517D-01
               16            17            18            19            20 
     16  0.162862D-01
     17  0.263279D-02  0.379618D-01
     18 -0.155196D-02 -0.855481D-02  0.364167D-01
     19  0.459287D-05  0.418257D-04  0.304444D-04  0.552887D-02
     20  0.545482D-05  0.496752D-04  0.361580D-04 -0.153967D-04  0.566545D-02
     21  0.000000D+00 -0.753111D-05 -0.548180D-05  0.654876D-04  0.128345D-02
               21 
     21  0.142889D-01
 Leave Link  716 at Tue Nov 28 21:55:05 2023, MaxMem=  1879048192 cpu:               0.4 elap:               0.0
 (Enter /home/sekinelabo/g16/l103.exe)

 GradGradGradGradGradGradGradGradGradGradGradGradGradGradGradGradGradGrad
 Berny optimization.
 Search for a local minimum.
 Step number   1 out of a maximum of    2
 All quantities printed in internal units (Hartrees-Bohrs-Radians)
 Second derivative matrix not updated -- first step.
 ITU=  0
     Eigenvalues ---    0.00681   0.01070   0.01665   0.02938   0.03371
     Eigenvalues ---    0.03675   0.04886   0.06396   0.07248   0.08373
     Eigenvalues ---    0.09364   0.10618   0.10887   0.11825   0.12090
 Angle between quadratic step and forces=  42.93 degrees.
 Linear search not attempted -- first point.
 B after Tr=    -0.000000   -0.000000   -0.000000
         Rot=    1.000000    0.000000    0.000000   -0.000000 Ang=   0.00 deg.
 Variable       Old X    -DE/DX   Delta X   Delta X   Delta X     New X
                                 (Linear)    (Quad)   (Total)
    X1       27.95699   0.00414   0.00000   0.04940   0.04940  28.00639
    Y1       32.77333   0.00106   0.00000   0.00775   0.00775  32.78108
    Z1       29.07797   0.00428   0.00000   0.03031   0.03031  29.10829
    X2       32.82001  -0.00251   0.00000  -0.05951  -0.05951  32.76050
    Y2       35.38002  -0.00280   0.00000  -0.09612  -0.09612  35.28390
    Z2       34.07346  -0.00125   0.00000  -0.04040  -0.04040  34.03306
    X3       31.13872   0.00012   0.00000  -0.00887  -0.00887  31.12985
    Y3       29.01504   0.00130   0.00000   0.01644   0.01644  29.03149
    Z3       34.63037  -0.00102   0.00000  -0.04088  -0.04088  34.58948
    X4       30.31215  -0.00221   0.00000  -0.03240  -0.03240  30.27975
    Y4       25.91287   0.00178   0.00000   0.03685   0.03685  25.94972
    Z4       28.75237  -0.00071   0.00000  -0.02695  -0.02695  28.72542
    X5       25.62355  -0.00042   0.00000   0.00277   0.00277  25.62632
    Y5       29.26883  -0.00222   0.00000  -0.00198  -0.00198  29.26685
    Z5       24.84914  -0.00416   0.00000  -0.02886  -0.02886  24.82028
    X6       29.57875   0.00089   0.00000   0.01655   0.01655  29.59530
    Y6       22.39439   0.00067   0.00000   0.04653   0.04653  22.44092
    Z6       33.69684   0.00075   0.00000  -0.01290  -0.01290  33.68394
    X7       25.57461  -0.00001   0.00000   0.03205   0.03205  25.60666
    Y7       28.26029   0.00021   0.00000  -0.00948  -0.00948  28.25081
    Z7       17.92494   0.00211   0.00000   0.11969   0.11969  18.04463
         Item               Value     Threshold  Converged?
 Maximum Force            0.004275     0.000450     NO 
 RMS     Force            0.002096     0.000300     NO 
 Maximum Displacement     0.119687     0.001800     NO 
 RMS     Displacement     0.044657     0.001200     NO 
 Predicted change in Energy=-7.197759D-04
 GradGradGradGradGradGradGradGradGradGradGradGradGradGradGradGradGradGrad

 Leave Link  103 at Tue Nov 28 21:55:05 2023, MaxMem=  1879048192 cpu:               0.2 elap:               0.0
 (Enter /home/sekinelabo/g16/l9999.exe)
 1\1\GINC-SEKINELABO-XA7R-R37\Force\UB3LYP\6-311+G(d)\Na7(2)\SEKINELABO
 \28-Nov-2023\0\\#P B3LYP/6-311+g(d) force\\DPGEN\\0,2\Na,14.7942,17.34
 29,15.3874\Na,17.3676,18.7223,18.0309\Na,16.4779,15.3541,18.3256\Na,16
 .0405,13.7125,15.2151\Na,13.5594,15.4884,13.1496\Na,15.6524,11.8506,17
 .8316\Na,13.5335,14.9547,9.48547\\Version=ES64L-G16RevB.01\State=2-A\H
 F=-1136.1228004\S2=0.770815\S2-1=0.\S2A=0.750126\RMSD=5.355e-09\RMSF=2
 .096e-03\Dipole=0.1417107,-0.2143238,0.2878175\Quadrupole=-3.3488516,3
 .8071086,-0.458257,1.5761,-0.9973879,-1.4137516\PG=C01 [X(Na7)]\\@


 SI MONUMENTUM REQUIRIS, CIRCUMSPICE
     -- FROM SIR CHRISTOPHER WREN'S TOMBSTONE
 Job cpu time:       0 days  0 hours  3 minutes 23.9 seconds.
 Elapsed time:       0 days  0 hours  0 minutes 17.8 seconds.
 File lengths (MBytes):  RWF=     32 Int=      0 D2E=      0 Chk=      4 Scr=      1
 Normal termination of Gaussian 16 at Tue Nov 28 21:55:05 2023.
