ITEM: TIMESTEP
6290
ITEM: NUMBER OF ATOMS
7
ITEM: BOX BOUNDS xy xz yz ff ff ff
0.0000000000000000e+00 2.4171291380600000e+01 0.0000000000000000e+00
0.0000000000000000e+00 2.4171291380600000e+01 0.0000000000000000e+00
0.0000000000000000e+00 2.4171291380600000e+01 0.0000000000000000e+00
ITEM: ATOMS id type x y z fx fy fz
7 1 11.5513 11.3332 9.09786 0.0795541 0.0783763 0.131126
5 1 9.84887 10.1491 11.7874 -0.00737176 0.0707457 0.0545731
3 1 11.037 13.7563 12.0427 -0.0789506 -0.148014 -0.109744
2 1 14.2745 13.4915 10.4234 -0.0764028 -0.0826964 -0.0359309
1 1 10.9659 11.5922 14.9736 -0.00393087 0.0233771 -0.0486113
4 1 13.0912 10.6853 12.5208 -0.0061742 -0.0225751 -0.165923
6 1 13.8309 13.592 13.7537 0.0932762 0.0807859 0.17451
