 Set GAUSS_MDEF to "14GB".
 Entering Gaussian System, Link 0=g16
 Initial command:
 /home/sekinelabo/g16/l1.exe "/home/sekinelabo/g16temp/Gau-179294.inp" -scrdir="/home/sekinelabo/g16temp/"
 Entering Link 1 = /home/sekinelabo/g16/l1.exe PID=    179296.
  
 Copyright (c) 1988-2017, Gaussian, Inc.  All Rights Reserved.
  
 This is part of the Gaussian(R) 16 program.  It is based on
 the Gaussian(R) 09 system (copyright 2009, Gaussian, Inc.),
 the Gaussian(R) 03 system (copyright 2003, Gaussian, Inc.),
 the Gaussian(R) 98 system (copyright 1998, Gaussian, Inc.),
 the Gaussian(R) 94 system (copyright 1995, Gaussian, Inc.),
 the Gaussian 92(TM) system (copyright 1992, Gaussian, Inc.),
 the Gaussian 90(TM) system (copyright 1990, Gaussian, Inc.),
 the Gaussian 88(TM) system (copyright 1988, Gaussian, Inc.),
 the Gaussian 86(TM) system (copyright 1986, Carnegie Mellon
 University), and the Gaussian 82(TM) system (copyright 1983,
 Carnegie Mellon University). Gaussian is a federally registered
 trademark of Gaussian, Inc.
  
 This software contains proprietary and confidential information,
 including trade secrets, belonging to Gaussian, Inc.
  
 This software is provided under written license and may be
 used, copied, transmitted, or stored only in accord with that
 written license.
  
 The following legend is applicable only to US Government
 contracts under FAR:
  
                    RESTRICTED RIGHTS LEGEND
  
 Use, reproduction and disclosure by the US Government is
 subject to restrictions as set forth in subparagraphs (a)
 and (c) of the Commercial Computer Software - Restricted
 Rights clause in FAR 52.227-19.
  
 Gaussian, Inc.
 340 Quinnipiac St., Bldg. 40, Wallingford CT 06492
  
  
 ---------------------------------------------------------------
 Warning -- This program may not be used in any manner that
 competes with the business of Gaussian, Inc. or will provide
 assistance to any competitor of Gaussian, Inc.  The licensee
 of this program is prohibited from giving any competitor of
 Gaussian, Inc. access to this program.  By using this program,
 the user acknowledges that Gaussian, Inc. is engaged in the
 business of creating and licensing software in the field of
 computational chemistry and represents and warrants to the
 licensee that it is not a competitor of Gaussian, Inc. and that
 it will not use this program in any manner prohibited above.
 ---------------------------------------------------------------
  

 Cite this work as:
 Gaussian 16, Revision B.01,
 M. J. Frisch, G. W. Trucks, H. B. Schlegel, G. E. Scuseria, 
 M. A. Robb, J. R. Cheeseman, G. Scalmani, V. Barone, 
 G. A. Petersson, H. Nakatsuji, X. Li, M. Caricato, A. V. Marenich, 
 J. Bloino, B. G. Janesko, R. Gomperts, B. Mennucci, H. P. Hratchian, 
 J. V. Ortiz, A. F. Izmaylov, J. L. Sonnenberg, D. Williams-Young, 
 F. Ding, F. Lipparini, F. Egidi, J. Goings, B. Peng, A. Petrone, 
 T. Henderson, D. Ranasinghe, V. G. Zakrzewski, J. Gao, N. Rega, 
 G. Zheng, W. Liang, M. Hada, M. Ehara, K. Toyota, R. Fukuda, 
 J. Hasegawa, M. Ishida, T. Nakajima, Y. Honda, O. Kitao, H. Nakai, 
 T. Vreven, K. Throssell, J. A. Montgomery, Jr., J. E. Peralta, 
 F. Ogliaro, M. J. Bearpark, J. J. Heyd, E. N. Brothers, K. N. Kudin, 
 V. N. Staroverov, T. A. Keith, R. Kobayashi, J. Normand, 
 K. Raghavachari, A. P. Rendell, J. C. Burant, S. S. Iyengar, 
 J. Tomasi, M. Cossi, J. M. Millam, M. Klene, C. Adamo, R. Cammi, 
 J. W. Ochterski, R. L. Martin, K. Morokuma, O. Farkas, 
 J. B. Foresman, and D. J. Fox, Gaussian, Inc., Wallingford CT, 2016.
 
 ******************************************
 Gaussian 16:  ES64L-G16RevB.01 20-Dec-2017
                28-Nov-2023 
 ******************************************
 %nproc=15
 Will use up to   15 processors via shared memory.
 -------------------------
 #P B3LYP/6-311+g(d) force
 -------------------------
 1/10=7,30=1,38=1/1,3;
 2/12=2,17=6,18=5,40=1/2;
 3/5=4,6=6,7=11,11=2,25=1,30=1,71=1,74=-5/1,2,3;
 4//1;
 5/5=2,38=5/2;
 6/7=2,8=2,9=2,10=2,28=1/1;
 7/29=1/1,2,3,16;
 1/10=7,30=1/3;
 99//99;
 Leave Link    1 at Tue Nov 28 23:04:33 2023, MaxMem=           0 cpu:               0.3 elap:               0.0
 (Enter /home/sekinelabo/g16/l101.exe)
 -----
 DPGEN
 -----
 Symbolic Z-matrix:
 Charge =  0 Multiplicity = 2
 Na                    15.5359   14.0766   13.8079 
 Na                    18.4482   12.9312   13.7873 
 Na                    18.3251   16.5523   15.019 
 Na                    17.1851   18.8644   17.2139 
 Na                    14.817    16.7378   15.8206 
 Na                    13.1152   14.1828   16.5122 
 Na                    9.99889   14.0804   15.2645 
 
 ITRead=  0  0  0  0  0  0  0
 MicOpt= -1 -1 -1 -1 -1 -1 -1
 NAtoms=      7 NQM=        7 NQMF=       0 NMMI=      0 NMMIF=      0
                NMic=       0 NMicF=      0.
                    Isotopes and Nuclear Properties:
 (Nuclear quadrupole moments (NQMom) in fm**2, nuclear magnetic moments (NMagM)
  in nuclear magnetons)

  Atom         1           2           3           4           5           6           7
 IAtWgt=          23          23          23          23          23          23          23
 AtmWgt=  22.9897697  22.9897697  22.9897697  22.9897697  22.9897697  22.9897697  22.9897697
 NucSpn=           3           3           3           3           3           3           3
 AtZEff=  -0.0000000  -0.0000000  -0.0000000  -0.0000000  -0.0000000  -0.0000000  -0.0000000
 NQMom=   10.4000000  10.4000000  10.4000000  10.4000000  10.4000000  10.4000000  10.4000000
 NMagM=    2.2175200   2.2175200   2.2175200   2.2175200   2.2175200   2.2175200   2.2175200
 AtZNuc=  11.0000000  11.0000000  11.0000000  11.0000000  11.0000000  11.0000000  11.0000000
 Leave Link  101 at Tue Nov 28 23:04:33 2023, MaxMem=  1879048192 cpu:               2.4 elap:               0.2
 (Enter /home/sekinelabo/g16/l103.exe)

 GradGradGradGradGradGradGradGradGradGradGradGradGradGradGradGradGradGrad
 Berny optimization.
 Initialization pass.
 Trust Radius=3.00D-01 FncErr=1.00D-07 GrdErr=1.00D-07 EigMax=2.50D+02 EigMin=1.00D-04
 Number of steps in this run=      2 maximum allowed number of steps=      2.
 GradGradGradGradGradGradGradGradGradGradGradGradGradGradGradGradGradGrad

 Leave Link  103 at Tue Nov 28 23:04:33 2023, MaxMem=  1879048192 cpu:               0.2 elap:               0.0
 (Enter /home/sekinelabo/g16/l202.exe)
                          Input orientation:                          
 ---------------------------------------------------------------------
 Center     Atomic      Atomic             Coordinates (Angstroms)
 Number     Number       Type             X           Y           Z
 ---------------------------------------------------------------------
      1         11           0       15.535900   14.076600   13.807900
      2         11           0       18.448200   12.931200   13.787300
      3         11           0       18.325100   16.552300   15.019000
      4         11           0       17.185100   18.864400   17.213900
      5         11           0       14.817000   16.737800   15.820600
      6         11           0       13.115200   14.182800   16.512200
      7         11           0        9.998890   14.080400   15.264500
 ---------------------------------------------------------------------
                    Distance matrix (angstroms):
                    1          2          3          4          5
     1  Na   0.000000
     2  Na   3.129514   0.000000
     3  Na   3.921159   3.826827   0.000000
     4  Na   6.102764   6.967056   3.385704   0.000000
     5  Na   3.413175   5.640047   3.603295   3.474422   0.000000
     6  Na   3.631020   6.118208   5.915001   6.242904   3.146817
     7  Na   5.725398   8.654110   8.688863   8.850335   5.530389
                    6          7
     6  Na   0.000000
     7  Na   3.358367   0.000000
 Stoichiometry    Na7(2)
 Framework group  C1[X(Na7)]
 Deg. of freedom    15
 Full point group                 C1      NOp   1
 Largest Abelian subgroup         C1      NOp   1
 Largest concise Abelian subgroup C1      NOp   1
                         Standard orientation:                         
 ---------------------------------------------------------------------
 Center     Atomic      Atomic             Coordinates (Angstroms)
 Number     Number       Type             X           Y           Z
 ---------------------------------------------------------------------
      1         11           0        0.162266    1.886553   -0.656016
      2         11           0       -2.262976    3.548346    0.416600
      3         11           0       -3.212286   -0.083304   -0.328067
      4         11           0       -2.767810   -3.397162    0.204640
      5         11           0        0.094414   -1.514194   -0.373036
      6         11           0        2.511661   -0.204703    1.158176
      7         11           0        5.474731   -0.235535   -0.422297
 ---------------------------------------------------------------------
 Rotational constants (GHZ):           0.6763945           0.3555400           0.2456049
 Leave Link  202 at Tue Nov 28 23:04:33 2023, MaxMem=  1879048192 cpu:               0.0 elap:               0.0
 (Enter /home/sekinelabo/g16/l301.exe)
 Standard basis: 6-311+G(d) (5D, 7F)
 Ernie: Thresh=  0.10000D-02 Tol=  0.10000D-05 Strict=F.
 There are   217 symmetry adapted cartesian basis functions of A   symmetry.
 There are   210 symmetry adapted basis functions of A   symmetry.
   210 basis functions,   350 primitive gaussians,   217 cartesian basis functions
    39 alpha electrons       38 beta electrons
       nuclear repulsion energy       291.7873120166 Hartrees.
 IExCor=  402 DFT=T Ex+Corr=B3LYP ExCW=0 ScaHFX=  0.200000
 ScaDFX=  0.800000  0.720000  1.000000  0.810000 ScalE2=  1.000000  1.000000
 IRadAn=      5 IRanWt=     -1 IRanGd=            0 ICorTp=0 IEmpDi=  4
 NAtoms=    7 NActive=    7 NUniq=    7 SFac= 1.00D+00 NAtFMM=   60 NAOKFM=F Big=F
 Integral buffers will be    131072 words long.
 Raffenetti 2 integral format.
 Two-electron integral symmetry is turned on.
 Leave Link  301 at Tue Nov 28 23:04:33 2023, MaxMem=  1879048192 cpu:               0.5 elap:               0.0
 (Enter /home/sekinelabo/g16/l302.exe)
 NPDir=0 NMtPBC=     1 NCelOv=     1 NCel=       1 NClECP=     1 NCelD=      1
         NCelK=      1 NCelE2=     1 NClLst=     1 CellRange=     0.0.
 One-electron integrals computed using PRISM.
 One-electron integral symmetry used in STVInt
 NBasis=   210 RedAO= T EigKep=  5.25D-06  NBF=   210
 NBsUse=   210 1.00D-06 EigRej= -1.00D+00 NBFU=   210
 Precomputing XC quadrature grid using
 IXCGrd= 4 IRadAn=           5 IRanWt=          -1 IRanGd=           0 AccXCQ= 0.00D+00.
 Generated NRdTot=       0 NPtTot=           0 NUsed=           0 NTot=          32
 NSgBfM=   206   206   206   206   206 MxSgAt=     7 MxSgA2=     7.
 Leave Link  302 at Tue Nov 28 23:04:34 2023, MaxMem=  1879048192 cpu:               2.1 elap:               0.1
 (Enter /home/sekinelabo/g16/l303.exe)
 DipDrv:  MaxL=1.
 Leave Link  303 at Tue Nov 28 23:04:34 2023, MaxMem=  1879048192 cpu:               0.5 elap:               0.0
 (Enter /home/sekinelabo/g16/l401.exe)
 ExpMin= 7.60D-03 ExpMax= 3.62D+04 ExpMxC= 1.21D+03 IAcc=3 IRadAn=         5 AccDes= 0.00D+00
 Harris functional with IExCor=  402 and IRadAn=       5 diagonalized for initial guess.
 HarFok:  IExCor=  402 AccDes= 0.00D+00 IRadAn=         5 IDoV= 1 UseB2=F ITyADJ=14
 ICtDFT=  3500011 ScaDFX=  1.000000  1.000000  1.000000  1.000000
 FoFCou: FMM=F IPFlag=           0 FMFlag=      100000 FMFlg1=           0
         NFxFlg=           0 DoJE=T BraDBF=F KetDBF=T FulRan=T
         wScrn=  0.000000 ICntrl=       500 IOpCl=  0 I1Cent=   200000004 NGrid=           0
         NMat0=    1 NMatS0=      1 NMatT0=    0 NMatD0=    1 NMtDS0=    0 NMtDT0=    0
 Petite list used in FoFCou.
 Harris En= -1135.89190366071    
 JPrj=0 DoOrth=F DoCkMO=F.
 Initial guess <Sx>= 0.0000 <Sy>= 0.0000 <Sz>= 0.5000 <S**2>= 0.7500 S= 0.5000
 Leave Link  401 at Tue Nov 28 23:04:34 2023, MaxMem=  1879048192 cpu:               4.2 elap:               0.3
 (Enter /home/sekinelabo/g16/l502.exe)
 Keep R1 and R2 ints in memory in canonical form, NReq=506573307.
 FoFCou: FMM=F IPFlag=           0 FMFlag=           0 FMFlg1=           0
         NFxFlg=           0 DoJE=F BraDBF=F KetDBF=F FulRan=T
         wScrn=  0.000000 ICntrl=       600 IOpCl=  0 I1Cent=           0 NGrid=           0
         NMat0=    1 NMatS0=  22155 NMatT0=    0 NMatD0=    1 NMtDS0=    0 NMtDT0=    0
 Symmetry not used in FoFCou.
 Two-electron integral symmetry not used.
 UHF open shell SCF:
 Using DIIS extrapolation, IDIIS=  1040.
 NGot=  1879048192 LenX=  1388082593 LenY=  1388035063
 Requested convergence on RMS density matrix=1.00D-08 within 128 cycles.
 Requested convergence on MAX density matrix=1.00D-06.
 Requested convergence on             energy=1.00D-06.
 No special actions if energy rises.

 Cycle   1  Pass 1  IDiag  1:
 E= -1136.09646565852    
 DIIS: error= 9.45D-03 at cycle   1 NSaved=   1.
 NSaved= 1 IEnMin= 1 EnMin= -1136.09646565852     IErMin= 1 ErrMin= 9.45D-03
 ErrMax= 9.45D-03  0.00D+00 EMaxC= 1.00D-01 BMatC= 1.83D-01 BMatP= 1.83D-01
 IDIUse=3 WtCom= 9.05D-01 WtEn= 9.45D-02
 Coeff-Com:  0.100D+01
 Coeff-En:   0.100D+01
 Coeff:      0.100D+01
 Gap=     0.047 Goal=   None    Shift=    0.000
 Gap=     0.048 Goal=   None    Shift=    0.000
 GapD=    0.047 DampG=0.250 DampE=1.000 DampFc=0.2500 IDamp=-1.
 Damping current iteration by 2.50D-01
 RMSDP=1.28D-02 MaxDP=1.07D+00              OVMax= 1.88D-01

 Cycle   2  Pass 1  IDiag  1:
 E= -1136.10549276103     Delta-E=       -0.009027102514 Rises=F Damp=T
 DIIS: error= 6.73D-03 at cycle   2 NSaved=   2.
 NSaved= 2 IEnMin= 2 EnMin= -1136.10549276103     IErMin= 2 ErrMin= 6.73D-03
 ErrMax= 6.73D-03  0.00D+00 EMaxC= 1.00D-01 BMatC= 7.05D-02 BMatP= 1.83D-01
 IDIUse=3 WtCom= 9.33D-01 WtEn= 6.73D-02
 Coeff-Com: -0.129D+01 0.229D+01
 Coeff-En:   0.000D+00 0.100D+01
 Coeff:     -0.120D+01 0.220D+01
 Gap=     0.049 Goal=   None    Shift=    0.000
 Gap=     0.054 Goal=   None    Shift=    0.000
 RMSDP=5.45D-03 MaxDP=5.32D-01 DE=-9.03D-03 OVMax= 1.61D-01

 Cycle   3  Pass 1  IDiag  1:
 E= -1136.12183385775     Delta-E=       -0.016341096723 Rises=F Damp=F
 DIIS: error= 2.58D-03 at cycle   3 NSaved=   3.
 NSaved= 3 IEnMin= 3 EnMin= -1136.12183385775     IErMin= 3 ErrMin= 2.58D-03
 ErrMax= 2.58D-03  0.00D+00 EMaxC= 1.00D-01 BMatC= 1.89D-03 BMatP= 7.05D-02
 IDIUse=3 WtCom= 9.74D-01 WtEn= 2.58D-02
 Coeff-Com: -0.179D+00 0.306D+00 0.874D+00
 Coeff-En:   0.000D+00 0.000D+00 0.100D+01
 Coeff:     -0.175D+00 0.298D+00 0.877D+00
 Gap=     0.050 Goal=   None    Shift=    0.000
 Gap=     0.051 Goal=   None    Shift=    0.000
 RMSDP=2.91D-03 MaxDP=1.96D-01 DE=-1.63D-02 OVMax= 8.65D-02

 Cycle   4  Pass 1  IDiag  1:
 E= -1136.12149435413     Delta-E=        0.000339503627 Rises=F Damp=F
 DIIS: error= 2.94D-03 at cycle   4 NSaved=   4.
 NSaved= 4 IEnMin= 3 EnMin= -1136.12183385775     IErMin= 3 ErrMin= 2.58D-03
 ErrMax= 2.94D-03  0.00D+00 EMaxC= 1.00D-01 BMatC= 2.41D-03 BMatP= 1.89D-03
 IDIUse=3 WtCom= 1.56D-01 WtEn= 8.44D-01
 Coeff-Com: -0.150D-01 0.193D-01 0.530D+00 0.466D+00
 Coeff-En:   0.000D+00 0.000D+00 0.535D+00 0.465D+00
 Coeff:     -0.234D-02 0.301D-02 0.534D+00 0.466D+00
 Gap=     0.048 Goal=   None    Shift=    0.000
 Gap=     0.054 Goal=   None    Shift=    0.000
 RMSDP=1.40D-03 MaxDP=1.07D-01 DE= 3.40D-04 OVMax= 5.28D-02

 Cycle   5  Pass 1  IDiag  1:
 E= -1136.12384451048     Delta-E=       -0.002350156349 Rises=F Damp=F
 DIIS: error= 1.24D-04 at cycle   5 NSaved=   5.
 NSaved= 5 IEnMin= 5 EnMin= -1136.12384451048     IErMin= 5 ErrMin= 1.24D-04
 ErrMax= 1.24D-04  0.00D+00 EMaxC= 1.00D-01 BMatC= 6.35D-06 BMatP= 1.89D-03
 IDIUse=3 WtCom= 9.99D-01 WtEn= 1.24D-03
 Coeff-Com:  0.107D-01-0.151D-01-0.484D-02-0.101D-01 0.102D+01
 Coeff-En:   0.000D+00 0.000D+00 0.000D+00 0.000D+00 0.100D+01
 Coeff:      0.107D-01-0.151D-01-0.483D-02-0.101D-01 0.102D+01
 Gap=     0.047 Goal=   None    Shift=    0.000
 Gap=     0.054 Goal=   None    Shift=    0.000
 RMSDP=3.38D-04 MaxDP=3.11D-02 DE=-2.35D-03 OVMax= 8.11D-03

 Cycle   6  Pass 1  IDiag  1:
 E= -1136.12386229911     Delta-E=       -0.000017788630 Rises=F Damp=F
 DIIS: error= 1.07D-04 at cycle   6 NSaved=   6.
 NSaved= 6 IEnMin= 6 EnMin= -1136.12386229911     IErMin= 6 ErrMin= 1.07D-04
 ErrMax= 1.07D-04  0.00D+00 EMaxC= 1.00D-01 BMatC= 3.61D-06 BMatP= 6.35D-06
 IDIUse=3 WtCom= 9.99D-01 WtEn= 1.07D-03
 Coeff-Com:  0.703D-02-0.962D-02-0.889D-01-0.775D-01 0.493D+00 0.676D+00
 Coeff-En:   0.000D+00 0.000D+00 0.000D+00 0.000D+00 0.000D+00 0.100D+01
 Coeff:      0.702D-02-0.961D-02-0.888D-01-0.774D-01 0.493D+00 0.676D+00
 Gap=     0.047 Goal=   None    Shift=    0.000
 Gap=     0.055 Goal=   None    Shift=    0.000
 RMSDP=1.43D-04 MaxDP=1.23D-02 DE=-1.78D-05 OVMax= 4.06D-03

 Cycle   7  Pass 1  IDiag  1:
 E= -1136.12386879427     Delta-E=       -0.000006495161 Rises=F Damp=F
 DIIS: error= 4.52D-05 at cycle   7 NSaved=   7.
 NSaved= 7 IEnMin= 7 EnMin= -1136.12386879427     IErMin= 7 ErrMin= 4.52D-05
 ErrMax= 4.52D-05  0.00D+00 EMaxC= 1.00D-01 BMatC= 7.37D-07 BMatP= 3.61D-06
 IDIUse=1 WtCom= 1.00D+00 WtEn= 0.00D+00
 Coeff-Com:  0.102D-02-0.127D-02-0.453D-01-0.353D-01-0.597D-02 0.319D+00
 Coeff-Com:  0.768D+00
 Coeff:      0.102D-02-0.127D-02-0.453D-01-0.353D-01-0.597D-02 0.319D+00
 Coeff:      0.768D+00
 Gap=     0.048 Goal=   None    Shift=    0.000
 Gap=     0.055 Goal=   None    Shift=    0.000
 RMSDP=1.05D-04 MaxDP=8.29D-03 DE=-6.50D-06 OVMax= 2.38D-03

 Cycle   8  Pass 1  IDiag  1:
 E= -1136.12387059502     Delta-E=       -0.000001800754 Rises=F Damp=F
 DIIS: error= 1.42D-05 at cycle   8 NSaved=   8.
 NSaved= 8 IEnMin= 8 EnMin= -1136.12387059502     IErMin= 8 ErrMin= 1.42D-05
 ErrMax= 1.42D-05  0.00D+00 EMaxC= 1.00D-01 BMatC= 6.76D-08 BMatP= 7.37D-07
 IDIUse=1 WtCom= 1.00D+00 WtEn= 0.00D+00
 Coeff-Com: -0.267D-03 0.430D-03-0.192D-02-0.909D-04-0.672D-01-0.236D-01
 Coeff-Com:  0.199D+00 0.894D+00
 Coeff:     -0.267D-03 0.430D-03-0.192D-02-0.909D-04-0.672D-01-0.236D-01
 Coeff:      0.199D+00 0.894D+00
 Gap=     0.048 Goal=   None    Shift=    0.000
 Gap=     0.055 Goal=   None    Shift=    0.000
 RMSDP=3.87D-05 MaxDP=3.13D-03 DE=-1.80D-06 OVMax= 9.20D-04

 Cycle   9  Pass 1  IDiag  1:
 E= -1136.12387083042     Delta-E=       -0.000000235402 Rises=F Damp=F
 DIIS: error= 4.89D-06 at cycle   9 NSaved=   9.
 NSaved= 9 IEnMin= 9 EnMin= -1136.12387083042     IErMin= 9 ErrMin= 4.89D-06
 ErrMax= 4.89D-06  0.00D+00 EMaxC= 1.00D-01 BMatC= 1.08D-08 BMatP= 6.76D-08
 IDIUse=1 WtCom= 1.00D+00 WtEn= 0.00D+00
 Coeff-Com: -0.120D-03 0.175D-03 0.445D-02 0.340D-02-0.144D-01-0.391D-01
 Coeff-Com: -0.446D-01 0.208D+00 0.882D+00
 Coeff:     -0.120D-03 0.175D-03 0.445D-02 0.340D-02-0.144D-01-0.391D-01
 Coeff:     -0.446D-01 0.208D+00 0.882D+00
 Gap=     0.048 Goal=   None    Shift=    0.000
 Gap=     0.055 Goal=   None    Shift=    0.000
 RMSDP=1.52D-05 MaxDP=1.27D-03 DE=-2.35D-07 OVMax= 3.22D-04

 Cycle  10  Pass 1  IDiag  1:
 E= -1136.12387087002     Delta-E=       -0.000000039601 Rises=F Damp=F
 DIIS: error= 2.19D-06 at cycle  10 NSaved=  10.
 NSaved=10 IEnMin=10 EnMin= -1136.12387087002     IErMin=10 ErrMin= 2.19D-06
 ErrMax= 2.19D-06  0.00D+00 EMaxC= 1.00D-01 BMatC= 2.56D-09 BMatP= 1.08D-08
 IDIUse=1 WtCom= 1.00D+00 WtEn= 0.00D+00
 Coeff-Com: -0.148D-04 0.113D-04 0.134D-02 0.634D-03 0.103D-01-0.463D-02
 Coeff-Com: -0.474D-01-0.132D+00 0.212D+00 0.960D+00
 Coeff:     -0.148D-04 0.113D-04 0.134D-02 0.634D-03 0.103D-01-0.463D-02
 Coeff:     -0.474D-01-0.132D+00 0.212D+00 0.960D+00
 Gap=     0.048 Goal=   None    Shift=    0.000
 Gap=     0.055 Goal=   None    Shift=    0.000
 RMSDP=8.56D-06 MaxDP=7.77D-04 DE=-3.96D-08 OVMax= 1.86D-04

 Cycle  11  Pass 1  IDiag  1:
 E= -1136.12387088191     Delta-E=       -0.000000011888 Rises=F Damp=F
 DIIS: error= 9.32D-07 at cycle  11 NSaved=  11.
 NSaved=11 IEnMin=11 EnMin= -1136.12387088191     IErMin=11 ErrMin= 9.32D-07
 ErrMax= 9.32D-07  0.00D+00 EMaxC= 1.00D-01 BMatC= 4.68D-10 BMatP= 2.56D-09
 IDIUse=1 WtCom= 1.00D+00 WtEn= 0.00D+00
 Coeff-Com: -0.604D-05 0.250D-05-0.498D-03-0.429D-03 0.410D-02 0.671D-02
 Coeff-Com:  0.668D-03-0.760D-01-0.147D+00 0.191D+00 0.102D+01
 Coeff:     -0.604D-05 0.250D-05-0.498D-03-0.429D-03 0.410D-02 0.671D-02
 Coeff:      0.668D-03-0.760D-01-0.147D+00 0.191D+00 0.102D+01
 Gap=     0.048 Goal=   None    Shift=    0.000
 Gap=     0.055 Goal=   None    Shift=    0.000
 RMSDP=5.14D-06 MaxDP=5.07D-04 DE=-1.19D-08 OVMax= 1.07D-04

 Cycle  12  Pass 1  IDiag  1:
 E= -1136.12387088499     Delta-E=       -0.000000003079 Rises=F Damp=F
 DIIS: error= 3.21D-07 at cycle  12 NSaved=  12.
 NSaved=12 IEnMin=12 EnMin= -1136.12387088499     IErMin=12 ErrMin= 3.21D-07
 ErrMax= 3.21D-07  0.00D+00 EMaxC= 1.00D-01 BMatC= 7.32D-11 BMatP= 4.68D-10
 IDIUse=1 WtCom= 1.00D+00 WtEn= 0.00D+00
 Coeff-Com:  0.109D-04-0.131D-04-0.124D-03 0.119D-04-0.303D-02-0.178D-03
 Coeff-Com:  0.870D-02 0.381D-01-0.856D-02-0.208D+00-0.161D+00 0.133D+01
 Coeff:      0.109D-04-0.131D-04-0.124D-03 0.119D-04-0.303D-02-0.178D-03
 Coeff:      0.870D-02 0.381D-01-0.856D-02-0.208D+00-0.161D+00 0.133D+01
 Gap=     0.048 Goal=   None    Shift=    0.000
 Gap=     0.055 Goal=   None    Shift=    0.000
 RMSDP=2.44D-06 MaxDP=2.48D-04 DE=-3.08D-09 OVMax= 5.65D-05

 Cycle  13  Pass 1  IDiag  1:
 E= -1136.12387088563     Delta-E=       -0.000000000636 Rises=F Damp=F
 DIIS: error= 2.17D-07 at cycle  13 NSaved=  13.
 NSaved=13 IEnMin=13 EnMin= -1136.12387088563     IErMin=13 ErrMin= 2.17D-07
 ErrMax= 2.17D-07  0.00D+00 EMaxC= 1.00D-01 BMatC= 1.37D-11 BMatP= 7.32D-11
 IDIUse=1 WtCom= 1.00D+00 WtEn= 0.00D+00
 Coeff-Com:  0.180D-05-0.152D-05 0.189D-04 0.249D-04-0.910D-03-0.834D-03
 Coeff-Com:  0.122D-02 0.131D-01 0.226D-01-0.392D-01-0.186D+00 0.138D+00
 Coeff-Com:  0.105D+01
 Coeff:      0.180D-05-0.152D-05 0.189D-04 0.249D-04-0.910D-03-0.834D-03
 Coeff:      0.122D-02 0.131D-01 0.226D-01-0.392D-01-0.186D+00 0.138D+00
 Coeff:      0.105D+01
 Gap=     0.048 Goal=   None    Shift=    0.000
 Gap=     0.055 Goal=   None    Shift=    0.000
 RMSDP=8.43D-07 MaxDP=9.67D-05 DE=-6.36D-10 OVMax= 2.00D-05

 Cycle  14  Pass 1  IDiag  1:
 E= -1136.12387088574     Delta-E=       -0.000000000115 Rises=F Damp=F
 DIIS: error= 1.60D-07 at cycle  14 NSaved=  14.
 NSaved=14 IEnMin=14 EnMin= -1136.12387088574     IErMin=14 ErrMin= 1.60D-07
 ErrMax= 1.60D-07  0.00D+00 EMaxC= 1.00D-01 BMatC= 4.66D-12 BMatP= 1.37D-11
 IDIUse=1 WtCom= 1.00D+00 WtEn= 0.00D+00
 Coeff-Com: -0.418D-05 0.554D-05 0.358D-04-0.471D-05 0.420D-03-0.104D-03
 Coeff-Com: -0.132D-02-0.633D-02 0.714D-02 0.370D-01 0.248D-02-0.302D+00
 Coeff-Com:  0.313D+00 0.950D+00
 Coeff:     -0.418D-05 0.554D-05 0.358D-04-0.471D-05 0.420D-03-0.104D-03
 Coeff:     -0.132D-02-0.633D-02 0.714D-02 0.370D-01 0.248D-02-0.302D+00
 Coeff:      0.313D+00 0.950D+00
 Gap=     0.048 Goal=   None    Shift=    0.000
 Gap=     0.055 Goal=   None    Shift=    0.000
 RMSDP=4.11D-07 MaxDP=4.94D-05 DE=-1.15D-10 OVMax= 1.17D-05

 Cycle  15  Pass 1  IDiag  1:
 E= -1136.12387088576     Delta-E=       -0.000000000014 Rises=F Damp=F
 DIIS: error= 1.26D-07 at cycle  15 NSaved=  15.
 NSaved=15 IEnMin=15 EnMin= -1136.12387088576     IErMin=15 ErrMin= 1.26D-07
 ErrMax= 1.26D-07  0.00D+00 EMaxC= 1.00D-01 BMatC= 1.60D-12 BMatP= 4.66D-12
 IDIUse=1 WtCom= 1.00D+00 WtEn= 0.00D+00
 Coeff-Com: -0.262D-05 0.330D-05 0.207D-04-0.437D-05 0.390D-03 0.102D-03
 Coeff-Com: -0.910D-03-0.603D-02-0.112D-03 0.260D-01 0.395D-01-0.190D+00
 Coeff-Com: -0.559D-01 0.498D+00 0.690D+00
 Coeff:     -0.262D-05 0.330D-05 0.207D-04-0.437D-05 0.390D-03 0.102D-03
 Coeff:     -0.910D-03-0.603D-02-0.112D-03 0.260D-01 0.395D-01-0.190D+00
 Coeff:     -0.559D-01 0.498D+00 0.690D+00
 Gap=     0.048 Goal=   None    Shift=    0.000
 Gap=     0.055 Goal=   None    Shift=    0.000
 RMSDP=1.66D-07 MaxDP=1.73D-05 DE=-1.36D-11 OVMax= 5.69D-06

 Cycle  16  Pass 1  IDiag  1:
 E= -1136.12387088577     Delta-E=       -0.000000000014 Rises=F Damp=F
 DIIS: error= 5.64D-08 at cycle  16 NSaved=  16.
 NSaved=16 IEnMin=16 EnMin= -1136.12387088577     IErMin=16 ErrMin= 5.64D-08
 ErrMax= 5.64D-08  0.00D+00 EMaxC= 1.00D-01 BMatC= 2.98D-13 BMatP= 1.60D-12
 IDIUse=1 WtCom= 1.00D+00 WtEn= 0.00D+00
 Coeff-Com:  0.463D-06-0.684D-06-0.392D-05-0.592D-06 0.279D-04 0.797D-04
 Coeff-Com:  0.332D-04-0.477D-03-0.202D-02-0.488D-04 0.121D-01 0.139D-01
 Coeff-Com: -0.978D-01-0.971D-01 0.233D+00 0.938D+00
 Coeff:      0.463D-06-0.684D-06-0.392D-05-0.592D-06 0.279D-04 0.797D-04
 Coeff:      0.332D-04-0.477D-03-0.202D-02-0.488D-04 0.121D-01 0.139D-01
 Coeff:     -0.978D-01-0.971D-01 0.233D+00 0.938D+00
 Gap=     0.048 Goal=   None    Shift=    0.000
 Gap=     0.055 Goal=   None    Shift=    0.000
 RMSDP=1.07D-07 MaxDP=1.08D-05 DE=-1.41D-11 OVMax= 3.21D-06

 Cycle  17  Pass 1  IDiag  1:
 E= -1136.12387088577     Delta-E=        0.000000000005 Rises=F Damp=F
 DIIS: error= 2.40D-08 at cycle  17 NSaved=  17.
 NSaved=17 IEnMin=16 EnMin= -1136.12387088577     IErMin=17 ErrMin= 2.40D-08
 ErrMax= 2.40D-08  0.00D+00 EMaxC= 1.00D-01 BMatC= 7.88D-14 BMatP= 2.98D-13
 IDIUse=1 WtCom= 1.00D+00 WtEn= 0.00D+00
 Coeff-Com:  0.962D-06-0.123D-05-0.637D-05 0.227D-05-0.115D-03-0.217D-04
 Coeff-Com:  0.232D-03 0.198D-02-0.515D-03-0.787D-02-0.107D-01 0.632D-01
 Coeff-Com:  0.759D-03-0.175D+00-0.194D+00 0.171D+00 0.115D+01
 Coeff:      0.962D-06-0.123D-05-0.637D-05 0.227D-05-0.115D-03-0.217D-04
 Coeff:      0.232D-03 0.198D-02-0.515D-03-0.787D-02-0.107D-01 0.632D-01
 Coeff:      0.759D-03-0.175D+00-0.194D+00 0.171D+00 0.115D+01
 Gap=     0.048 Goal=   None    Shift=    0.000
 Gap=     0.055 Goal=   None    Shift=    0.000
 RMSDP=7.60D-08 MaxDP=7.97D-06 DE= 5.00D-12 OVMax= 2.17D-06

 Cycle  18  Pass 1  IDiag  1:
 E= -1136.12387088577     Delta-E=       -0.000000000002 Rises=F Damp=F
 DIIS: error= 8.55D-09 at cycle  18 NSaved=  18.
 NSaved=18 IEnMin=16 EnMin= -1136.12387088577     IErMin=18 ErrMin= 8.55D-09
 ErrMax= 8.55D-09  0.00D+00 EMaxC= 1.00D-01 BMatC= 1.31D-14 BMatP= 7.88D-14
 IDIUse=1 WtCom= 1.00D+00 WtEn= 0.00D+00
 Coeff-Com: -0.970D-07 0.152D-06-0.352D-06-0.412D-06-0.105D-04-0.164D-04
 Coeff-Com:  0.177D-04 0.174D-03 0.388D-03-0.110D-02-0.247D-02 0.314D-02
 Coeff-Com:  0.157D-01 0.210D-01-0.350D-01-0.227D+00-0.808D-01 0.131D+01
 Coeff:     -0.970D-07 0.152D-06-0.352D-06-0.412D-06-0.105D-04-0.164D-04
 Coeff:      0.177D-04 0.174D-03 0.388D-03-0.110D-02-0.247D-02 0.314D-02
 Coeff:      0.157D-01 0.210D-01-0.350D-01-0.227D+00-0.808D-01 0.131D+01
 Gap=     0.048 Goal=   None    Shift=    0.000
 Gap=     0.055 Goal=   None    Shift=    0.000
 RMSDP=3.83D-08 MaxDP=5.15D-06 DE=-2.27D-12 OVMax= 1.03D-06

 Cycle  19  Pass 1  IDiag  1:
 E= -1136.12387088577     Delta-E=       -0.000000000004 Rises=F Damp=F
 DIIS: error= 2.17D-09 at cycle  19 NSaved=  19.
 NSaved=19 IEnMin=19 EnMin= -1136.12387088577     IErMin=19 ErrMin= 2.17D-09
 ErrMax= 2.17D-09  0.00D+00 EMaxC= 1.00D-01 BMatC= 1.79D-15 BMatP= 1.31D-14
 IDIUse=1 WtCom= 1.00D+00 WtEn= 0.00D+00
 Large coefficients: NSaved= 19 BigCof=    0.00 CofMax=   10.00 Det=-2.85D-15
 Inversion failed.  Reducing to 18 matrices.
 Large coefficients: NSaved= 18 BigCof=    0.00 CofMax=   10.00 Det=-2.93D-15
 Inversion failed.  Reducing to 17 matrices.
 Large coefficients: NSaved= 17 BigCof=    0.00 CofMax=   10.00 Det=-2.93D-15
 Inversion failed.  Reducing to 16 matrices.
 Large coefficients: NSaved= 16 BigCof=    0.00 CofMax=   10.00 Det=-2.98D-15
 Inversion failed.  Reducing to 15 matrices.
 Coeff-Com:  0.109D-05-0.346D-05 0.651D-05-0.245D-05 0.444D-04 0.393D-04
 Coeff-Com: -0.555D-04-0.116D-02-0.228D-02 0.956D-02 0.173D-01-0.218D-01
 Coeff-Com: -0.116D+00 0.552D-01 0.106D+01
 Coeff:      0.109D-05-0.346D-05 0.651D-05-0.245D-05 0.444D-04 0.393D-04
 Coeff:     -0.555D-04-0.116D-02-0.228D-02 0.956D-02 0.173D-01-0.218D-01
 Coeff:     -0.116D+00 0.552D-01 0.106D+01
 Gap=     0.048 Goal=   None    Shift=    0.000
 Gap=     0.055 Goal=   None    Shift=    0.000
 RMSDP=9.84D-09 MaxDP=1.23D-06 DE=-3.64D-12 OVMax= 2.74D-07

 Cycle  20  Pass 1  IDiag  1:
 E= -1136.12387088577     Delta-E=        0.000000000006 Rises=F Damp=F
 DIIS: error= 8.85D-10 at cycle  20 NSaved=  16.
 NSaved=16 IEnMin=15 EnMin= -1136.12387088577     IErMin=16 ErrMin= 8.85D-10
 ErrMax= 8.85D-10  0.00D+00 EMaxC= 1.00D-01 BMatC= 4.30D-16 BMatP= 1.79D-15
 IDIUse=1 WtCom= 1.00D+00 WtEn= 0.00D+00
 Large coefficients: NSaved= 16 BigCof=    0.00 CofMax=   10.00 Det=-1.24D-15
 Inversion failed.  Reducing to 15 matrices.
 Coeff-Com:  0.162D-05 0.644D-06-0.942D-05-0.320D-04 0.168D-03 0.248D-03
 Coeff-Com: -0.885D-03-0.334D-02 0.841D-03 0.134D-01 0.321D-01-0.325D-01
 Coeff-Com: -0.213D+00 0.312D+00 0.891D+00
 Coeff:      0.162D-05 0.644D-06-0.942D-05-0.320D-04 0.168D-03 0.248D-03
 Coeff:     -0.885D-03-0.334D-02 0.841D-03 0.134D-01 0.321D-01-0.325D-01
 Coeff:     -0.213D+00 0.312D+00 0.891D+00
 Gap=     0.048 Goal=   None    Shift=    0.000
 Gap=     0.055 Goal=   None    Shift=    0.000
 RMSDP=2.89D-09 MaxDP=2.88D-07 DE= 5.91D-12 OVMax= 9.93D-08

 SCF Done:  E(UB3LYP) =  -1136.12387089     A.U. after   20 cycles
            NFock= 20  Conv=0.29D-08     -V/T= 2.0028
 <Sx>= 0.0000 <Sy>= 0.0000 <Sz>= 0.5000 <S**2>= 0.7732 S= 0.5115
 <L.S>= 0.000000000000E+00
 KE= 1.132908355065D+03 PE=-3.312874630844D+03 EE= 7.520550928759D+02
 Annihilation of the first spin contaminant:
 S**2 before annihilation     0.7732,   after     0.7502
 Leave Link  502 at Tue Nov 28 23:04:50 2023, MaxMem=  1879048192 cpu:             179.2 elap:              16.2
 (Enter /home/sekinelabo/g16/l601.exe)
 Copying SCF densities to generalized density rwf, IOpCl= 1 IROHF=0.

 **********************************************************************

            Population analysis using the SCF Density.

 **********************************************************************

 Orbital symmetries:
 Alpha Orbitals:
       Occupied  (A) (A) (A) (A) (A) (A) (A) (A) (A) (A) (A) (A)
                 (A) (A) (A) (A) (A) (A) (A) (A) (A) (A) (A) (A)
                 (A) (A) (A) (A) (A) (A) (A) (A) (A) (A) (A) (A)
                 (A) (A) (A)
       Virtual   (A) (A) (A) (A) (A) (A) (A) (A) (A) (A) (A) (A)
                 (A) (A) (A) (A) (A) (A) (A) (A) (A) (A) (A) (A)
                 (A) (A) (A) (A) (A) (A) (A) (A) (A) (A) (A) (A)
                 (A) (A) (A) (A) (A) (A) (A) (A) (A) (A) (A) (A)
                 (A) (A) (A) (A) (A) (A) (A) (A) (A) (A) (A) (A)
                 (A) (A) (A) (A) (A) (A) (A) (A) (A) (A) (A) (A)
                 (A) (A) (A) (A) (A) (A) (A) (A) (A) (A) (A) (A)
                 (A) (A) (A) (A) (A) (A) (A) (A) (A) (A) (A) (A)
                 (A) (A) (A) (A) (A) (A) (A) (A) (A) (A) (A) (A)
                 (A) (A) (A) (A) (A) (A) (A) (A) (A) (A) (A) (A)
                 (A) (A) (A) (A) (A) (A) (A) (A) (A) (A) (A) (A)
                 (A) (A) (A) (A) (A) (A) (A) (A) (A) (A) (A) (A)
                 (A) (A) (A) (A) (A) (A) (A) (A) (A) (A) (A) (A)
                 (A) (A) (A) (A) (A) (A) (A) (A) (A) (A) (A) (A)
                 (A) (A) (A)
 Beta  Orbitals:
       Occupied  (A) (A) (A) (A) (A) (A) (A) (A) (A) (A) (A) (A)
                 (A) (A) (A) (A) (A) (A) (A) (A) (A) (A) (A) (A)
                 (A) (A) (A) (A) (A) (A) (A) (A) (A) (A) (A) (A)
                 (A) (A)
       Virtual   (A) (A) (A) (A) (A) (A) (A) (A) (A) (A) (A) (A)
                 (A) (A) (A) (A) (A) (A) (A) (A) (A) (A) (A) (A)
                 (A) (A) (A) (A) (A) (A) (A) (A) (A) (A) (A) (A)
                 (A) (A) (A) (A) (A) (A) (A) (A) (A) (A) (A) (A)
                 (A) (A) (A) (A) (A) (A) (A) (A) (A) (A) (A) (A)
                 (A) (A) (A) (A) (A) (A) (A) (A) (A) (A) (A) (A)
                 (A) (A) (A) (A) (A) (A) (A) (A) (A) (A) (A) (A)
                 (A) (A) (A) (A) (A) (A) (A) (A) (A) (A) (A) (A)
                 (A) (A) (A) (A) (A) (A) (A) (A) (A) (A) (A) (A)
                 (A) (A) (A) (A) (A) (A) (A) (A) (A) (A) (A) (A)
                 (A) (A) (A) (A) (A) (A) (A) (A) (A) (A) (A) (A)
                 (A) (A) (A) (A) (A) (A) (A) (A) (A) (A) (A) (A)
                 (A) (A) (A) (A) (A) (A) (A) (A) (A) (A) (A) (A)
                 (A) (A) (A) (A) (A) (A) (A) (A) (A) (A) (A) (A)
                 (A) (A) (A) (A)
 The electronic state is 2-A.
 Alpha  occ. eigenvalues --  -38.44444 -38.44226 -38.43959 -38.43948 -38.43801
 Alpha  occ. eigenvalues --  -38.43718 -38.43573  -2.20257  -2.20035  -2.19833
 Alpha  occ. eigenvalues --   -2.19757  -2.19627  -2.19616  -2.19431  -1.13963
 Alpha  occ. eigenvalues --   -1.13949  -1.13843  -1.13668  -1.13667  -1.13652
 Alpha  occ. eigenvalues --   -1.13546  -1.13512  -1.13471  -1.13423  -1.13419
 Alpha  occ. eigenvalues --   -1.13389  -1.13336  -1.13304  -1.13270  -1.13266
 Alpha  occ. eigenvalues --   -1.13241  -1.13231  -1.13100  -1.13086  -1.13064
 Alpha  occ. eigenvalues --   -0.17172  -0.13790  -0.12716  -0.10706
 Alpha virt. eigenvalues --   -0.05955  -0.05477  -0.04962  -0.03594  -0.02779
 Alpha virt. eigenvalues --   -0.02323  -0.01597  -0.01573  -0.01018  -0.00784
 Alpha virt. eigenvalues --   -0.00452   0.00058   0.00356   0.00424   0.00617
 Alpha virt. eigenvalues --    0.00779   0.00912   0.01049   0.01148   0.01171
 Alpha virt. eigenvalues --    0.01393   0.01488   0.01556   0.01680   0.01846
 Alpha virt. eigenvalues --    0.02008   0.02078   0.02143   0.02285   0.02379
 Alpha virt. eigenvalues --    0.02625   0.02780   0.02925   0.03038   0.03075
 Alpha virt. eigenvalues --    0.03119   0.03218   0.03346   0.03414   0.03441
 Alpha virt. eigenvalues --    0.03528   0.03748   0.04025   0.04118   0.04594
 Alpha virt. eigenvalues --    0.04810   0.05012   0.05386   0.05504   0.05589
 Alpha virt. eigenvalues --    0.05761   0.06037   0.06598   0.07179   0.07252
 Alpha virt. eigenvalues --    0.07631   0.07861   0.08071   0.08313   0.08430
 Alpha virt. eigenvalues --    0.08650   0.08970   0.09183   0.10063   0.10240
 Alpha virt. eigenvalues --    0.10950   0.11169   0.11339   0.11966   0.12215
 Alpha virt. eigenvalues --    0.12525   0.13193   0.13361   0.13842   0.14339
 Alpha virt. eigenvalues --    0.14466   0.15111   0.15525   0.16251   0.16871
 Alpha virt. eigenvalues --    0.26978   0.27639   0.28621   0.28920   0.29249
 Alpha virt. eigenvalues --    0.30183   0.30858   0.31019   0.32407   0.33451
 Alpha virt. eigenvalues --    0.34429   0.34737   0.35789   0.36011   0.36485
 Alpha virt. eigenvalues --    0.37721   0.38468   0.39056   0.39547   0.39691
 Alpha virt. eigenvalues --    0.41248   0.41680   0.42468   0.42911   0.43445
 Alpha virt. eigenvalues --    0.43775   0.43807   0.44197   0.44567   0.44774
 Alpha virt. eigenvalues --    0.44957   0.45552   0.45774   0.45951   0.46184
 Alpha virt. eigenvalues --    0.47086   0.47101   0.47750   0.48123   0.48455
 Alpha virt. eigenvalues --    0.49154   0.49668   0.50139   0.51082   0.51742
 Alpha virt. eigenvalues --    0.53027   0.53796   0.55812   0.56901   0.58271
 Alpha virt. eigenvalues --    0.59624   0.60976   0.62164   0.63264   0.68881
 Alpha virt. eigenvalues --    0.69883   2.03285   2.07236   2.11220   2.14230
 Alpha virt. eigenvalues --    2.16215   2.20453   2.22292   4.42825   4.43620
 Alpha virt. eigenvalues --    4.43954   4.44260   4.44742   4.45009   4.45053
 Alpha virt. eigenvalues --    4.45320   4.45665   4.46036   4.46628   4.46900
 Alpha virt. eigenvalues --    4.47593   4.48594   4.49226   4.50638   4.52596
 Alpha virt. eigenvalues --    4.53626   4.54899   4.62395   4.63149  96.22681
 Alpha virt. eigenvalues --   96.27709  96.32480  96.36158  96.38136  96.43607
 Alpha virt. eigenvalues --   96.45921
  Beta  occ. eigenvalues --  -38.44424 -38.44108 -38.43942 -38.43939 -38.43788
  Beta  occ. eigenvalues --  -38.43678 -38.43571  -2.20221  -2.19816  -2.19803
  Beta  occ. eigenvalues --   -2.19740  -2.19590  -2.19557  -2.19438  -1.13937
  Beta  occ. eigenvalues --   -1.13922  -1.13814  -1.13522  -1.13518  -1.13518
  Beta  occ. eigenvalues --   -1.13509  -1.13492  -1.13442  -1.13407  -1.13406
  Beta  occ. eigenvalues --   -1.13378  -1.13294  -1.13254  -1.13253  -1.13243
  Beta  occ. eigenvalues --   -1.13216  -1.13195  -1.13108  -1.13087  -1.13011
  Beta  occ. eigenvalues --   -0.16657  -0.12983  -0.12609
  Beta virt. eigenvalues --   -0.07141  -0.05790  -0.05167  -0.04648  -0.03149
  Beta virt. eigenvalues --   -0.02492  -0.02265  -0.01505  -0.01186  -0.00629
  Beta virt. eigenvalues --   -0.00429  -0.00196   0.00259   0.00509   0.00589
  Beta virt. eigenvalues --    0.00646   0.00877   0.00937   0.01135   0.01193
  Beta virt. eigenvalues --    0.01267   0.01487   0.01595   0.01640   0.01823
  Beta virt. eigenvalues --    0.01960   0.02126   0.02201   0.02276   0.02344
  Beta virt. eigenvalues --    0.02532   0.02788   0.02835   0.02983   0.03118
  Beta virt. eigenvalues --    0.03128   0.03164   0.03273   0.03372   0.03471
  Beta virt. eigenvalues --    0.03505   0.03643   0.03779   0.04092   0.04182
  Beta virt. eigenvalues --    0.04656   0.04845   0.05146   0.05458   0.05582
  Beta virt. eigenvalues --    0.05628   0.05852   0.06092   0.06848   0.07216
  Beta virt. eigenvalues --    0.07291   0.07697   0.07931   0.08152   0.08569
  Beta virt. eigenvalues --    0.08697   0.09096   0.09182   0.09212   0.10232
  Beta virt. eigenvalues --    0.10370   0.11250   0.11397   0.11527   0.12050
  Beta virt. eigenvalues --    0.12253   0.12633   0.13392   0.13479   0.13948
  Beta virt. eigenvalues --    0.14386   0.14610   0.15212   0.15716   0.16354
  Beta virt. eigenvalues --    0.17098   0.27363   0.27786   0.28842   0.29169
  Beta virt. eigenvalues --    0.29528   0.30325   0.31211   0.31361   0.32699
  Beta virt. eigenvalues --    0.33652   0.34783   0.35220   0.36658   0.36848
  Beta virt. eigenvalues --    0.36969   0.37996   0.38575   0.39287   0.39698
  Beta virt. eigenvalues --    0.39802   0.41389   0.41839   0.42680   0.43102
  Beta virt. eigenvalues --    0.43606   0.43923   0.44061   0.44347   0.44655
  Beta virt. eigenvalues --    0.45105   0.45129   0.45620   0.45877   0.46038
  Beta virt. eigenvalues --    0.46320   0.47147   0.47252   0.47835   0.48321
  Beta virt. eigenvalues --    0.48548   0.49184   0.49709   0.50206   0.51188
  Beta virt. eigenvalues --    0.51862   0.53117   0.53881   0.56042   0.56992
  Beta virt. eigenvalues --    0.58341   0.59848   0.61148   0.62298   0.63416
  Beta virt. eigenvalues --    0.68979   0.69974   2.03369   2.07622   2.11275
  Beta virt. eigenvalues --    2.14357   2.16282   2.20514   2.22389   4.42862
  Beta virt. eigenvalues --    4.43660   4.44034   4.44300   4.44792   4.45137
  Beta virt. eigenvalues --    4.45162   4.45390   4.45701   4.46074   4.46660
  Beta virt. eigenvalues --    4.46933   4.47637   4.48599   4.49256   4.50667
  Beta virt. eigenvalues --    4.52644   4.53689   4.54934   4.62423   4.63219
  Beta virt. eigenvalues --   96.22710  96.27837  96.32499  96.36202  96.38157
  Beta virt. eigenvalues --   96.43628  96.45957
          Condensed to atoms (all electrons):
               1          2          3          4          5          6
     1  Na  12.847696  -0.608771  -0.004750  -0.063861   0.737336  -1.372782
     2  Na  -0.608771  10.754542   0.126294   0.016380  -0.191642   0.444704
     3  Na  -0.004750   0.126294  10.581876   0.021000   0.190560   0.081582
     4  Na  -0.063861   0.016380   0.021000  10.835291  -0.857433   0.348077
     5  Na   0.737336  -0.191642   0.190560  -0.857433  13.331046  -1.186006
     6  Na  -1.372782   0.444704   0.081582   0.348077  -1.186006  11.976881
     7  Na   0.268423  -0.113734  -0.051891  -0.051232   0.228977  -0.051137
               7
     1  Na   0.268423
     2  Na  -0.113734
     3  Na  -0.051891
     4  Na  -0.051232
     5  Na   0.228977
     6  Na  -0.051137
     7  Na  10.852481
          Atomic-Atomic Spin Densities.
               1          2          3          4          5          6
     1  Na  -0.133632   0.115470   0.060286  -0.024905   0.235163  -0.219141
     2  Na   0.115470   0.033540   0.006025   0.016944  -0.054909  -0.001223
     3  Na   0.060286   0.006025   0.173574  -0.016947   0.093355  -0.036160
     4  Na  -0.024905   0.016944  -0.016947  -0.095531   0.285611  -0.051799
     5  Na   0.235163  -0.054909   0.093355   0.285611  -0.360513  -0.218148
     6  Na  -0.219141  -0.001223  -0.036160  -0.051799  -0.218148   0.349582
     7  Na  -0.083724   0.011697   0.002497   0.020329  -0.068383   0.186717
               7
     1  Na  -0.083724
     2  Na   0.011697
     3  Na   0.002497
     4  Na   0.020329
     5  Na  -0.068383
     6  Na   0.186717
     7  Na   0.515472
 Mulliken charges and spin densities:
               1          2
     1  Na  -0.803291  -0.050483
     2  Na   0.572227   0.127544
     3  Na   0.055329   0.282630
     4  Na   0.751778   0.133702
     5  Na  -1.252837  -0.087825
     6  Na   0.758682   0.009827
     7  Na  -0.081889   0.584604
 Sum of Mulliken charges =  -0.00000   1.00000
 Mulliken charges and spin densities with hydrogens summed into heavy atoms:
               1          2
     1  Na  -0.803291  -0.050483
     2  Na   0.572227   0.127544
     3  Na   0.055329   0.282630
     4  Na   0.751778   0.133702
     5  Na  -1.252837  -0.087825
     6  Na   0.758682   0.009827
     7  Na  -0.081889   0.584604
 Electronic spatial extent (au):  <R**2>=           3760.4557
 Charge=             -0.0000 electrons
 Dipole moment (field-independent basis, Debye):
    X=             -1.0922    Y=             -0.1779    Z=              0.1211  Tot=              1.1132
 Quadrupole moment (field-independent basis, Debye-Ang):
   XX=            -72.0488   YY=            -61.3987   ZZ=            -68.0403
   XY=              1.5959   XZ=             -3.4062   YZ=              0.3104
 Traceless Quadrupole moment (field-independent basis, Debye-Ang):
   XX=             -4.8862   YY=              5.7639   ZZ=             -0.8777
   XY=              1.5959   XZ=             -3.4062   YZ=              0.3104
 Octapole moment (field-independent basis, Debye-Ang**2):
  XXX=            -40.8408  YYY=            -13.9931  ZZZ=              3.6011  XYY=            -37.6531
  XXY=             -0.3921  XXZ=            -10.4418  XZZ=              4.3003  YZZ=              1.6829
  YYZ=             14.4191  XYZ=             -2.4183
 Hexadecapole moment (field-independent basis, Debye-Ang**3):
 XXXX=          -4103.0801 YYYY=          -1795.0685 ZZZZ=           -379.9598 XXXY=              8.5492
 XXXZ=           -114.1155 YYYX=             57.1324 YYYZ=             20.0608 ZZZX=              1.4353
 ZZZY=             -1.2529 XXYY=           -947.6939 XXZZ=           -739.8250 YYZZ=           -412.3997
 XXYZ=              5.6744 YYXZ=            -60.1738 ZZXY=              0.4723
 N-N= 2.917873120166D+02 E-N=-3.312874630977D+03  KE= 1.132908355065D+03
                          Isotropic Fermi Contact Couplings
        Atom                 a.u.       MegaHertz       Gauss      10(-4) cm-1
     1  Na(23)             0.04867      57.57456      20.54404      19.20481
     2  Na(23)             0.05762      68.16357      24.32246      22.73692
     3  Na(23)             0.07087      83.84541      29.91813      27.96782
     4  Na(23)             0.03549      41.99051      14.98326      14.00653
     5  Na(23)             0.15209     179.92771      64.20268      60.01742
     6  Na(23)            -0.08792    -104.00883     -37.11294     -34.69361
     7  Na(23)             0.50929     602.50867     214.99008     200.97526
 --------------------------------------------------------
       Center         ----  Spin Dipole Couplings  ----
                      3XX-RR        3YY-RR        3ZZ-RR
 --------------------------------------------------------
     1   Atom       -0.010512      0.020884     -0.010372
     2   Atom        0.001073      0.000019     -0.001092
     3   Atom        0.004901      0.000856     -0.005757
     4   Atom        0.003163     -0.000486     -0.002677
     5   Atom       -0.009749      0.016298     -0.006549
     6   Atom        0.069709     -0.037145     -0.032564
     7   Atom       -0.004853      0.002186      0.002666
 --------------------------------------------------------
                        XY            XZ            YZ
 --------------------------------------------------------
     1   Atom       -0.013644      0.001300     -0.005833
     2   Atom        0.003837      0.002298     -0.000790
     3   Atom        0.001943     -0.002027      0.000066
     4   Atom       -0.005882      0.001288      0.000227
     5   Atom        0.014364      0.000622      0.005598
     6   Atom        0.001941      0.011615     -0.000247
     7   Atom       -0.000013      0.003807      0.000126
 --------------------------------------------------------


 ---------------------------------------------------------------------------------
              Anisotropic Spin Dipole Couplings in Principal Axis System
 ---------------------------------------------------------------------------------

       Atom             a.u.   MegaHertz   Gauss  10(-4) cm-1        Axes

              Baa    -0.0158    -2.226    -0.794    -0.742  0.9125  0.3681  0.1782
     1 Na(23) Bbb    -0.0112    -1.576    -0.562    -0.526 -0.2228  0.0820  0.9714
              Bcc     0.0269     3.802     1.357     1.268 -0.3430  0.9262 -0.1568
 
              Baa    -0.0046    -0.655    -0.234    -0.218  0.6098 -0.5919 -0.5270
     2 Na(23) Bbb    -0.0001    -0.009    -0.003    -0.003  0.1802 -0.5440  0.8195
              Bcc     0.0047     0.664     0.237     0.221  0.7718  0.5947  0.2251
 
              Baa    -0.0062    -0.869    -0.310    -0.290  0.1905 -0.0621  0.9797
     3 Na(23) Bbb     0.0002     0.025     0.009     0.008 -0.3315  0.9353  0.1237
              Bcc     0.0060     0.844     0.301     0.282  0.9240  0.3484 -0.1576
 
              Baa    -0.0052    -0.732    -0.261    -0.244  0.5737  0.7353 -0.3609
     4 Na(23) Bbb    -0.0024    -0.338    -0.120    -0.113  0.1464  0.3415  0.9284
              Bcc     0.0076     1.070     0.382     0.357  0.8059 -0.5854  0.0882
 
              Baa    -0.0164    -2.320    -0.828    -0.774  0.8884 -0.4212  0.1827
     5 Na(23) Bbb    -0.0072    -1.015    -0.362    -0.339 -0.2390 -0.0844  0.9674
              Bcc     0.0236     3.336     1.190     1.113  0.3920  0.9031  0.1756
 
              Baa    -0.0372    -5.259    -1.877    -1.754 -0.0324  0.9906  0.1327
     6 Na(23) Bbb    -0.0338    -4.774    -1.703    -1.592 -0.1080 -0.1355  0.9849
              Bcc     0.0710    10.033     3.580     3.346  0.9936  0.0176  0.1114
 
              Baa    -0.0064    -0.910    -0.325    -0.304  0.9226  0.0071 -0.3856
     7 Na(23) Bbb     0.0022     0.308     0.110     0.103 -0.0270  0.9986 -0.0464
              Bcc     0.0043     0.602     0.215     0.201  0.3848  0.0533  0.9215
 

 ---------------------------------------------------------------------------------

 No NMR shielding tensors so no spin-rotation constants.
 Leave Link  601 at Tue Nov 28 23:04:51 2023, MaxMem=  1879048192 cpu:               2.3 elap:               0.2
 (Enter /home/sekinelabo/g16/l701.exe)
 ... and contract with generalized density number  0.
 Compute integral first derivatives.
 Leave Link  701 at Tue Nov 28 23:04:51 2023, MaxMem=  1879048192 cpu:               1.5 elap:               0.1
 (Enter /home/sekinelabo/g16/l702.exe)
 L702 exits ... SP integral derivatives will be done elsewhere.
 Leave Link  702 at Tue Nov 28 23:04:51 2023, MaxMem=  1879048192 cpu:               0.5 elap:               0.0
 (Enter /home/sekinelabo/g16/l703.exe)
 Integral derivatives from FoFJK, PRISM(SPDF).
 Compute integral first derivatives, UseDBF=F ICtDFT=           0.
 Calling FoFJK, ICntrl=      2127 FMM=F ISym2X=0 I1Cent= 0 IOpClX= 1 NMat=1 NMatS=1 NMatT=0.
 FoFJK:  IHMeth= 1 ICntrl=    2127 DoSepK=F KAlg= 0 I1Cent=           0 FoldK=F
 IRaf=         0 NMat=       1 IRICut=       1 DoRegI=T DoRafI=F ISym2E= 0 IDoP0=0 IntGTp=1.
 FoFCou: FMM=F IPFlag=           0 FMFlag=      100000 FMFlg1=         800
         NFxFlg=           0 DoJE=F BraDBF=F KetDBF=F FulRan=T
         wScrn=  0.000000 ICntrl=      2127 IOpCl=  1 I1Cent=           0 NGrid=           0
         NMat0=    1 NMatS0=      1 NMatT0=    0 NMatD0=    1 NMtDS0=    0 NMtDT0=    0
 Symmetry not used in FoFCou.
 Leave Link  703 at Tue Nov 28 23:04:53 2023, MaxMem=  1879048192 cpu:              29.6 elap:               2.0
 (Enter /home/sekinelabo/g16/l716.exe)
 Dipole        =-4.29693654D-01-6.99742891D-02 4.76505081D-02
 ***** Axes restored to original set *****
 -------------------------------------------------------------------
 Center     Atomic                   Forces (Hartrees/Bohr)
 Number     Number              X              Y              Z
 -------------------------------------------------------------------
      1       11          -0.001600958    0.000140988    0.000889471
      2       11           0.002651617    0.001421529   -0.000010916
      3       11          -0.001009210   -0.002197207   -0.000063094
      4       11           0.000335434   -0.000588137   -0.001187584
      5       11           0.001794614    0.003759904    0.000734517
      6       11          -0.002594261   -0.002507427   -0.000717192
      7       11           0.000422765   -0.000029651    0.000354798
 -------------------------------------------------------------------
 Cartesian Forces:  Max     0.003759904 RMS     0.001571764
 Z-matrix is all fixed cartesians, so copy forces.
 Force constants in Cartesian coordinates: 
                1             2             3             4             5 
      1  0.848518D-01
      2  0.753827D-04  0.565845D-01
      3  0.737751D-02  0.183686D-01  0.727405D-01
      4 -0.326723D-01  0.138078D-01  0.489453D-03  0.408659D-01
      5 -0.231543D-02 -0.168566D-01 -0.529574D-02 -0.859278D-02  0.312665D-01
      6 -0.121971D-01  0.186829D-03 -0.183376D-01 -0.226983D-02  0.700207D-02
      7 -0.176582D-01 -0.220811D-02  0.604793D-02 -0.120292D-01  0.695613D-02
      8 -0.568595D-02 -0.103288D-01  0.286099D-03 -0.129872D-01 -0.176447D-01
      9 -0.499920D-02 -0.749335D-02 -0.152161D-01  0.194484D-02 -0.644425D-03
     10  0.763338D-02 -0.161538D-02 -0.218849D-02  0.195288D-02  0.704424D-03
     11 -0.202988D-02 -0.356584D-03 -0.341068D-02  0.239698D-02  0.134539D-02
     12 -0.199695D-02 -0.200160D-02  0.159683D-02 -0.150770D-02 -0.104364D-02
     13 -0.272452D-01 -0.455359D-02 -0.588417D-02  0.228052D-02  0.432163D-02
     14  0.489676D-02 -0.221630D-01 -0.341718D-02  0.503818D-02  0.977226D-03
     15  0.465082D-02 -0.149318D-01 -0.173379D-01  0.172219D-02  0.963653D-03
     16 -0.132944D-01 -0.542742D-02 -0.439959D-02 -0.397405D-03 -0.107302D-02
     17  0.486048D-02 -0.677778D-02 -0.671285D-02  0.307251D-03  0.836815D-03
     18  0.314721D-02  0.566658D-02 -0.270340D-01 -0.377445D-03 -0.978118D-03
     19 -0.161511D-02 -0.786471D-04 -0.144265D-02  0.000000D+00  0.000000D+00
     20  0.198634D-03 -0.101728D-03  0.181798D-03  0.297787D-04  0.752892D-04
     21  0.401767D-02  0.204781D-03  0.358829D-02 -0.150570D-05 -0.380685D-05
                6             7             8             9            10 
      6  0.187689D-01
      7  0.765251D-02  0.745287D-01
      8  0.159830D-02  0.101930D-01  0.659603D-01
      9 -0.104555D-01 -0.183559D-01  0.585804D-02  0.520101D-01
     10 -0.187057D-02 -0.195679D-01  0.673643D-02  0.154017D-01  0.303279D-01
     11 -0.376824D-02 -0.961456D-02 -0.192423D-01 -0.108754D-02  0.591519D-02
     12  0.298876D-02  0.197511D-02 -0.727448D-02 -0.181987D-01 -0.269927D-02
     13  0.456646D-02 -0.237652D-01  0.680065D-02  0.207786D-02 -0.206133D-01
     14 -0.226330D-02 -0.365085D-02 -0.230857D-01  0.129755D-02 -0.115597D-01
     15  0.328645D-02  0.381006D-02 -0.126076D-02 -0.109833D-01 -0.860570D-02
     16  0.411880D-02 -0.150309D-02 -0.505373D-02  0.395381D-02  0.242306D-03
     17 -0.277936D-02 -0.165754D-02  0.429740D-02  0.206316D-02 -0.148545D-03
     18  0.375025D-02 -0.114406D-02  0.788438D-03  0.278632D-02  0.212660D-04
     19  0.000000D+00 -0.517242D-05 -0.318758D-05 -0.231053D-04  0.246814D-04
     20  0.236991D-04 -0.180394D-04  0.437943D-04  0.655442D-05 -0.324060D-04
     21 -0.119830D-05  0.143994D-04  0.436720D-05  0.571708D-04 -0.589858D-04
               11            12            13            14            15 
     11  0.325172D-01
     12  0.131987D-01  0.257347D-01
     13  0.523238D-02  0.178763D-02  0.918624D-01
     14 -0.145810D-01 -0.271056D-02  0.268904D-03  0.917127D-01
     15 -0.150344D-02 -0.174141D-01 -0.105085D-02  0.565756D-02  0.621567D-01
     16 -0.188045D-02  0.245311D-02 -0.217730D-01  0.463493D-02 -0.636578D-04
     17  0.291457D-03 -0.184082D-03 -0.749264D-02 -0.350394D-01  0.142879D-01
     18 -0.347581D-02  0.526402D-02 -0.373655D-02  0.254335D-02 -0.211276D-01
     19 -0.196685D-04 -0.119292D-04 -0.746284D-03  0.371782D-03 -0.462873D-03
     20  0.258242D-04  0.156627D-04 -0.457733D-02  0.217907D-02 -0.321312D-02
     21  0.470056D-04  0.285095D-04  0.223962D-02 -0.110742D-02  0.141980D-02
               16            17            18            19            20 
     16  0.544640D-01
     17  0.568965D-02  0.438287D-01
     18  0.519021D-02 -0.936091D-02  0.511535D-01
     19 -0.177384D-01 -0.155864D-02 -0.310063D-02  0.200806D-01
     20  0.311005D-02 -0.743720D-02  0.481648D-02  0.128931D-02  0.521496D-02
     21 -0.112527D-01  0.268614D-02 -0.147925D-01  0.504148D-02 -0.183107D-02
               21 
     21  0.969994D-02
 Leave Link  716 at Tue Nov 28 23:04:53 2023, MaxMem=  1879048192 cpu:               0.4 elap:               0.0
 (Enter /home/sekinelabo/g16/l103.exe)

 GradGradGradGradGradGradGradGradGradGradGradGradGradGradGradGradGradGrad
 Berny optimization.
 Search for a local minimum.
 Step number   1 out of a maximum of    2
 All quantities printed in internal units (Hartrees-Bohrs-Radians)
 Second derivative matrix not updated -- first step.
 ITU=  0
     Eigenvalues ---    0.00645   0.01461   0.02255   0.02758   0.03076
     Eigenvalues ---    0.04069   0.05466   0.06157   0.07958   0.08759
     Eigenvalues ---    0.10232   0.11135   0.11219   0.12658   0.13315
 Angle between quadratic step and forces=  39.24 degrees.
 Linear search not attempted -- first point.
 B after Tr=    -0.000000   -0.000000    0.000000
         Rot=    1.000000    0.000000   -0.000000   -0.000000 Ang=   0.00 deg.
 Variable       Old X    -DE/DX   Delta X   Delta X   Delta X     New X
                                 (Linear)    (Quad)   (Total)
    X1       29.35860  -0.00160   0.00000  -0.01253  -0.01253  29.34607
    Y1       26.60092   0.00014   0.00000  -0.00135  -0.00135  26.59957
    Z1       26.09315   0.00089   0.00000   0.01795   0.01795  26.11110
    X2       34.86205   0.00265   0.00000   0.05267   0.05267  34.91472
    Y2       24.43643   0.00142   0.00000   0.04621   0.04621  24.48264
    Z2       26.05422  -0.00001   0.00000   0.00707   0.00707  26.06129
    X3       34.62942  -0.00101   0.00000  -0.00517  -0.00517  34.62425
    Y3       31.27931  -0.00220   0.00000  -0.01709  -0.01709  31.26223
    Z3       28.38180  -0.00006   0.00000  -0.01140  -0.01140  28.37039
    X4       32.47513   0.00034   0.00000   0.03947   0.03947  32.51461
    Y4       35.64855  -0.00059   0.00000  -0.02116  -0.02116  35.62739
    Z4       32.52956  -0.00119   0.00000  -0.02627  -0.02627  32.50329
    X5       28.00007   0.00179   0.00000   0.00827   0.00827  28.00834
    Y5       31.62986   0.00376   0.00000   0.02679   0.02679  31.65665
    Z5       29.89660   0.00073   0.00000   0.01466   0.01466  29.91126
    X6       24.78414  -0.00259   0.00000  -0.05521  -0.05521  24.72892
    Y6       26.80161  -0.00251   0.00000  -0.02755  -0.02755  26.77406
    Z6       31.20354  -0.00072   0.00000   0.00269   0.00269  31.20622
    X7       18.89516   0.00042   0.00000  -0.02750  -0.02750  18.86766
    Y7       26.60810  -0.00003   0.00000  -0.00586  -0.00586  26.60224
    Z7       28.84572   0.00035   0.00000  -0.00469  -0.00469  28.84103
         Item               Value     Threshold  Converged?
 Maximum Force            0.003760     0.000450     NO 
 RMS     Force            0.001572     0.000300     NO 
 Maximum Displacement     0.055213     0.001800     NO 
 RMS     Displacement     0.026016     0.001200     NO 
 Predicted change in Energy=-3.325431D-04
 GradGradGradGradGradGradGradGradGradGradGradGradGradGradGradGradGradGrad

 Leave Link  103 at Tue Nov 28 23:04:53 2023, MaxMem=  1879048192 cpu:               0.2 elap:               0.0
 (Enter /home/sekinelabo/g16/l9999.exe)
 1\1\GINC-SEKINELABO-XA7R-R37\Force\UB3LYP\6-311+G(d)\Na7(2)\SEKINELABO
 \28-Nov-2023\0\\#P B3LYP/6-311+g(d) force\\DPGEN\\0,2\Na,15.5359,14.07
 66,13.8079\Na,18.4482,12.9312,13.7873\Na,18.3251,16.5523,15.019\Na,17.
 1851,18.8644,17.2139\Na,14.817,16.7378,15.8206\Na,13.1152,14.1828,16.5
 122\Na,9.99889,14.0804,15.2645\\Version=ES64L-G16RevB.01\State=2-A\HF=
 -1136.1238709\S2=0.773219\S2-1=0.\S2A=0.750219\RMSD=2.891e-09\RMSF=1.5
 72e-03\Dipole=0.4006333,0.1645609,0.0649328\Quadrupole=-2.7143584,2.38
 95754,0.324783,-2.1217314,2.1155442,2.8807431\PG=C01 [X(Na7)]\\@


 TO ERR IS HUMAN - AND TO BLAME IT ON A COMPUTER IS EVEN MORE SO.
 Job cpu time:       0 days  0 hours  3 minutes 44.7 seconds.
 Elapsed time:       0 days  0 hours  0 minutes 19.3 seconds.
 File lengths (MBytes):  RWF=     32 Int=      0 D2E=      0 Chk=      4 Scr=      1
 Normal termination of Gaussian 16 at Tue Nov 28 23:04:53 2023.
