ITEM: TIMESTEP
490
ITEM: NUMBER OF ATOMS
7
ITEM: BOX BOUNDS xy xz yz ff ff ff
0.0000000000000000e+00 2.6179245689300000e+01 0.0000000000000000e+00
0.0000000000000000e+00 2.6179245689300000e+01 0.0000000000000000e+00
0.0000000000000000e+00 2.6179245689300000e+01 0.0000000000000000e+00
ITEM: ATOMS id type x y z fx fy fz
3 1 15.2686 13.842 14.1323 -0.014069 0.0293566 -0.060791
6 1 10.9198 13.8586 13.2075 -0.0514106 0.00589365 0.0806161
7 1 10.2264 10.5562 14.3045 0.118459 0.113408 0.00549399
1 1 13.2253 11.5861 12.2791 0.0152773 -0.0516941 0.0263402
4 1 16.356 14.1161 10.9417 -0.0620281 -0.0117351 0.0144419
2 1 12.789 13.0058 16.1471 -0.092445 -0.0807928 -0.0763869
5 1 12.8422 14.6626 10.6152 0.0862163 -0.00443646 0.0102856
