 Set GAUSS_MDEF to "14GB".
 Entering Gaussian System, Link 0=g16
 Initial command:
 /home/sekinelabo/g16/l1.exe "/home/sekinelabo/g16temp/Gau-874439.inp" -scrdir="/home/sekinelabo/g16temp/"
 Entering Link 1 = /home/sekinelabo/g16/l1.exe PID=    874441.
  
 Copyright (c) 1988-2017, Gaussian, Inc.  All Rights Reserved.
  
 This is part of the Gaussian(R) 16 program.  It is based on
 the Gaussian(R) 09 system (copyright 2009, Gaussian, Inc.),
 the Gaussian(R) 03 system (copyright 2003, Gaussian, Inc.),
 the Gaussian(R) 98 system (copyright 1998, Gaussian, Inc.),
 the Gaussian(R) 94 system (copyright 1995, Gaussian, Inc.),
 the Gaussian 92(TM) system (copyright 1992, Gaussian, Inc.),
 the Gaussian 90(TM) system (copyright 1990, Gaussian, Inc.),
 the Gaussian 88(TM) system (copyright 1988, Gaussian, Inc.),
 the Gaussian 86(TM) system (copyright 1986, Carnegie Mellon
 University), and the Gaussian 82(TM) system (copyright 1983,
 Carnegie Mellon University). Gaussian is a federally registered
 trademark of Gaussian, Inc.
  
 This software contains proprietary and confidential information,
 including trade secrets, belonging to Gaussian, Inc.
  
 This software is provided under written license and may be
 used, copied, transmitted, or stored only in accord with that
 written license.
  
 The following legend is applicable only to US Government
 contracts under FAR:
  
                    RESTRICTED RIGHTS LEGEND
  
 Use, reproduction and disclosure by the US Government is
 subject to restrictions as set forth in subparagraphs (a)
 and (c) of the Commercial Computer Software - Restricted
 Rights clause in FAR 52.227-19.
  
 Gaussian, Inc.
 340 Quinnipiac St., Bldg. 40, Wallingford CT 06492
  
  
 ---------------------------------------------------------------
 Warning -- This program may not be used in any manner that
 competes with the business of Gaussian, Inc. or will provide
 assistance to any competitor of Gaussian, Inc.  The licensee
 of this program is prohibited from giving any competitor of
 Gaussian, Inc. access to this program.  By using this program,
 the user acknowledges that Gaussian, Inc. is engaged in the
 business of creating and licensing software in the field of
 computational chemistry and represents and warrants to the
 licensee that it is not a competitor of Gaussian, Inc. and that
 it will not use this program in any manner prohibited above.
 ---------------------------------------------------------------
  

 Cite this work as:
 Gaussian 16, Revision B.01,
 M. J. Frisch, G. W. Trucks, H. B. Schlegel, G. E. Scuseria, 
 M. A. Robb, J. R. Cheeseman, G. Scalmani, V. Barone, 
 G. A. Petersson, H. Nakatsuji, X. Li, M. Caricato, A. V. Marenich, 
 J. Bloino, B. G. Janesko, R. Gomperts, B. Mennucci, H. P. Hratchian, 
 J. V. Ortiz, A. F. Izmaylov, J. L. Sonnenberg, D. Williams-Young, 
 F. Ding, F. Lipparini, F. Egidi, J. Goings, B. Peng, A. Petrone, 
 T. Henderson, D. Ranasinghe, V. G. Zakrzewski, J. Gao, N. Rega, 
 G. Zheng, W. Liang, M. Hada, M. Ehara, K. Toyota, R. Fukuda, 
 J. Hasegawa, M. Ishida, T. Nakajima, Y. Honda, O. Kitao, H. Nakai, 
 T. Vreven, K. Throssell, J. A. Montgomery, Jr., J. E. Peralta, 
 F. Ogliaro, M. J. Bearpark, J. J. Heyd, E. N. Brothers, K. N. Kudin, 
 V. N. Staroverov, T. A. Keith, R. Kobayashi, J. Normand, 
 K. Raghavachari, A. P. Rendell, J. C. Burant, S. S. Iyengar, 
 J. Tomasi, M. Cossi, J. M. Millam, M. Klene, C. Adamo, R. Cammi, 
 J. W. Ochterski, R. L. Martin, K. Morokuma, O. Farkas, 
 J. B. Foresman, and D. J. Fox, Gaussian, Inc., Wallingford CT, 2016.
 
 ******************************************
 Gaussian 16:  ES64L-G16RevB.01 20-Dec-2017
                 7-Dec-2023 
 ******************************************
 %nproc=15
 Will use up to   15 processors via shared memory.
 -------------------------
 #P B3LYP/6-311+g(d) force
 -------------------------
 1/10=7,30=1,38=1/1,3;
 2/12=2,17=6,18=5,40=1/2;
 3/5=4,6=6,7=11,11=2,25=1,30=1,71=1,74=-5/1,2,3;
 4//1;
 5/5=2,38=5/2;
 6/7=2,8=2,9=2,10=2,28=1/1;
 7/29=1/1,2,3,16;
 1/10=7,30=1/3;
 99//99;
 Leave Link    1 at Thu Dec  7 07:27:23 2023, MaxMem=           0 cpu:               0.3 elap:               0.0
 (Enter /home/sekinelabo/g16/l101.exe)
 -----
 DPGEN
 -----
 Symbolic Z-matrix:
 Charge =  0 Multiplicity = 2
 Na                    11.9997   14.442    15.1127 
 Na                    14.7424   13.5071   10.7916 
 Na                    12.6685   15.8275   12.0701 
 Na                    14.6923   13.7352   14.2406 
 Na                    14.3266   10.6607   13.4058 
 Na                    11.7267   12.3845   11.4745 
 Na                    12.0654   11.6648   15.1264 
 
 ITRead=  0  0  0  0  0  0  0
 MicOpt= -1 -1 -1 -1 -1 -1 -1
 NAtoms=      7 NQM=        7 NQMF=       0 NMMI=      0 NMMIF=      0
                NMic=       0 NMicF=      0.
                    Isotopes and Nuclear Properties:
 (Nuclear quadrupole moments (NQMom) in fm**2, nuclear magnetic moments (NMagM)
  in nuclear magnetons)

  Atom         1           2           3           4           5           6           7
 IAtWgt=          23          23          23          23          23          23          23
 AtmWgt=  22.9897697  22.9897697  22.9897697  22.9897697  22.9897697  22.9897697  22.9897697
 NucSpn=           3           3           3           3           3           3           3
 AtZEff=  -0.0000000  -0.0000000  -0.0000000  -0.0000000  -0.0000000  -0.0000000  -0.0000000
 NQMom=   10.4000000  10.4000000  10.4000000  10.4000000  10.4000000  10.4000000  10.4000000
 NMagM=    2.2175200   2.2175200   2.2175200   2.2175200   2.2175200   2.2175200   2.2175200
 AtZNuc=  11.0000000  11.0000000  11.0000000  11.0000000  11.0000000  11.0000000  11.0000000
 Leave Link  101 at Thu Dec  7 07:27:24 2023, MaxMem=  1879048192 cpu:               2.5 elap:               0.2
 (Enter /home/sekinelabo/g16/l103.exe)

 GradGradGradGradGradGradGradGradGradGradGradGradGradGradGradGradGradGrad
 Berny optimization.
 Initialization pass.
 Trust Radius=3.00D-01 FncErr=1.00D-07 GrdErr=1.00D-07 EigMax=2.50D+02 EigMin=1.00D-04
 Number of steps in this run=      2 maximum allowed number of steps=      2.
 GradGradGradGradGradGradGradGradGradGradGradGradGradGradGradGradGradGrad

 Leave Link  103 at Thu Dec  7 07:27:24 2023, MaxMem=  1879048192 cpu:               0.2 elap:               0.0
 (Enter /home/sekinelabo/g16/l202.exe)
                          Input orientation:                          
 ---------------------------------------------------------------------
 Center     Atomic      Atomic             Coordinates (Angstroms)
 Number     Number       Type             X           Y           Z
 ---------------------------------------------------------------------
      1         11           0       11.999700   14.442000   15.112700
      2         11           0       14.742400   13.507100   10.791600
      3         11           0       12.668500   15.827500   12.070100
      4         11           0       14.692300   13.735200   14.240600
      5         11           0       14.326600   10.660700   13.405800
      6         11           0       11.726700   12.384500   11.474500
      7         11           0       12.065400   11.664800   15.126400
 ---------------------------------------------------------------------
                    Distance matrix (angstroms):
                    1          2          3          4          5
     1  Na   0.000000
     2  Na   5.202725   0.000000
     3  Na   3.409445   3.364503   0.000000
     4  Na   2.917228   3.456898   3.631054   0.000000
     5  Na   4.756701   3.887020   5.588310   3.206739   0.000000
     6  Na   4.188596   3.289533   3.618836   4.274399   3.668908
     7  Na   2.778011   5.417646   5.199305   3.460029   3.013587
                    6          7
     6  Na   0.000000
     7  Na   3.737520   0.000000
 Stoichiometry    Na7(2)
 Framework group  C1[X(Na7)]
 Deg. of freedom    15
 Full point group                 C1      NOp   1
 Largest Abelian subgroup         C1      NOp   1
 Largest concise Abelian subgroup C1      NOp   1
                         Standard orientation:                         
 ---------------------------------------------------------------------
 Center     Atomic      Atomic             Coordinates (Angstroms)
 Number     Number       Type             X           Y           Z
 ---------------------------------------------------------------------
      1         11           0        0.887840    2.439564   -0.058424
      2         11           0       -2.279846   -1.658799   -0.545798
      3         11           0       -2.416273    1.627784    0.161053
      4         11           0        0.246118    0.272201   -1.902591
      5         11           0        1.559410   -2.254906   -0.428761
      6         11           0       -0.603628   -0.792727    2.148871
      7         11           0        2.606381    0.366883    0.625649
 ---------------------------------------------------------------------
 Rotational constants (GHZ):           0.8322239           0.7180566           0.5673161
 Leave Link  202 at Thu Dec  7 07:27:24 2023, MaxMem=  1879048192 cpu:               0.0 elap:               0.0
 (Enter /home/sekinelabo/g16/l301.exe)
 Standard basis: 6-311+G(d) (5D, 7F)
 Ernie: Thresh=  0.10000D-02 Tol=  0.10000D-05 Strict=F.
 There are   217 symmetry adapted cartesian basis functions of A   symmetry.
 There are   210 symmetry adapted basis functions of A   symmetry.
   210 basis functions,   350 primitive gaussians,   217 cartesian basis functions
    39 alpha electrons       38 beta electrons
       nuclear repulsion energy       358.5291302394 Hartrees.
 IExCor=  402 DFT=T Ex+Corr=B3LYP ExCW=0 ScaHFX=  0.200000
 ScaDFX=  0.800000  0.720000  1.000000  0.810000 ScalE2=  1.000000  1.000000
 IRadAn=      5 IRanWt=     -1 IRanGd=            0 ICorTp=0 IEmpDi=  4
 NAtoms=    7 NActive=    7 NUniq=    7 SFac= 1.00D+00 NAtFMM=   60 NAOKFM=F Big=F
 Integral buffers will be    131072 words long.
 Raffenetti 2 integral format.
 Two-electron integral symmetry is turned on.
 Leave Link  301 at Thu Dec  7 07:27:24 2023, MaxMem=  1879048192 cpu:               0.5 elap:               0.0
 (Enter /home/sekinelabo/g16/l302.exe)
 NPDir=0 NMtPBC=     1 NCelOv=     1 NCel=       1 NClECP=     1 NCelD=      1
         NCelK=      1 NCelE2=     1 NClLst=     1 CellRange=     0.0.
 One-electron integrals computed using PRISM.
 One-electron integral symmetry used in STVInt
 NBasis=   210 RedAO= T EigKep=  2.45D-06  NBF=   210
 NBsUse=   210 1.00D-06 EigRej= -1.00D+00 NBFU=   210
 Precomputing XC quadrature grid using
 IXCGrd= 4 IRadAn=           5 IRanWt=          -1 IRanGd=           0 AccXCQ= 0.00D+00.
 Generated NRdTot=       0 NPtTot=           0 NUsed=           0 NTot=          32
 NSgBfM=   211   211   211   211   211 MxSgAt=     7 MxSgA2=     7.
 Leave Link  302 at Thu Dec  7 07:27:24 2023, MaxMem=  1879048192 cpu:               2.0 elap:               0.1
 (Enter /home/sekinelabo/g16/l303.exe)
 DipDrv:  MaxL=1.
 Leave Link  303 at Thu Dec  7 07:27:24 2023, MaxMem=  1879048192 cpu:               0.5 elap:               0.0
 (Enter /home/sekinelabo/g16/l401.exe)
 ExpMin= 7.60D-03 ExpMax= 3.62D+04 ExpMxC= 1.21D+03 IAcc=3 IRadAn=         5 AccDes= 0.00D+00
 Harris functional with IExCor=  402 and IRadAn=       5 diagonalized for initial guess.
 HarFok:  IExCor=  402 AccDes= 0.00D+00 IRadAn=         5 IDoV= 1 UseB2=F ITyADJ=14
 ICtDFT=  3500011 ScaDFX=  1.000000  1.000000  1.000000  1.000000
 FoFCou: FMM=F IPFlag=           0 FMFlag=      100000 FMFlg1=           0
         NFxFlg=           0 DoJE=T BraDBF=F KetDBF=T FulRan=T
         wScrn=  0.000000 ICntrl=       500 IOpCl=  0 I1Cent=   200000004 NGrid=           0
         NMat0=    1 NMatS0=      1 NMatT0=    0 NMatD0=    1 NMtDS0=    0 NMtDT0=    0
 Petite list used in FoFCou.
 Harris En= -1135.89693417435    
 JPrj=0 DoOrth=F DoCkMO=F.
 Initial guess <Sx>= 0.0000 <Sy>= 0.0000 <Sz>= 0.5000 <S**2>= 0.7500 S= 0.5000
 Leave Link  401 at Thu Dec  7 07:27:24 2023, MaxMem=  1879048192 cpu:               4.4 elap:               0.3
 (Enter /home/sekinelabo/g16/l502.exe)
 Keep R1 and R2 ints in memory in canonical form, NReq=506573321.
 FoFCou: FMM=F IPFlag=           0 FMFlag=           0 FMFlg1=           0
         NFxFlg=           0 DoJE=F BraDBF=F KetDBF=F FulRan=T
         wScrn=  0.000000 ICntrl=       600 IOpCl=  0 I1Cent=           0 NGrid=           0
         NMat0=    1 NMatS0=  22155 NMatT0=    0 NMatD0=    1 NMtDS0=    0 NMtDT0=    0
 Symmetry not used in FoFCou.
 Two-electron integral symmetry not used.
 UHF open shell SCF:
 Using DIIS extrapolation, IDIIS=  1040.
 NGot=  1879048192 LenX=  1388082579 LenY=  1388035049
 Requested convergence on RMS density matrix=1.00D-08 within 128 cycles.
 Requested convergence on MAX density matrix=1.00D-06.
 Requested convergence on             energy=1.00D-06.
 No special actions if energy rises.

 Cycle   1  Pass 1  IDiag  1:
 E= -1136.09020253123    
 DIIS: error= 1.19D-02 at cycle   1 NSaved=   1.
 NSaved= 1 IEnMin= 1 EnMin= -1136.09020253123     IErMin= 1 ErrMin= 1.19D-02
 ErrMax= 1.19D-02  0.00D+00 EMaxC= 1.00D-01 BMatC= 1.95D-01 BMatP= 1.95D-01
 IDIUse=3 WtCom= 8.81D-01 WtEn= 1.19D-01
 Coeff-Com:  0.100D+01
 Coeff-En:   0.100D+01
 Coeff:      0.100D+01
 Gap=     0.058 Goal=   None    Shift=    0.000
 Gap=     0.042 Goal=   None    Shift=    0.000
 GapD=    0.042 DampG=0.250 DampE=0.500 DampFc=0.2500 IDamp=-1.
 Damping current iteration by 2.50D-01
 RMSDP=2.56D-02 MaxDP=1.52D+00              OVMax= 2.23D-01

 Cycle   2  Pass 1  IDiag  1:
 E= -1136.10306372105     Delta-E=       -0.012861189814 Rises=F Damp=T
 DIIS: error= 8.30D-03 at cycle   2 NSaved=   2.
 NSaved= 2 IEnMin= 2 EnMin= -1136.10306372105     IErMin= 2 ErrMin= 8.30D-03
 ErrMax= 8.30D-03  0.00D+00 EMaxC= 1.00D-01 BMatC= 7.43D-02 BMatP= 1.95D-01
 IDIUse=3 WtCom= 9.17D-01 WtEn= 8.30D-02
 Coeff-Com: -0.129D+01 0.229D+01
 Coeff-En:   0.000D+00 0.100D+01
 Coeff:     -0.118D+01 0.218D+01
 Gap=     0.066 Goal=   None    Shift=    0.000
 Gap=     0.045 Goal=   None    Shift=    0.000
 RMSDP=1.40D-02 MaxDP=9.72D-01 DE=-1.29D-02 OVMax= 1.38D-01

 Cycle   3  Pass 1  IDiag  1:
 E= -1136.12490617221     Delta-E=       -0.021842451157 Rises=F Damp=F
 DIIS: error= 2.88D-03 at cycle   3 NSaved=   3.
 NSaved= 3 IEnMin= 3 EnMin= -1136.12490617221     IErMin= 3 ErrMin= 2.88D-03
 ErrMax= 2.88D-03  0.00D+00 EMaxC= 1.00D-01 BMatC= 2.51D-03 BMatP= 7.43D-02
 IDIUse=3 WtCom= 9.71D-01 WtEn= 2.88D-02
 Coeff-Com: -0.176D+00 0.323D+00 0.854D+00
 Coeff-En:   0.000D+00 0.000D+00 0.100D+01
 Coeff:     -0.171D+00 0.313D+00 0.858D+00
 Gap=     0.063 Goal=   None    Shift=    0.000
 Gap=     0.044 Goal=   None    Shift=    0.000
 RMSDP=4.25D-03 MaxDP=3.52D-01 DE=-2.18D-02 OVMax= 9.42D-02

 Cycle   4  Pass 1  IDiag  1:
 E= -1136.12227206648     Delta-E=        0.002634105728 Rises=F Damp=F
 DIIS: error= 4.60D-03 at cycle   4 NSaved=   4.
 NSaved= 4 IEnMin= 3 EnMin= -1136.12490617221     IErMin= 3 ErrMin= 2.88D-03
 ErrMax= 4.60D-03  0.00D+00 EMaxC= 1.00D-01 BMatC= 4.57D-03 BMatP= 2.51D-03
 IDIUse=3 WtCom= 1.29D-01 WtEn= 8.71D-01
 Coeff-Com:  0.871D-02-0.881D-02 0.576D+00 0.424D+00
 Coeff-En:   0.000D+00 0.000D+00 0.647D+00 0.353D+00
 Coeff:      0.112D-02-0.113D-02 0.638D+00 0.362D+00
 Gap=     0.063 Goal=   None    Shift=    0.000
 Gap=     0.045 Goal=   None    Shift=    0.000
 RMSDP=1.54D-03 MaxDP=1.81D-01 DE= 2.63D-03 OVMax= 5.60D-02

 Cycle   5  Pass 1  IDiag  1:
 E= -1136.12710575511     Delta-E=       -0.004833688629 Rises=F Damp=F
 DIIS: error= 7.79D-04 at cycle   5 NSaved=   5.
 NSaved= 5 IEnMin= 5 EnMin= -1136.12710575511     IErMin= 5 ErrMin= 7.79D-04
 ErrMax= 7.79D-04  0.00D+00 EMaxC= 1.00D-01 BMatC= 1.75D-04 BMatP= 2.51D-03
 IDIUse=3 WtCom= 9.92D-01 WtEn= 7.79D-03
 Coeff-Com:  0.119D-02-0.200D-02 0.332D+00 0.180D+00 0.488D+00
 Coeff-En:   0.000D+00 0.000D+00 0.000D+00 0.000D+00 0.100D+01
 Coeff:      0.118D-02-0.199D-02 0.330D+00 0.179D+00 0.492D+00
 Gap=     0.064 Goal=   None    Shift=    0.000
 Gap=     0.044 Goal=   None    Shift=    0.000
 RMSDP=4.76D-04 MaxDP=3.67D-02 DE=-4.83D-03 OVMax= 9.24D-03

 Cycle   6  Pass 1  IDiag  1:
 E= -1136.12722550283     Delta-E=       -0.000119747724 Rises=F Damp=F
 DIIS: error= 1.15D-04 at cycle   6 NSaved=   6.
 NSaved= 6 IEnMin= 6 EnMin= -1136.12722550283     IErMin= 6 ErrMin= 1.15D-04
 ErrMax= 1.15D-04  0.00D+00 EMaxC= 1.00D-01 BMatC= 5.55D-06 BMatP= 1.75D-04
 IDIUse=3 WtCom= 9.99D-01 WtEn= 1.15D-03
 Coeff-Com: -0.283D-02 0.341D-02 0.805D-01 0.326D-01 0.204D+00 0.683D+00
 Coeff-En:   0.000D+00 0.000D+00 0.000D+00 0.000D+00 0.000D+00 0.100D+01
 Coeff:     -0.283D-02 0.341D-02 0.804D-01 0.326D-01 0.204D+00 0.683D+00
 Gap=     0.064 Goal=   None    Shift=    0.000
 Gap=     0.044 Goal=   None    Shift=    0.000
 RMSDP=1.45D-04 MaxDP=1.11D-02 DE=-1.20D-04 OVMax= 3.68D-03

 Cycle   7  Pass 1  IDiag  1:
 E= -1136.12722943207     Delta-E=       -0.000003929244 Rises=F Damp=F
 DIIS: error= 8.40D-05 at cycle   7 NSaved=   7.
 NSaved= 7 IEnMin= 7 EnMin= -1136.12722943207     IErMin= 7 ErrMin= 8.40D-05
 ErrMax= 8.40D-05  0.00D+00 EMaxC= 1.00D-01 BMatC= 2.99D-06 BMatP= 5.55D-06
 IDIUse=1 WtCom= 1.00D+00 WtEn= 0.00D+00
 Coeff-Com: -0.244D-02 0.304D-02-0.341D-01-0.267D-01 0.129D-01 0.479D+00
 Coeff-Com:  0.568D+00
 Coeff:     -0.244D-02 0.304D-02-0.341D-01-0.267D-01 0.129D-01 0.479D+00
 Coeff:      0.568D+00
 Gap=     0.064 Goal=   None    Shift=    0.000
 Gap=     0.045 Goal=   None    Shift=    0.000
 RMSDP=1.53D-04 MaxDP=2.47D-02 DE=-3.93D-06 OVMax= 1.82D-03

 Cycle   8  Pass 1  IDiag  1:
 E= -1136.12723303728     Delta-E=       -0.000003605204 Rises=F Damp=F
 DIIS: error= 1.26D-05 at cycle   8 NSaved=   8.
 NSaved= 8 IEnMin= 8 EnMin= -1136.12723303728     IErMin= 8 ErrMin= 1.26D-05
 ErrMax= 1.26D-05  0.00D+00 EMaxC= 1.00D-01 BMatC= 4.53D-08 BMatP= 2.99D-06
 IDIUse=1 WtCom= 1.00D+00 WtEn= 0.00D+00
 Coeff-Com:  0.254D-03-0.352D-03-0.979D-02-0.527D-02-0.125D-01-0.224D-01
 Coeff-Com:  0.260D-01 0.102D+01
 Coeff:      0.254D-03-0.352D-03-0.979D-02-0.527D-02-0.125D-01-0.224D-01
 Coeff:      0.260D-01 0.102D+01
 Gap=     0.065 Goal=   None    Shift=    0.000
 Gap=     0.045 Goal=   None    Shift=    0.000
 RMSDP=5.09D-05 MaxDP=6.86D-03 DE=-3.61D-06 OVMax= 5.61D-04

 Cycle   9  Pass 1  IDiag  1:
 E= -1136.12723311421     Delta-E=       -0.000000076936 Rises=F Damp=F
 DIIS: error= 1.30D-05 at cycle   9 NSaved=   9.
 NSaved= 9 IEnMin= 9 EnMin= -1136.12723311421     IErMin= 8 ErrMin= 1.26D-05
 ErrMax= 1.30D-05  0.00D+00 EMaxC= 1.00D-01 BMatC= 5.42D-08 BMatP= 4.53D-08
 IDIUse=1 WtCom= 1.00D+00 WtEn= 0.00D+00
 Coeff-Com:  0.529D-03-0.689D-03-0.247D-02-0.223D-03-0.107D-01-0.757D-01
 Coeff-Com: -0.561D-01 0.678D+00 0.468D+00
 Coeff:      0.529D-03-0.689D-03-0.247D-02-0.223D-03-0.107D-01-0.757D-01
 Coeff:     -0.561D-01 0.678D+00 0.468D+00
 Gap=     0.065 Goal=   None    Shift=    0.000
 Gap=     0.045 Goal=   None    Shift=    0.000
 RMSDP=1.20D-05 MaxDP=8.00D-04 DE=-7.69D-08 OVMax= 3.29D-04

 Cycle  10  Pass 1  IDiag  1:
 E= -1136.12723318803     Delta-E=       -0.000000073818 Rises=F Damp=F
 DIIS: error= 3.79D-06 at cycle  10 NSaved=  10.
 NSaved=10 IEnMin=10 EnMin= -1136.12723318803     IErMin=10 ErrMin= 3.79D-06
 ErrMax= 3.79D-06  0.00D+00 EMaxC= 1.00D-01 BMatC= 3.37D-09 BMatP= 4.53D-08
 IDIUse=1 WtCom= 1.00D+00 WtEn= 0.00D+00
 Coeff-Com:  0.128D-03-0.160D-03 0.102D-02 0.897D-03-0.137D-02-0.132D-01
 Coeff-Com: -0.177D-01-0.475D-01 0.147D+00 0.931D+00
 Coeff:      0.128D-03-0.160D-03 0.102D-02 0.897D-03-0.137D-02-0.132D-01
 Coeff:     -0.177D-01-0.475D-01 0.147D+00 0.931D+00
 Gap=     0.065 Goal=   None    Shift=    0.000
 Gap=     0.045 Goal=   None    Shift=    0.000
 RMSDP=1.02D-05 MaxDP=9.75D-04 DE=-7.38D-08 OVMax= 1.74D-04

 Cycle  11  Pass 1  IDiag  1:
 E= -1136.12723320009     Delta-E=       -0.000000012056 Rises=F Damp=F
 DIIS: error= 1.03D-06 at cycle  11 NSaved=  11.
 NSaved=11 IEnMin=11 EnMin= -1136.12723320009     IErMin=11 ErrMin= 1.03D-06
 ErrMax= 1.03D-06  0.00D+00 EMaxC= 1.00D-01 BMatC= 5.66D-10 BMatP= 3.37D-09
 IDIUse=1 WtCom= 1.00D+00 WtEn= 0.00D+00
 Coeff-Com: -0.669D-04 0.894D-04 0.843D-03 0.339D-03 0.168D-02 0.723D-02
 Coeff-Com:  0.382D-02-0.112D+00-0.481D-01 0.101D+00 0.104D+01
 Coeff:     -0.669D-04 0.894D-04 0.843D-03 0.339D-03 0.168D-02 0.723D-02
 Coeff:      0.382D-02-0.112D+00-0.481D-01 0.101D+00 0.104D+01
 Gap=     0.065 Goal=   None    Shift=    0.000
 Gap=     0.045 Goal=   None    Shift=    0.000
 RMSDP=4.82D-06 MaxDP=3.62D-04 DE=-1.21D-08 OVMax= 1.26D-04

 Cycle  12  Pass 1  IDiag  1:
 E= -1136.12723320356     Delta-E=       -0.000000003471 Rises=F Damp=F
 DIIS: error= 5.01D-07 at cycle  12 NSaved=  12.
 NSaved=12 IEnMin=12 EnMin= -1136.12723320356     IErMin=12 ErrMin= 5.01D-07
 ErrMax= 5.01D-07  0.00D+00 EMaxC= 1.00D-01 BMatC= 1.63D-10 BMatP= 5.66D-10
 IDIUse=1 WtCom= 1.00D+00 WtEn= 0.00D+00
 Coeff-Com: -0.773D-04 0.100D-03 0.294D-04-0.184D-03 0.129D-02 0.842D-02
 Coeff-Com:  0.745D-02-0.508D-01-0.529D-01-0.136D+00 0.277D+00 0.946D+00
 Coeff:     -0.773D-04 0.100D-03 0.294D-04-0.184D-03 0.129D-02 0.842D-02
 Coeff:      0.745D-02-0.508D-01-0.529D-01-0.136D+00 0.277D+00 0.946D+00
 Gap=     0.065 Goal=   None    Shift=    0.000
 Gap=     0.045 Goal=   None    Shift=    0.000
 RMSDP=2.13D-06 MaxDP=1.64D-04 DE=-3.47D-09 OVMax= 8.26D-05

 Cycle  13  Pass 1  IDiag  1:
 E= -1136.12723320455     Delta-E=       -0.000000000989 Rises=F Damp=F
 DIIS: error= 2.90D-07 at cycle  13 NSaved=  13.
 NSaved=13 IEnMin=13 EnMin= -1136.12723320455     IErMin=13 ErrMin= 2.90D-07
 ErrMax= 2.90D-07  0.00D+00 EMaxC= 1.00D-01 BMatC= 2.99D-11 BMatP= 1.63D-10
 IDIUse=1 WtCom= 1.00D+00 WtEn= 0.00D+00
 Coeff-Com:  0.147D-04-0.199D-04-0.146D-03-0.427D-04-0.328D-03-0.183D-02
 Coeff-Com: -0.135D-02 0.219D-01 0.140D-01-0.374D-02-0.258D+00 0.615D-02
 Coeff-Com:  0.122D+01
 Coeff:      0.147D-04-0.199D-04-0.146D-03-0.427D-04-0.328D-03-0.183D-02
 Coeff:     -0.135D-02 0.219D-01 0.140D-01-0.374D-02-0.258D+00 0.615D-02
 Coeff:      0.122D+01
 Gap=     0.065 Goal=   None    Shift=    0.000
 Gap=     0.045 Goal=   None    Shift=    0.000
 RMSDP=8.65D-07 MaxDP=5.92D-05 DE=-9.89D-10 OVMax= 5.30D-05

 Cycle  14  Pass 1  IDiag  1:
 E= -1136.12723320482     Delta-E=       -0.000000000271 Rises=F Damp=F
 DIIS: error= 1.43D-07 at cycle  14 NSaved=  14.
 NSaved=14 IEnMin=14 EnMin= -1136.12723320482     IErMin=14 ErrMin= 1.43D-07
 ErrMax= 1.43D-07  0.00D+00 EMaxC= 1.00D-01 BMatC= 5.26D-12 BMatP= 2.99D-11
 IDIUse=1 WtCom= 1.00D+00 WtEn= 0.00D+00
 Coeff-Com:  0.138D-04-0.178D-04 0.105D-04 0.363D-04-0.172D-03-0.117D-02
 Coeff-Com: -0.140D-02 0.511D-02 0.994D-02 0.319D-01-0.226D-01-0.193D+00
 Coeff-Com: -0.197D+00 0.137D+01
 Coeff:      0.138D-04-0.178D-04 0.105D-04 0.363D-04-0.172D-03-0.117D-02
 Coeff:     -0.140D-02 0.511D-02 0.994D-02 0.319D-01-0.226D-01-0.193D+00
 Coeff:     -0.197D+00 0.137D+01
 Gap=     0.065 Goal=   None    Shift=    0.000
 Gap=     0.045 Goal=   None    Shift=    0.000
 RMSDP=6.83D-07 MaxDP=6.04D-05 DE=-2.71D-10 OVMax= 2.82D-05

 Cycle  15  Pass 1  IDiag  1:
 E= -1136.12723320487     Delta-E=       -0.000000000051 Rises=F Damp=F
 DIIS: error= 4.43D-08 at cycle  15 NSaved=  15.
 NSaved=15 IEnMin=15 EnMin= -1136.12723320487     IErMin=15 ErrMin= 4.43D-08
 ErrMax= 4.43D-08  0.00D+00 EMaxC= 1.00D-01 BMatC= 6.23D-13 BMatP= 5.26D-12
 IDIUse=1 WtCom= 1.00D+00 WtEn= 0.00D+00
 Coeff-Com: -0.485D-05 0.651D-05 0.218D-04-0.547D-06 0.736D-04 0.409D-03
 Coeff-Com:  0.406D-03-0.363D-02-0.392D-02-0.758D-02 0.508D-01 0.349D-01
 Coeff-Com: -0.194D+00-0.151D+00 0.127D+01
 Coeff:     -0.485D-05 0.651D-05 0.218D-04-0.547D-06 0.736D-04 0.409D-03
 Coeff:      0.406D-03-0.363D-02-0.392D-02-0.758D-02 0.508D-01 0.349D-01
 Coeff:     -0.194D+00-0.151D+00 0.127D+01
 Gap=     0.065 Goal=   None    Shift=    0.000
 Gap=     0.045 Goal=   None    Shift=    0.000
 RMSDP=2.64D-07 MaxDP=1.50D-05 DE=-5.07D-11 OVMax= 8.99D-06

 Cycle  16  Pass 1  IDiag  1:
 E= -1136.12723320486     Delta-E=        0.000000000006 Rises=F Damp=F
 DIIS: error= 1.42D-08 at cycle  16 NSaved=  16.
 NSaved=16 IEnMin=15 EnMin= -1136.12723320487     IErMin=16 ErrMin= 1.42D-08
 ErrMax= 1.42D-08  0.00D+00 EMaxC= 1.00D-01 BMatC= 6.78D-14 BMatP= 6.23D-13
 IDIUse=1 WtCom= 1.00D+00 WtEn= 0.00D+00
 Coeff-Com: -0.934D-06 0.119D-05-0.312D-06-0.834D-06 0.787D-05 0.106D-03
 Coeff-Com:  0.135D-03-0.610D-03-0.689D-03-0.123D-02 0.736D-03 0.103D-01
 Coeff-Com:  0.300D-01-0.105D+00-0.101D+00 0.117D+01
 Coeff:     -0.934D-06 0.119D-05-0.312D-06-0.834D-06 0.787D-05 0.106D-03
 Coeff:      0.135D-03-0.610D-03-0.689D-03-0.123D-02 0.736D-03 0.103D-01
 Coeff:      0.300D-01-0.105D+00-0.101D+00 0.117D+01
 Gap=     0.065 Goal=   None    Shift=    0.000
 Gap=     0.045 Goal=   None    Shift=    0.000
 RMSDP=5.59D-08 MaxDP=5.28D-06 DE= 5.91D-12 OVMax= 2.10D-06

 Cycle  17  Pass 1  IDiag  1:
 E= -1136.12723320488     Delta-E=       -0.000000000015 Rises=F Damp=F
 DIIS: error= 7.62D-09 at cycle  17 NSaved=  17.
 NSaved=17 IEnMin=17 EnMin= -1136.12723320488     IErMin=17 ErrMin= 7.62D-09
 ErrMax= 7.62D-09  0.00D+00 EMaxC= 1.00D-01 BMatC= 1.94D-14 BMatP= 6.78D-14
 IDIUse=1 WtCom= 1.00D+00 WtEn= 0.00D+00
 Coeff-Com:  0.813D-06-0.110D-05-0.335D-05-0.171D-06-0.113D-04-0.693D-04
 Coeff-Com: -0.705D-04 0.672D-03 0.607D-03 0.966D-03-0.970D-02-0.362D-02
 Coeff-Com:  0.405D-01 0.518D-02-0.250D+00 0.275D+00 0.941D+00
 Coeff:      0.813D-06-0.110D-05-0.335D-05-0.171D-06-0.113D-04-0.693D-04
 Coeff:     -0.705D-04 0.672D-03 0.607D-03 0.966D-03-0.970D-02-0.362D-02
 Coeff:      0.405D-01 0.518D-02-0.250D+00 0.275D+00 0.941D+00
 Gap=     0.065 Goal=   None    Shift=    0.000
 Gap=     0.045 Goal=   None    Shift=    0.000
 RMSDP=1.67D-08 MaxDP=1.25D-06 DE=-1.55D-11 OVMax= 8.68D-07

 Cycle  18  Pass 1  IDiag  1:
 E= -1136.12723320488     Delta-E=        0.000000000004 Rises=F Damp=F
 DIIS: error= 2.63D-09 at cycle  18 NSaved=  18.
 NSaved=18 IEnMin=17 EnMin= -1136.12723320488     IErMin=18 ErrMin= 2.63D-09
 ErrMax= 2.63D-09  0.00D+00 EMaxC= 1.00D-01 BMatC= 2.67D-15 BMatP= 1.94D-14
 IDIUse=1 WtCom= 1.00D+00 WtEn= 0.00D+00
 Large coefficients: NSaved= 18 BigCof=    0.00 CofMax=   10.00 Det=-7.54D-15
 Inversion failed.  Reducing to 17 matrices.
 Large coefficients: NSaved= 17 BigCof=    0.00 CofMax=   10.00 Det=-9.34D-15
 Inversion failed.  Reducing to 16 matrices.
 Large coefficients: NSaved= 16 BigCof=    0.00 CofMax=   10.00 Det=-9.35D-15
 Inversion failed.  Reducing to 15 matrices.
 Coeff-Com:  0.565D-06 0.243D-05 0.109D-05-0.903D-05-0.565D-04 0.316D-05
 Coeff-Com:  0.701D-04 0.130D-02-0.858D-03-0.119D-01 0.226D-01 0.311D-01
 Coeff-Com: -0.263D+00 0.347D-01 0.119D+01
 Coeff:      0.565D-06 0.243D-05 0.109D-05-0.903D-05-0.565D-04 0.316D-05
 Coeff:      0.701D-04 0.130D-02-0.858D-03-0.119D-01 0.226D-01 0.311D-01
 Coeff:     -0.263D+00 0.347D-01 0.119D+01
 Gap=     0.065 Goal=   None    Shift=    0.000
 Gap=     0.045 Goal=   None    Shift=    0.000
 RMSDP=1.02D-08 MaxDP=1.13D-06 DE= 4.09D-12 OVMax= 4.17D-07

 Cycle  19  Pass 1  IDiag  1:
 E= -1136.12723320487     Delta-E=        0.000000000005 Rises=F Damp=F
 DIIS: error= 7.64D-10 at cycle  19 NSaved=  16.
 NSaved=16 IEnMin=14 EnMin= -1136.12723320488     IErMin=16 ErrMin= 7.64D-10
 ErrMax= 7.64D-10  0.00D+00 EMaxC= 1.00D-01 BMatC= 2.73D-16 BMatP= 2.67D-15
 IDIUse=1 WtCom= 1.00D+00 WtEn= 0.00D+00
 Large coefficients: NSaved= 16 BigCof=    0.00 CofMax=   10.00 Det=-5.56D-16
 Inversion failed.  Reducing to 15 matrices.
 Coeff-Com: -0.115D-06-0.107D-05-0.816D-06-0.318D-05-0.321D-05-0.230D-04
 Coeff-Com:  0.640D-03-0.489D-03-0.317D-02 0.451D-02 0.166D-01-0.438D-01
 Coeff-Com: -0.716D-01 0.108D+00 0.990D+00
 Coeff:     -0.115D-06-0.107D-05-0.816D-06-0.318D-05-0.321D-05-0.230D-04
 Coeff:      0.640D-03-0.489D-03-0.317D-02 0.451D-02 0.166D-01-0.438D-01
 Coeff:     -0.716D-01 0.108D+00 0.990D+00
 Gap=     0.065 Goal=   None    Shift=    0.000
 Gap=     0.045 Goal=   None    Shift=    0.000
 RMSDP=4.20D-09 MaxDP=5.30D-07 DE= 5.46D-12 OVMax= 7.76D-08

 SCF Done:  E(UB3LYP) =  -1136.12723320     A.U. after   19 cycles
            NFock= 19  Conv=0.42D-08     -V/T= 2.0027
 <Sx>= 0.0000 <Sy>= 0.0000 <Sz>= 0.5000 <S**2>= 0.7597 S= 0.5049
 <L.S>= 0.000000000000E+00
 KE= 1.133053054746D+03 PE=-3.446590849956D+03 EE= 8.188814317651D+02
 Annihilation of the first spin contaminant:
 S**2 before annihilation     0.7597,   after     0.7501
 Leave Link  502 at Thu Dec  7 07:27:40 2023, MaxMem=  1879048192 cpu:             180.1 elap:              15.8
 (Enter /home/sekinelabo/g16/l601.exe)
 Copying SCF densities to generalized density rwf, IOpCl= 1 IROHF=0.

 **********************************************************************

            Population analysis using the SCF Density.

 **********************************************************************

 Orbital symmetries:
 Alpha Orbitals:
       Occupied  (A) (A) (A) (A) (A) (A) (A) (A) (A) (A) (A) (A)
                 (A) (A) (A) (A) (A) (A) (A) (A) (A) (A) (A) (A)
                 (A) (A) (A) (A) (A) (A) (A) (A) (A) (A) (A) (A)
                 (A) (A) (A)
       Virtual   (A) (A) (A) (A) (A) (A) (A) (A) (A) (A) (A) (A)
                 (A) (A) (A) (A) (A) (A) (A) (A) (A) (A) (A) (A)
                 (A) (A) (A) (A) (A) (A) (A) (A) (A) (A) (A) (A)
                 (A) (A) (A) (A) (A) (A) (A) (A) (A) (A) (A) (A)
                 (A) (A) (A) (A) (A) (A) (A) (A) (A) (A) (A) (A)
                 (A) (A) (A) (A) (A) (A) (A) (A) (A) (A) (A) (A)
                 (A) (A) (A) (A) (A) (A) (A) (A) (A) (A) (A) (A)
                 (A) (A) (A) (A) (A) (A) (A) (A) (A) (A) (A) (A)
                 (A) (A) (A) (A) (A) (A) (A) (A) (A) (A) (A) (A)
                 (A) (A) (A) (A) (A) (A) (A) (A) (A) (A) (A) (A)
                 (A) (A) (A) (A) (A) (A) (A) (A) (A) (A) (A) (A)
                 (A) (A) (A) (A) (A) (A) (A) (A) (A) (A) (A) (A)
                 (A) (A) (A) (A) (A) (A) (A) (A) (A) (A) (A) (A)
                 (A) (A) (A) (A) (A) (A) (A) (A) (A) (A) (A) (A)
                 (A) (A) (A)
 Beta  Orbitals:
       Occupied  (A) (A) (A) (A) (A) (A) (A) (A) (A) (A) (A) (A)
                 (A) (A) (A) (A) (A) (A) (A) (A) (A) (A) (A) (A)
                 (A) (A) (A) (A) (A) (A) (A) (A) (A) (A) (A) (A)
                 (A) (A)
       Virtual   (A) (A) (A) (A) (A) (A) (A) (A) (A) (A) (A) (A)
                 (A) (A) (A) (A) (A) (A) (A) (A) (A) (A) (A) (A)
                 (A) (A) (A) (A) (A) (A) (A) (A) (A) (A) (A) (A)
                 (A) (A) (A) (A) (A) (A) (A) (A) (A) (A) (A) (A)
                 (A) (A) (A) (A) (A) (A) (A) (A) (A) (A) (A) (A)
                 (A) (A) (A) (A) (A) (A) (A) (A) (A) (A) (A) (A)
                 (A) (A) (A) (A) (A) (A) (A) (A) (A) (A) (A) (A)
                 (A) (A) (A) (A) (A) (A) (A) (A) (A) (A) (A) (A)
                 (A) (A) (A) (A) (A) (A) (A) (A) (A) (A) (A) (A)
                 (A) (A) (A) (A) (A) (A) (A) (A) (A) (A) (A) (A)
                 (A) (A) (A) (A) (A) (A) (A) (A) (A) (A) (A) (A)
                 (A) (A) (A) (A) (A) (A) (A) (A) (A) (A) (A) (A)
                 (A) (A) (A) (A) (A) (A) (A) (A) (A) (A) (A) (A)
                 (A) (A) (A) (A) (A) (A) (A) (A) (A) (A) (A) (A)
                 (A) (A) (A) (A)
 The electronic state is 2-A.
 Alpha  occ. eigenvalues --  -38.44153 -38.43826 -38.43803 -38.43738 -38.43650
 Alpha  occ. eigenvalues --  -38.43363 -38.43189  -2.20027  -2.19815  -2.19808
 Alpha  occ. eigenvalues --   -2.19606  -2.19505  -2.19267  -2.19167  -1.13690
 Alpha  occ. eigenvalues --   -1.13675  -1.13645  -1.13640  -1.13553  -1.13497
 Alpha  occ. eigenvalues --   -1.13459  -1.13425  -1.13403  -1.13282  -1.13275
 Alpha  occ. eigenvalues --   -1.13241  -1.13181  -1.13164  -1.13132  -1.12946
 Alpha  occ. eigenvalues --   -1.12924  -1.12880  -1.12827  -1.12797  -1.12750
 Alpha  occ. eigenvalues --   -0.19285  -0.13281  -0.12369  -0.11656
 Alpha virt. eigenvalues --   -0.05204  -0.05097  -0.04073  -0.03854  -0.03331
 Alpha virt. eigenvalues --   -0.03019  -0.01102  -0.00823  -0.00167   0.00174
 Alpha virt. eigenvalues --    0.00275   0.00408   0.00848   0.00933   0.00963
 Alpha virt. eigenvalues --    0.00986   0.01070   0.01124   0.01213   0.01283
 Alpha virt. eigenvalues --    0.01390   0.01544   0.01708   0.01835   0.01984
 Alpha virt. eigenvalues --    0.02437   0.02471   0.02743   0.02789   0.02870
 Alpha virt. eigenvalues --    0.02920   0.02936   0.02959   0.02997   0.03090
 Alpha virt. eigenvalues --    0.03149   0.03249   0.03311   0.03339   0.03681
 Alpha virt. eigenvalues --    0.04343   0.04486   0.04760   0.04806   0.05064
 Alpha virt. eigenvalues --    0.05249   0.05302   0.05475   0.05546   0.05660
 Alpha virt. eigenvalues --    0.05869   0.06739   0.06828   0.06927   0.07292
 Alpha virt. eigenvalues --    0.07642   0.07814   0.07942   0.08717   0.08827
 Alpha virt. eigenvalues --    0.09075   0.09849   0.10931   0.11510   0.11736
 Alpha virt. eigenvalues --    0.12381   0.12686   0.12851   0.13125   0.13776
 Alpha virt. eigenvalues --    0.14180   0.14212   0.14397   0.14673   0.14844
 Alpha virt. eigenvalues --    0.15140   0.15525   0.16259   0.16381   0.17498
 Alpha virt. eigenvalues --    0.25824   0.26393   0.26749   0.27373   0.28208
 Alpha virt. eigenvalues --    0.29520   0.29559   0.30778   0.32192   0.33835
 Alpha virt. eigenvalues --    0.34579   0.35062   0.36179   0.37448   0.39820
 Alpha virt. eigenvalues --    0.40130   0.41557   0.41801   0.42929   0.43529
 Alpha virt. eigenvalues --    0.44244   0.44492   0.44590   0.44799   0.44925
 Alpha virt. eigenvalues --    0.45474   0.45780   0.45998   0.46549   0.47180
 Alpha virt. eigenvalues --    0.47432   0.48027   0.49179   0.49591   0.50793
 Alpha virt. eigenvalues --    0.51261   0.51766   0.52045   0.52704   0.53346
 Alpha virt. eigenvalues --    0.53999   0.54505   0.55385   0.55951   0.58035
 Alpha virt. eigenvalues --    0.58322   0.59372   0.60294   0.61688   0.62864
 Alpha virt. eigenvalues --    0.64048   0.65403   0.66541   0.70505   0.77665
 Alpha virt. eigenvalues --    0.82948   2.04353   2.16857   2.19245   2.20547
 Alpha virt. eigenvalues --    2.22436   2.23872   2.27643   4.42505   4.42910
 Alpha virt. eigenvalues --    4.43525   4.43913   4.44594   4.45242   4.46040
 Alpha virt. eigenvalues --    4.47244   4.47451   4.48241   4.48654   4.49847
 Alpha virt. eigenvalues --    4.51930   4.53107   4.53720   4.56719   4.58190
 Alpha virt. eigenvalues --    4.61531   4.66032   4.70576   4.79512  96.23920
 Alpha virt. eigenvalues --   96.39058  96.42164  96.43286  96.46486  96.49725
 Alpha virt. eigenvalues --   96.53392
  Beta  occ. eigenvalues --  -38.44076 -38.43811 -38.43729 -38.43725 -38.43646
  Beta  occ. eigenvalues --  -38.43353 -38.43183  -2.19883  -2.19783  -2.19673
  Beta  occ. eigenvalues --   -2.19593  -2.19502  -2.19252  -2.19159  -1.13624
  Beta  occ. eigenvalues --   -1.13599  -1.13571  -1.13543  -1.13495  -1.13431
  Beta  occ. eigenvalues --   -1.13377  -1.13370  -1.13322  -1.13270  -1.13244
  Beta  occ. eigenvalues --   -1.13228  -1.13173  -1.13148  -1.13130  -1.12936
  Beta  occ. eigenvalues --   -1.12889  -1.12869  -1.12815  -1.12772  -1.12741
  Beta  occ. eigenvalues --   -0.18503  -0.13056  -0.12127
  Beta virt. eigenvalues --   -0.07671  -0.05186  -0.04960  -0.04036  -0.03062
  Beta virt. eigenvalues --   -0.02524  -0.01993  -0.01032  -0.00743   0.00012
  Beta virt. eigenvalues --    0.00145   0.00266   0.00437   0.00933   0.00954
  Beta virt. eigenvalues --    0.01011   0.01146   0.01156   0.01271   0.01331
  Beta virt. eigenvalues --    0.01401   0.01529   0.01623   0.01741   0.01877
  Beta virt. eigenvalues --    0.02152   0.02432   0.02471   0.02725   0.02787
  Beta virt. eigenvalues --    0.02953   0.02977   0.02993   0.03089   0.03132
  Beta virt. eigenvalues --    0.03154   0.03247   0.03286   0.03367   0.03507
  Beta virt. eigenvalues --    0.03790   0.04431   0.04610   0.04839   0.04904
  Beta virt. eigenvalues --    0.05179   0.05305   0.05457   0.05557   0.05646
  Beta virt. eigenvalues --    0.05879   0.06087   0.06867   0.06948   0.07077
  Beta virt. eigenvalues --    0.07380   0.07657   0.07824   0.08025   0.08900
  Beta virt. eigenvalues --    0.09042   0.09306   0.10150   0.11101   0.11785
  Beta virt. eigenvalues --    0.11989   0.12617   0.12868   0.13013   0.13489
  Beta virt. eigenvalues --    0.13946   0.14399   0.14514   0.14554   0.14768
  Beta virt. eigenvalues --    0.15224   0.15337   0.15651   0.16322   0.16590
  Beta virt. eigenvalues --    0.17634   0.26311   0.26788   0.27120   0.27640
  Beta virt. eigenvalues --    0.28623   0.29569   0.29781   0.30996   0.32469
  Beta virt. eigenvalues --    0.34040   0.34897   0.35222   0.36526   0.37850
  Beta virt. eigenvalues --    0.40136   0.40649   0.41735   0.42163   0.43230
  Beta virt. eigenvalues --    0.43622   0.44438   0.44600   0.44778   0.45033
  Beta virt. eigenvalues --    0.45187   0.45541   0.45880   0.46038   0.46544
  Beta virt. eigenvalues --    0.47429   0.47629   0.48122   0.49262   0.49796
  Beta virt. eigenvalues --    0.51118   0.51332   0.51939   0.52252   0.52849
  Beta virt. eigenvalues --    0.53504   0.54110   0.54609   0.55496   0.56168
  Beta virt. eigenvalues --    0.58103   0.58572   0.59713   0.60684   0.61826
  Beta virt. eigenvalues --    0.63080   0.64231   0.65437   0.66791   0.70496
  Beta virt. eigenvalues --    0.77938   0.82954   2.04508   2.16875   2.19263
  Beta virt. eigenvalues --    2.20873   2.22454   2.23892   2.27896   4.42513
  Beta virt. eigenvalues --    4.43004   4.43579   4.43992   4.44608   4.45321
  Beta virt. eigenvalues --    4.46081   4.47287   4.47539   4.48297   4.48731
  Beta virt. eigenvalues --    4.49872   4.52002   4.53123   4.53737   4.56763
  Beta virt. eigenvalues --    4.58265   4.61614   4.66039   4.70649   4.79530
  Beta virt. eigenvalues --   96.23970  96.39068  96.42178  96.43380  96.46495
  Beta virt. eigenvalues --   96.49734  96.53469
          Condensed to atoms (all electrons):
               1          2          3          4          5          6
     1  Na  11.243232   0.202117   0.274657  -1.361518   0.456191  -0.213738
     2  Na   0.202117  11.231686   0.098539  -0.390132   0.642435  -0.771087
     3  Na   0.274657   0.098539  10.965527  -0.823723  -0.037087   0.022712
     4  Na  -1.361518  -0.390132  -0.823723  16.294665  -0.995300  -0.194215
     5  Na   0.456191   0.642435  -0.037087  -0.995300  11.445968  -0.685394
     6  Na  -0.213738  -0.771087   0.022712  -0.194215  -0.685394  12.883610
     7  Na   0.038265  -0.296322   0.452960  -1.128965  -0.154962   0.578866
               7
     1  Na   0.038265
     2  Na  -0.296322
     3  Na   0.452960
     4  Na  -1.128965
     5  Na  -0.154962
     6  Na   0.578866
     7  Na  11.506714
          Atomic-Atomic Spin Densities.
               1          2          3          4          5          6
     1  Na   0.052642  -0.012787   0.054239  -0.359165   0.009807   0.247709
     2  Na  -0.012787   0.026283  -0.038163   0.201448   0.037932  -0.220827
     3  Na   0.054239  -0.038163   0.028683  -0.308454   0.017159   0.168312
     4  Na  -0.359165   0.201448  -0.308454   2.704622   0.075299  -1.343218
     5  Na   0.009807   0.037932   0.017159   0.075299   0.011018  -0.064691
     6  Na   0.247709  -0.220827   0.168312  -1.343218  -0.064691   1.167204
     7  Na   0.144588  -0.040838   0.084705  -0.676250  -0.051013   0.457937
               7
     1  Na   0.144588
     2  Na  -0.040838
     3  Na   0.084705
     4  Na  -0.676250
     5  Na  -0.051013
     6  Na   0.457937
     7  Na   0.242092
 Mulliken charges and spin densities:
               1          2
     1  Na   0.360794   0.137031
     2  Na   0.282764  -0.046953
     3  Na   0.046415   0.006482
     4  Na  -0.400812   0.294281
     5  Na   0.328149   0.035511
     6  Na  -0.620755   0.412427
     7  Na   0.003446   0.161220
 Sum of Mulliken charges =  -0.00000   1.00000
 Mulliken charges and spin densities with hydrogens summed into heavy atoms:
               1          2
     1  Na   0.360794   0.137031
     2  Na   0.282764  -0.046953
     3  Na   0.046415   0.006482
     4  Na  -0.400812   0.294281
     5  Na   0.328149   0.035511
     6  Na  -0.620755   0.412427
     7  Na   0.003446   0.161220
 Electronic spatial extent (au):  <R**2>=           2027.6065
 Charge=             -0.0000 electrons
 Dipole moment (field-independent basis, Debye):
    X=             -0.4949    Y=             -0.3265    Z=              0.2505  Tot=              0.6436
 Quadrupole moment (field-independent basis, Debye-Ang):
   XX=            -61.6280   YY=            -67.2128   ZZ=            -68.1453
   XY=             -0.5810   XZ=              1.2346   YZ=              1.8792
 Traceless Quadrupole moment (field-independent basis, Debye-Ang):
   XX=              4.0341   YY=             -1.5507   ZZ=             -2.4833
   XY=             -0.5810   XZ=              1.2346   YZ=              1.8792
 Octapole moment (field-independent basis, Debye-Ang**2):
  XXX=             -7.4510  YYY=             -4.2852  ZZZ=              4.0205  XYY=             -5.1173
  XXY=             -0.0051  XXZ=              1.9300  XZZ=             -2.1216  YZZ=             -4.0286
  YYZ=             -2.7859  XYZ=             -1.1498
 Hexadecapole moment (field-independent basis, Debye-Ang**3):
 XXXX=          -1400.3787 YYYY=          -1273.7342 ZZZZ=           -776.1591 XXXY=            -11.4001
 XXXZ=             48.7548 YYYX=            -16.1894 YYYZ=             32.2171 ZZZX=            -14.8209
 ZZZY=            -19.4679 XXYY=           -402.8979 XXZZ=           -408.0799 YYZZ=           -379.0390
 XXYZ=             33.7677 YYXZ=             -3.0491 ZZXY=              8.5850
 N-N= 3.585291302394D+02 E-N=-3.446590849942D+03  KE= 1.133053054746D+03
                          Isotropic Fermi Contact Couplings
        Atom                 a.u.       MegaHertz       Gauss      10(-4) cm-1
     1  Na(23)            -0.01404     -16.61281      -5.92786      -5.54144
     2  Na(23)            -0.00329      -3.88818      -1.38740      -1.29696
     3  Na(23)            -0.01606     -19.00458      -6.78131      -6.33925
     4  Na(23)             0.31157     368.59909     131.52532     122.95142
     5  Na(23)            -0.00276      -3.26923      -1.16654      -1.09050
     6  Na(23)             0.32076     379.46277     135.40175     126.57516
     7  Na(23)             0.02936      34.73403      12.39397      11.58603
 --------------------------------------------------------
       Center         ----  Spin Dipole Couplings  ----
                      3XX-RR        3YY-RR        3ZZ-RR
 --------------------------------------------------------
     1   Atom       -0.017899     -0.015098      0.032997
     2   Atom       -0.010074     -0.015709      0.025783
     3   Atom       -0.010545     -0.013722      0.024267
     4   Atom       -0.001695      0.010291     -0.008596
     5   Atom       -0.015491     -0.016266      0.031757
     6   Atom        0.005037      0.002863     -0.007901
     7   Atom       -0.007819     -0.017478      0.025297
 --------------------------------------------------------
                        XY            XZ            YZ
 --------------------------------------------------------
     1   Atom        0.001666      0.005929     -0.000744
     2   Atom        0.003554     -0.014151     -0.005698
     3   Atom       -0.003079      0.002145     -0.001937
     4   Atom        0.000943      0.000802      0.005473
     5   Atom       -0.004504      0.011802     -0.008730
     6   Atom        0.001927      0.001346      0.000822
     7   Atom       -0.000278     -0.014513      0.001251
 --------------------------------------------------------


 ---------------------------------------------------------------------------------
              Anisotropic Spin Dipole Couplings in Principal Axis System
 ---------------------------------------------------------------------------------

       Atom             a.u.   MegaHertz   Gauss  10(-4) cm-1        Axes

              Baa    -0.0193    -2.726    -0.973    -0.909  0.9173 -0.3829 -0.1094
     1 Na(23) Bbb    -0.0144    -2.031    -0.725    -0.677  0.3816  0.9237 -0.0333
              Bcc     0.0337     4.757     1.697     1.587  0.1138 -0.0113  0.9934
 
              Baa    -0.0175    -2.469    -0.881    -0.824 -0.5181  0.8534 -0.0571
     2 Na(23) Bbb    -0.0141    -1.993    -0.711    -0.665  0.7895  0.5029  0.3518
              Bcc     0.0316     4.463     1.592     1.489 -0.3289 -0.1372  0.9343
 
              Baa    -0.0156    -2.204    -0.786    -0.735  0.5154  0.8568  0.0139
     3 Na(23) Bbb    -0.0089    -1.258    -0.449    -0.420  0.8544 -0.5126 -0.0852
              Bcc     0.0245     3.462     1.235     1.155  0.0658 -0.0558  0.9963
 
              Baa    -0.0101    -1.426    -0.509    -0.476 -0.0633 -0.2560  0.9646
     4 Na(23) Bbb    -0.0018    -0.248    -0.088    -0.083  0.9946 -0.0959  0.0398
              Bcc     0.0119     1.674     0.597     0.558  0.0823  0.9619  0.2607
 
              Baa    -0.0205    -2.892    -1.032    -0.965  0.7356  0.6754 -0.0533
     5 Na(23) Bbb    -0.0158    -2.230    -0.796    -0.744 -0.6359  0.7155  0.2892
              Bcc     0.0363     5.122     1.828     1.709  0.2335 -0.1788  0.9558
 
              Baa    -0.0081    -1.140    -0.407    -0.380 -0.0935 -0.0582  0.9939
     6 Na(23) Bbb     0.0017     0.245     0.088     0.082 -0.5052  0.8630  0.0030
              Bcc     0.0063     0.895     0.319     0.298  0.8579  0.5019  0.1101
 
              Baa    -0.0175    -2.474    -0.883    -0.825 -0.0304  0.9988 -0.0395
     7 Na(23) Bbb    -0.0133    -1.874    -0.669    -0.625  0.9355  0.0424  0.3507
              Bcc     0.0308     4.348     1.551     1.450 -0.3519  0.0263  0.9357
 

 ---------------------------------------------------------------------------------

 No NMR shielding tensors so no spin-rotation constants.
 Leave Link  601 at Thu Dec  7 07:27:40 2023, MaxMem=  1879048192 cpu:               2.3 elap:               0.2
 (Enter /home/sekinelabo/g16/l701.exe)
 ... and contract with generalized density number  0.
 Compute integral first derivatives.
 Leave Link  701 at Thu Dec  7 07:27:41 2023, MaxMem=  1879048192 cpu:               1.6 elap:               0.1
 (Enter /home/sekinelabo/g16/l702.exe)
 L702 exits ... SP integral derivatives will be done elsewhere.
 Leave Link  702 at Thu Dec  7 07:27:41 2023, MaxMem=  1879048192 cpu:               0.5 elap:               0.0
 (Enter /home/sekinelabo/g16/l703.exe)
 Integral derivatives from FoFJK, PRISM(SPDF).
 Compute integral first derivatives, UseDBF=F ICtDFT=           0.
 Calling FoFJK, ICntrl=      2127 FMM=F ISym2X=0 I1Cent= 0 IOpClX= 1 NMat=1 NMatS=1 NMatT=0.
 FoFJK:  IHMeth= 1 ICntrl=    2127 DoSepK=F KAlg= 0 I1Cent=           0 FoldK=F
 IRaf=         0 NMat=       1 IRICut=       1 DoRegI=T DoRafI=F ISym2E= 0 IDoP0=0 IntGTp=1.
 FoFCou: FMM=F IPFlag=           0 FMFlag=      100000 FMFlg1=         800
         NFxFlg=           0 DoJE=F BraDBF=F KetDBF=F FulRan=T
         wScrn=  0.000000 ICntrl=      2127 IOpCl=  1 I1Cent=           0 NGrid=           0
         NMat0=    1 NMatS0=      1 NMatT0=    0 NMatD0=    1 NMtDS0=    0 NMtDT0=    0
 Symmetry not used in FoFCou.
 Leave Link  703 at Thu Dec  7 07:27:43 2023, MaxMem=  1879048192 cpu:              34.0 elap:               2.3
 (Enter /home/sekinelabo/g16/l716.exe)
 Dipole        =-1.94716745D-01-1.28442246D-01 9.85572244D-02
 ***** Axes restored to original set *****
 -------------------------------------------------------------------
 Center     Atomic                   Forces (Hartrees/Bohr)
 Number     Number              X              Y              Z
 -------------------------------------------------------------------
      1       11          -0.007984650    0.013997437    0.002456101
      2       11           0.001586802   -0.001797440   -0.000416694
      3       11          -0.000242986    0.000271740    0.000640374
      4       11           0.006438873    0.001534363   -0.001660660
      5       11           0.003859950   -0.003980879   -0.006267341
      6       11           0.000496697   -0.000254569    0.002244227
      7       11          -0.004154685   -0.009770652    0.003003993
 -------------------------------------------------------------------
 Cartesian Forces:  Max     0.013997437 RMS     0.004956367
 Z-matrix is all fixed cartesians, so copy forces.
 Force constants in Cartesian coordinates: 
                1             2             3             4             5 
      1  0.772281D-01
      2 -0.154536D-01  0.101017D+00
      3 -0.240840D-01  0.659051D-02  0.782556D-01
      4  0.224710D-02  0.124591D-02  0.721284D-02  0.729981D-01
      5 -0.205542D-02  0.387413D-02 -0.688532D-03 -0.159872D-02  0.558997D-01
      6  0.325242D-02 -0.416204D-02 -0.991347D-03 -0.251031D-01 -0.704366D-02
      7 -0.124473D-01 -0.459155D-02  0.129426D-01 -0.175920D-01  0.183760D-01
      8  0.759641D-02 -0.226314D-01 -0.914052D-02 -0.127079D-02 -0.226463D-01
      9 -0.260925D-02  0.140901D-01 -0.225311D-01  0.137911D-01 -0.120707D-01
     10 -0.507069D-01 -0.300063D-02 -0.680840D-02 -0.204609D-01 -0.132706D-02
     11  0.162654D-01 -0.232972D-01  0.897348D-03 -0.369886D-02 -0.138156D-01
     12  0.176089D-01  0.626339D-03 -0.247385D-01 -0.172138D-01 -0.778557D-02
     13  0.580099D-02  0.694864D-02  0.268149D-02 -0.880308D-02 -0.619592D-02
     14  0.605589D-02 -0.176815D-03 -0.573986D-02  0.113206D-01 -0.156708D-01
     15  0.497685D-03 -0.193234D-02  0.454555D-02 -0.876521D-03  0.169342D-01
     16  0.133367D-02  0.697751D-03  0.131604D-02 -0.311658D-01 -0.702448D-02
     17 -0.583968D-03  0.563935D-03 -0.635221D-02 -0.348848D-02 -0.114215D-01
     18 -0.154745D-02 -0.497024D-02 -0.400330D-02  0.147572D-01  0.820298D-02
     19 -0.234557D-01  0.141535D-01  0.673934D-02  0.277654D-02 -0.174403D-03
     20 -0.118248D-01 -0.593500D-01  0.144333D-01 -0.250969D-02  0.378031D-02
     21  0.688161D-02 -0.102423D-01 -0.305369D-01  0.743228D-02  0.245125D-02
                6             7             8             9            10 
      6  0.793907D-01
      7  0.240625D-02  0.507123D-01
      8  0.133529D-01 -0.118033D-01  0.900715D-01
      9 -0.190061D-01 -0.212355D-02 -0.154242D-01  0.592347D-01
     10  0.125678D-01 -0.199825D-01 -0.839963D-02 -0.549405D-02  0.142450D+00
     11  0.530336D-03  0.123701D-01 -0.176938D-01  0.920425D-02  0.114196D-01
     12 -0.278505D-01 -0.134896D-01 -0.647396D-02 -0.132656D-01  0.217342D-01
     13  0.117085D-01  0.371708D-02  0.514985D-02  0.135644D-03 -0.216577D-01
     14 -0.496925D-02  0.249610D-02 -0.489295D-02  0.425796D-02  0.124216D-01
     15 -0.118924D-01  0.111928D-02  0.177161D-02  0.550495D-02 -0.153460D-02
     16 -0.102418D-01 -0.108201D-01  0.821348D-02 -0.435216D-02 -0.559859D-02
     17 -0.201082D-02 -0.147184D-01 -0.195275D-01 -0.575057D-02 -0.537484D-02
     18 -0.179393D-01 -0.471346D-02  0.680929D-02 -0.136903D-01 -0.960277D-02
     19  0.540993D-02  0.641246D-02  0.513961D-03  0.652305D-03 -0.240430D-01
     20  0.430253D-02 -0.212900D-02 -0.267962D-02  0.569316D-02 -0.573899D-02
     21 -0.171105D-02  0.385851D-02  0.910493D-02  0.375341D-02 -0.108622D-01
               11            12            13            14            15 
     11  0.994731D-01
     12  0.867752D-02  0.110063D+00
     13 -0.175495D-01 -0.893399D-02  0.736013D-01
     14 -0.341154D-01  0.141308D-02 -0.222906D-01  0.991957D-01
     15 -0.119504D-01 -0.227564D-01 -0.900595D-02 -0.274348D-02  0.603565D-01
     16 -0.303040D-02 -0.766643D-02 -0.193242D-01 -0.475899D-02 -0.869626D-02
     17  0.275929D-02 -0.556361D-02  0.128626D-01 -0.149385D-01  0.951815D-02
     18 -0.461996D-02 -0.261968D-02 -0.417729D-02 -0.644818D-02 -0.786984D-02
     19 -0.157764D-01  0.796071D-02 -0.333344D-01 -0.524466D-02  0.184964D-01
     20 -0.133105D-01  0.910620D-02  0.210749D-01 -0.294013D-01 -0.115977D-01
     21 -0.273904D-02 -0.188328D-01  0.759155D-02  0.142297D-01 -0.278884D-01
               16            17            18            19            20 
     16  0.772440D-01
     17  0.121595D-01  0.544352D-01
     18  0.184616D-01  0.356358D-02  0.638867D-01
     19 -0.116690D-01 -0.856471D-03 -0.131778D-01  0.833131D-01
     20 -0.625690D-02 -0.118710D-01 -0.253746D-02  0.738445D-02  0.112832D+00
     21  0.111790D-01  0.659548D-02 -0.177643D-01 -0.260808D-01 -0.194000D-01
               21 
     21  0.929801D-01
 Leave Link  716 at Thu Dec  7 07:27:43 2023, MaxMem=  1879048192 cpu:               0.4 elap:               0.0
 (Enter /home/sekinelabo/g16/l103.exe)

 GradGradGradGradGradGradGradGradGradGradGradGradGradGradGradGradGradGrad
 Berny optimization.
 Search for a local minimum.
 Step number   1 out of a maximum of    2
 All quantities printed in internal units (Hartrees-Bohrs-Radians)
 Second derivative matrix not updated -- first step.
 ITU=  0
     Eigenvalues ---    0.04834   0.05935   0.06681   0.07853   0.08525
     Eigenvalues ---    0.09293   0.09714   0.11377   0.11705   0.12422
     Eigenvalues ---    0.13924   0.14900   0.17765   0.18726   0.19241
 Angle between quadratic step and forces=  18.70 degrees.
 Linear search not attempted -- first point.
 B after Tr=    -0.000000    0.000000    0.000000
         Rot=    1.000000    0.000000   -0.000000    0.000000 Ang=   0.00 deg.
 Variable       Old X    -DE/DX   Delta X   Delta X   Delta X     New X
                                 (Linear)    (Quad)   (Total)
    X1       22.67615  -0.00798   0.00000  -0.07532  -0.07532  22.60082
    Y1       27.29142   0.01400   0.00000   0.10693   0.10693  27.39835
    Z1       28.55886   0.00246   0.00000   0.02473   0.02473  28.58359
    X2       27.85910   0.00159   0.00000   0.02535   0.02535  27.88445
    Y2       25.52472  -0.00180   0.00000  -0.02188  -0.02188  25.50284
    Z2       20.39317  -0.00042   0.00000  -0.01040  -0.01040  20.38277
    X3       23.94000  -0.00024   0.00000   0.00721   0.00721  23.94721
    Y3       29.90964   0.00027   0.00000   0.02893   0.02893  29.93857
    Z3       22.80918   0.00064   0.00000   0.00470   0.00470  22.81388
    X4       27.76442   0.00644   0.00000   0.03443   0.03443  27.79886
    Y4       25.95577   0.00153   0.00000   0.02097   0.02097  25.97674
    Z4       26.91083  -0.00166   0.00000  -0.00417  -0.00417  26.90666
    X5       27.07335   0.00386   0.00000   0.04242   0.04242  27.11577
    Y5       20.14580  -0.00398   0.00000  -0.05375  -0.05375  20.09206
    Z5       25.33329  -0.00627   0.00000  -0.07448  -0.07448  25.25881
    X6       22.16025   0.00050   0.00000  -0.00476  -0.00476  22.15550
    Y6       23.40331  -0.00025   0.00000  -0.02185  -0.02185  23.38146
    Z6       21.68366   0.00224   0.00000   0.03257   0.03257  21.71623
    X7       22.80030  -0.00415   0.00000  -0.02934  -0.02934  22.77096
    Y7       22.04328  -0.00977   0.00000  -0.05935  -0.05935  21.98392
    Z7       28.58475   0.00300   0.00000   0.02706   0.02706  28.61181
         Item               Value     Threshold  Converged?
 Maximum Force            0.013997     0.000450     NO 
 RMS     Force            0.004956     0.000300     NO 
 Maximum Displacement     0.106929     0.001800     NO 
 RMS     Displacement     0.042770     0.001200     NO 
 Predicted change in Energy=-2.108297D-03
 GradGradGradGradGradGradGradGradGradGradGradGradGradGradGradGradGradGrad

 Leave Link  103 at Thu Dec  7 07:27:43 2023, MaxMem=  1879048192 cpu:               0.2 elap:               0.0
 (Enter /home/sekinelabo/g16/l9999.exe)
 1\1\GINC-SEKINELABO-XA7R-R37\Force\UB3LYP\6-311+G(d)\Na7(2)\SEKINELABO
 \07-Dec-2023\0\\#P B3LYP/6-311+g(d) force\\DPGEN\\0,2\Na,11.9997,14.44
 2,15.1127\Na,14.7424,13.5071,10.7916\Na,12.6685,15.8275,12.0701\Na,14.
 6923,13.7352,14.2406\Na,14.3266,10.6607,13.4058\Na,11.7267,12.3845,11.
 4745\Na,12.0654,11.6648,15.1264\\Version=ES64L-G16RevB.01\State=2-A\HF
 =-1136.1272332\S2=0.759729\S2-1=0.\S2A=0.750052\RMSD=4.201e-09\RMSF=4.
 956e-03\Dipole=0.00004,-0.0008923,-0.2532287\Quadrupole=-0.3084008,0.5
 305769,-0.222176,-0.0511982,-1.4868895,-2.7241989\PG=C01 [X(Na7)]\\@


 WHAT, THEN, IS TIME?  IF NO ONE ASKS ME, I KNOW WHAT IT IS.
 IF I WISH TO EXPLAIN WHAT IT IS TO HIM WHO ASKS ME, I DO NOT KNOW.
                                   -- ST. AUGUSTINE (FIFTH CENTURY)
 Job cpu time:       0 days  0 hours  3 minutes 50.3 seconds.
 Elapsed time:       0 days  0 hours  0 minutes 19.2 seconds.
 File lengths (MBytes):  RWF=     32 Int=      0 D2E=      0 Chk=      4 Scr=      1
 Normal termination of Gaussian 16 at Thu Dec  7 07:27:43 2023.
