 Set GAUSS_MDEF to "14GB".
 Entering Gaussian System, Link 0=g16
 Initial command:
 /home/sekinelabo/g16/l1.exe "/home/sekinelabo/g16temp/Gau-964786.inp" -scrdir="/home/sekinelabo/g16temp/"
 Entering Link 1 = /home/sekinelabo/g16/l1.exe PID=    964788.
  
 Copyright (c) 1988-2017, Gaussian, Inc.  All Rights Reserved.
  
 This is part of the Gaussian(R) 16 program.  It is based on
 the Gaussian(R) 09 system (copyright 2009, Gaussian, Inc.),
 the Gaussian(R) 03 system (copyright 2003, Gaussian, Inc.),
 the Gaussian(R) 98 system (copyright 1998, Gaussian, Inc.),
 the Gaussian(R) 94 system (copyright 1995, Gaussian, Inc.),
 the Gaussian 92(TM) system (copyright 1992, Gaussian, Inc.),
 the Gaussian 90(TM) system (copyright 1990, Gaussian, Inc.),
 the Gaussian 88(TM) system (copyright 1988, Gaussian, Inc.),
 the Gaussian 86(TM) system (copyright 1986, Carnegie Mellon
 University), and the Gaussian 82(TM) system (copyright 1983,
 Carnegie Mellon University). Gaussian is a federally registered
 trademark of Gaussian, Inc.
  
 This software contains proprietary and confidential information,
 including trade secrets, belonging to Gaussian, Inc.
  
 This software is provided under written license and may be
 used, copied, transmitted, or stored only in accord with that
 written license.
  
 The following legend is applicable only to US Government
 contracts under FAR:
  
                    RESTRICTED RIGHTS LEGEND
  
 Use, reproduction and disclosure by the US Government is
 subject to restrictions as set forth in subparagraphs (a)
 and (c) of the Commercial Computer Software - Restricted
 Rights clause in FAR 52.227-19.
  
 Gaussian, Inc.
 340 Quinnipiac St., Bldg. 40, Wallingford CT 06492
  
  
 ---------------------------------------------------------------
 Warning -- This program may not be used in any manner that
 competes with the business of Gaussian, Inc. or will provide
 assistance to any competitor of Gaussian, Inc.  The licensee
 of this program is prohibited from giving any competitor of
 Gaussian, Inc. access to this program.  By using this program,
 the user acknowledges that Gaussian, Inc. is engaged in the
 business of creating and licensing software in the field of
 computational chemistry and represents and warrants to the
 licensee that it is not a competitor of Gaussian, Inc. and that
 it will not use this program in any manner prohibited above.
 ---------------------------------------------------------------
  

 Cite this work as:
 Gaussian 16, Revision B.01,
 M. J. Frisch, G. W. Trucks, H. B. Schlegel, G. E. Scuseria, 
 M. A. Robb, J. R. Cheeseman, G. Scalmani, V. Barone, 
 G. A. Petersson, H. Nakatsuji, X. Li, M. Caricato, A. V. Marenich, 
 J. Bloino, B. G. Janesko, R. Gomperts, B. Mennucci, H. P. Hratchian, 
 J. V. Ortiz, A. F. Izmaylov, J. L. Sonnenberg, D. Williams-Young, 
 F. Ding, F. Lipparini, F. Egidi, J. Goings, B. Peng, A. Petrone, 
 T. Henderson, D. Ranasinghe, V. G. Zakrzewski, J. Gao, N. Rega, 
 G. Zheng, W. Liang, M. Hada, M. Ehara, K. Toyota, R. Fukuda, 
 J. Hasegawa, M. Ishida, T. Nakajima, Y. Honda, O. Kitao, H. Nakai, 
 T. Vreven, K. Throssell, J. A. Montgomery, Jr., J. E. Peralta, 
 F. Ogliaro, M. J. Bearpark, J. J. Heyd, E. N. Brothers, K. N. Kudin, 
 V. N. Staroverov, T. A. Keith, R. Kobayashi, J. Normand, 
 K. Raghavachari, A. P. Rendell, J. C. Burant, S. S. Iyengar, 
 J. Tomasi, M. Cossi, J. M. Millam, M. Klene, C. Adamo, R. Cammi, 
 J. W. Ochterski, R. L. Martin, K. Morokuma, O. Farkas, 
 J. B. Foresman, and D. J. Fox, Gaussian, Inc., Wallingford CT, 2016.
 
 ******************************************
 Gaussian 16:  ES64L-G16RevB.01 20-Dec-2017
                 7-Dec-2023 
 ******************************************
 %nproc=15
 Will use up to   15 processors via shared memory.
 -------------------------
 #P B3LYP/6-311+g(d) force
 -------------------------
 1/10=7,30=1,38=1/1,3;
 2/12=2,17=6,18=5,40=1/2;
 3/5=4,6=6,7=11,11=2,25=1,30=1,71=1,74=-5/1,2,3;
 4//1;
 5/5=2,38=5/2;
 6/7=2,8=2,9=2,10=2,28=1/1;
 7/29=1/1,2,3,16;
 1/10=7,30=1/3;
 99//99;
 Leave Link    1 at Thu Dec  7 08:41:59 2023, MaxMem=           0 cpu:               0.3 elap:               0.0
 (Enter /home/sekinelabo/g16/l101.exe)
 -----
 DPGEN
 -----
 Symbolic Z-matrix:
 Charge =  0 Multiplicity = 2
 Na                    14.0342   13.687    12.894 
 Na                    14.1637   10.649    13.5308 
 Na                    9.18471   11.5122   10.4704 
 Na                    10.8861   14.2831   10.799 
 Na                    10.9773   12.0664   13.3296 
 Na                    12.9262   11.7026   10.2394 
 Na                    11.1564   9.42849   12.0654 
 
 ITRead=  0  0  0  0  0  0  0
 MicOpt= -1 -1 -1 -1 -1 -1 -1
 NAtoms=      7 NQM=        7 NQMF=       0 NMMI=      0 NMMIF=      0
                NMic=       0 NMicF=      0.
                    Isotopes and Nuclear Properties:
 (Nuclear quadrupole moments (NQMom) in fm**2, nuclear magnetic moments (NMagM)
  in nuclear magnetons)

  Atom         1           2           3           4           5           6           7
 IAtWgt=          23          23          23          23          23          23          23
 AtmWgt=  22.9897697  22.9897697  22.9897697  22.9897697  22.9897697  22.9897697  22.9897697
 NucSpn=           3           3           3           3           3           3           3
 AtZEff=  -0.0000000  -0.0000000  -0.0000000  -0.0000000  -0.0000000  -0.0000000  -0.0000000
 NQMom=   10.4000000  10.4000000  10.4000000  10.4000000  10.4000000  10.4000000  10.4000000
 NMagM=    2.2175200   2.2175200   2.2175200   2.2175200   2.2175200   2.2175200   2.2175200
 AtZNuc=  11.0000000  11.0000000  11.0000000  11.0000000  11.0000000  11.0000000  11.0000000
 Leave Link  101 at Thu Dec  7 08:42:00 2023, MaxMem=  1879048192 cpu:               2.4 elap:               0.2
 (Enter /home/sekinelabo/g16/l103.exe)

 GradGradGradGradGradGradGradGradGradGradGradGradGradGradGradGradGradGrad
 Berny optimization.
 Initialization pass.
 Trust Radius=3.00D-01 FncErr=1.00D-07 GrdErr=1.00D-07 EigMax=2.50D+02 EigMin=1.00D-04
 Number of steps in this run=      2 maximum allowed number of steps=      2.
 GradGradGradGradGradGradGradGradGradGradGradGradGradGradGradGradGradGrad

 Leave Link  103 at Thu Dec  7 08:42:00 2023, MaxMem=  1879048192 cpu:               0.2 elap:               0.0
 (Enter /home/sekinelabo/g16/l202.exe)
                          Input orientation:                          
 ---------------------------------------------------------------------
 Center     Atomic      Atomic             Coordinates (Angstroms)
 Number     Number       Type             X           Y           Z
 ---------------------------------------------------------------------
      1         11           0       14.034200   13.687000   12.894000
      2         11           0       14.163700   10.649000   13.530800
      3         11           0        9.184710   11.512200   10.470400
      4         11           0       10.886100   14.283100   10.799000
      5         11           0       10.977300   12.066400   13.329600
      6         11           0       12.926200   11.702600   10.239400
      7         11           0       11.156400    9.428490   12.065400
 ---------------------------------------------------------------------
                    Distance matrix (angstroms):
                    1          2          3          4          5
     1  Na   0.000000
     2  Na   3.106723   0.000000
     3  Na   5.841331   5.907749   0.000000
     4  Na   3.828171   5.604648   3.268118   0.000000
     5  Na   3.487224   3.493229   3.419874   3.365414   0.000000
     6  Na   3.494626   3.670803   3.753446   3.336786   3.671498
     7  Na   5.206075   3.561024   3.282291   5.024348   2.930674
                    6          7
     6  Na   0.000000
     7  Na   3.411458   0.000000
 Stoichiometry    Na7(2)
 Framework group  C1[X(Na7)]
 Deg. of freedom    15
 Full point group                 C1      NOp   1
 Largest Abelian subgroup         C1      NOp   1
 Largest concise Abelian subgroup C1      NOp   1
                         Standard orientation:                         
 ---------------------------------------------------------------------
 Center     Atomic      Atomic             Coordinates (Angstroms)
 Number     Number       Type             X           Y           Z
 ---------------------------------------------------------------------
      1         11           0       -2.307341    1.823210   -0.219271
      2         11           0       -2.792774   -1.235830    0.022302
      3         11           0        3.064118   -0.463495   -0.020393
      4         11           0        1.477183    2.391609   -0.123396
      5         11           0        0.086707   -0.243434   -1.688367
      6         11           0       -0.049471    0.264609    1.945260
      7         11           0        0.521577   -2.536669    0.083865
 ---------------------------------------------------------------------
 Rotational constants (GHZ):           0.9138231           0.6938531           0.5193649
 Leave Link  202 at Thu Dec  7 08:42:00 2023, MaxMem=  1879048192 cpu:               0.0 elap:               0.0
 (Enter /home/sekinelabo/g16/l301.exe)
 Standard basis: 6-311+G(d) (5D, 7F)
 Ernie: Thresh=  0.10000D-02 Tol=  0.10000D-05 Strict=F.
 There are   217 symmetry adapted cartesian basis functions of A   symmetry.
 There are   210 symmetry adapted basis functions of A   symmetry.
   210 basis functions,   350 primitive gaussians,   217 cartesian basis functions
    39 alpha electrons       38 beta electrons
       nuclear repulsion energy       357.1972692323 Hartrees.
 IExCor=  402 DFT=T Ex+Corr=B3LYP ExCW=0 ScaHFX=  0.200000
 ScaDFX=  0.800000  0.720000  1.000000  0.810000 ScalE2=  1.000000  1.000000
 IRadAn=      5 IRanWt=     -1 IRanGd=            0 ICorTp=0 IEmpDi=  4
 NAtoms=    7 NActive=    7 NUniq=    7 SFac= 1.00D+00 NAtFMM=   60 NAOKFM=F Big=F
 Integral buffers will be    131072 words long.
 Raffenetti 2 integral format.
 Two-electron integral symmetry is turned on.
 Leave Link  301 at Thu Dec  7 08:42:00 2023, MaxMem=  1879048192 cpu:               0.5 elap:               0.0
 (Enter /home/sekinelabo/g16/l302.exe)
 NPDir=0 NMtPBC=     1 NCelOv=     1 NCel=       1 NClECP=     1 NCelD=      1
         NCelK=      1 NCelE2=     1 NClLst=     1 CellRange=     0.0.
 One-electron integrals computed using PRISM.
 One-electron integral symmetry used in STVInt
 NBasis=   210 RedAO= T EigKep=  2.48D-06  NBF=   210
 NBsUse=   210 1.00D-06 EigRej= -1.00D+00 NBFU=   210
 Precomputing XC quadrature grid using
 IXCGrd= 4 IRadAn=           5 IRanWt=          -1 IRanGd=           0 AccXCQ= 0.00D+00.
 Generated NRdTot=       0 NPtTot=           0 NUsed=           0 NTot=          32
 NSgBfM=   211   211   211   211   211 MxSgAt=     7 MxSgA2=     7.
 Leave Link  302 at Thu Dec  7 08:42:00 2023, MaxMem=  1879048192 cpu:               2.0 elap:               0.1
 (Enter /home/sekinelabo/g16/l303.exe)
 DipDrv:  MaxL=1.
 Leave Link  303 at Thu Dec  7 08:42:00 2023, MaxMem=  1879048192 cpu:               0.5 elap:               0.0
 (Enter /home/sekinelabo/g16/l401.exe)
 ExpMin= 7.60D-03 ExpMax= 3.62D+04 ExpMxC= 1.21D+03 IAcc=3 IRadAn=         5 AccDes= 0.00D+00
 Harris functional with IExCor=  402 and IRadAn=       5 diagonalized for initial guess.
 HarFok:  IExCor=  402 AccDes= 0.00D+00 IRadAn=         5 IDoV= 1 UseB2=F ITyADJ=14
 ICtDFT=  3500011 ScaDFX=  1.000000  1.000000  1.000000  1.000000
 FoFCou: FMM=F IPFlag=           0 FMFlag=      100000 FMFlg1=           0
         NFxFlg=           0 DoJE=T BraDBF=F KetDBF=T FulRan=T
         wScrn=  0.000000 ICntrl=       500 IOpCl=  0 I1Cent=   200000004 NGrid=           0
         NMat0=    1 NMatS0=      1 NMatT0=    0 NMatD0=    1 NMtDS0=    0 NMtDT0=    0
 Petite list used in FoFCou.
 Harris En= -1135.90597177566    
 JPrj=0 DoOrth=F DoCkMO=F.
 Initial guess <Sx>= 0.0000 <Sy>= 0.0000 <Sz>= 0.5000 <S**2>= 0.7500 S= 0.5000
 Leave Link  401 at Thu Dec  7 08:42:00 2023, MaxMem=  1879048192 cpu:               4.4 elap:               0.3
 (Enter /home/sekinelabo/g16/l502.exe)
 Keep R1 and R2 ints in memory in canonical form, NReq=506573335.
 FoFCou: FMM=F IPFlag=           0 FMFlag=           0 FMFlg1=           0
         NFxFlg=           0 DoJE=F BraDBF=F KetDBF=F FulRan=T
         wScrn=  0.000000 ICntrl=       600 IOpCl=  0 I1Cent=           0 NGrid=           0
         NMat0=    1 NMatS0=  22155 NMatT0=    0 NMatD0=    1 NMtDS0=    0 NMtDT0=    0
 Symmetry not used in FoFCou.
 Two-electron integral symmetry not used.
 UHF open shell SCF:
 Using DIIS extrapolation, IDIIS=  1040.
 NGot=  1879048192 LenX=  1388082565 LenY=  1388035035
 Requested convergence on RMS density matrix=1.00D-08 within 128 cycles.
 Requested convergence on MAX density matrix=1.00D-06.
 Requested convergence on             energy=1.00D-06.
 No special actions if energy rises.

 Cycle   1  Pass 1  IDiag  1:
 E= -1136.09523606112    
 DIIS: error= 1.32D-02 at cycle   1 NSaved=   1.
 NSaved= 1 IEnMin= 1 EnMin= -1136.09523606112     IErMin= 1 ErrMin= 1.32D-02
 ErrMax= 1.32D-02  0.00D+00 EMaxC= 1.00D-01 BMatC= 1.97D-01 BMatP= 1.97D-01
 IDIUse=3 WtCom= 8.68D-01 WtEn= 1.32D-01
 Coeff-Com:  0.100D+01
 Coeff-En:   0.100D+01
 Coeff:      0.100D+01
 Gap=     0.038 Goal=   None    Shift=    0.000
 Gap=     0.050 Goal=   None    Shift=    0.000
 GapD=    0.038 DampG=0.250 DampE=0.500 DampFc=0.2500 IDamp=-1.
 Damping current iteration by 2.50D-01
 RMSDP=4.10D-02 MaxDP=2.97D+00              OVMax= 2.56D-01

 Cycle   2  Pass 1  IDiag  1:
 E= -1136.10942869404     Delta-E=       -0.014192632917 Rises=F Damp=T
 DIIS: error= 9.22D-03 at cycle   2 NSaved=   2.
 NSaved= 2 IEnMin= 2 EnMin= -1136.10942869404     IErMin= 2 ErrMin= 9.22D-03
 ErrMax= 9.22D-03  0.00D+00 EMaxC= 1.00D-01 BMatC= 7.44D-02 BMatP= 1.97D-01
 IDIUse=3 WtCom= 9.08D-01 WtEn= 9.22D-02
 Coeff-Com: -0.127D+01 0.227D+01
 Coeff-En:   0.000D+00 0.100D+01
 Coeff:     -0.115D+01 0.215D+01
 Gap=     0.053 Goal=   None    Shift=    0.000
 Gap=     0.051 Goal=   None    Shift=    0.000
 RMSDP=2.26D-02 MaxDP=1.81D+00 DE=-1.42D-02 OVMax= 1.63D-01

 Cycle   3  Pass 1  IDiag  1:
 E= -1136.13365539903     Delta-E=       -0.024226704989 Rises=F Damp=F
 DIIS: error= 2.95D-03 at cycle   3 NSaved=   3.
 NSaved= 3 IEnMin= 3 EnMin= -1136.13365539903     IErMin= 3 ErrMin= 2.95D-03
 ErrMax= 2.95D-03  0.00D+00 EMaxC= 1.00D-01 BMatC= 2.53D-03 BMatP= 7.44D-02
 IDIUse=3 WtCom= 9.70D-01 WtEn= 2.95D-02
 Coeff-Com: -0.170D+00 0.316D+00 0.854D+00
 Coeff-En:   0.000D+00 0.000D+00 0.100D+01
 Coeff:     -0.165D+00 0.307D+00 0.858D+00
 Gap=     0.048 Goal=   None    Shift=    0.000
 Gap=     0.050 Goal=   None    Shift=    0.000
 RMSDP=8.31D-03 MaxDP=1.13D+00 DE=-2.42D-02 OVMax= 6.86D-02

 Cycle   4  Pass 1  IDiag  1:
 E= -1136.13295542822     Delta-E=        0.000699970808 Rises=F Damp=F
 DIIS: error= 3.26D-03 at cycle   4 NSaved=   4.
 NSaved= 4 IEnMin= 3 EnMin= -1136.13365539903     IErMin= 3 ErrMin= 2.95D-03
 ErrMax= 3.26D-03  0.00D+00 EMaxC= 1.00D-01 BMatC= 2.85D-03 BMatP= 2.53D-03
 IDIUse=3 WtCom= 1.49D-01 WtEn= 8.51D-01
 Coeff-Com:  0.100D-01-0.111D-01 0.516D+00 0.485D+00
 Coeff-En:   0.000D+00 0.000D+00 0.569D+00 0.431D+00
 Coeff:      0.149D-02-0.166D-02 0.561D+00 0.439D+00
 Gap=     0.050 Goal=   None    Shift=    0.000
 Gap=     0.051 Goal=   None    Shift=    0.000
 RMSDP=2.88D-03 MaxDP=3.75D-01 DE= 7.00D-04 OVMax= 4.41D-02

 Cycle   5  Pass 1  IDiag  1:
 E= -1136.13531422484     Delta-E=       -0.002358796623 Rises=F Damp=F
 DIIS: error= 7.10D-04 at cycle   5 NSaved=   5.
 NSaved= 5 IEnMin= 5 EnMin= -1136.13531422484     IErMin= 5 ErrMin= 7.10D-04
 ErrMax= 7.10D-04  0.00D+00 EMaxC= 1.00D-01 BMatC= 1.65D-04 BMatP= 2.53D-03
 IDIUse=3 WtCom= 9.93D-01 WtEn= 7.10D-03
 Coeff-Com:  0.449D-02-0.644D-02 0.330D+00 0.286D+00 0.386D+00
 Coeff-En:   0.000D+00 0.000D+00 0.000D+00 0.000D+00 0.100D+01
 Coeff:      0.445D-02-0.639D-02 0.328D+00 0.284D+00 0.390D+00
 Gap=     0.051 Goal=   None    Shift=    0.000
 Gap=     0.050 Goal=   None    Shift=    0.000
 RMSDP=5.16D-04 MaxDP=3.89D-02 DE=-2.36D-03 OVMax= 1.14D-02

 Cycle   6  Pass 1  IDiag  1:
 E= -1136.13546633689     Delta-E=       -0.000152112054 Rises=F Damp=F
 DIIS: error= 9.88D-05 at cycle   6 NSaved=   6.
 NSaved= 6 IEnMin= 6 EnMin= -1136.13546633689     IErMin= 6 ErrMin= 9.88D-05
 ErrMax= 9.88D-05  0.00D+00 EMaxC= 1.00D-01 BMatC= 2.91D-06 BMatP= 1.65D-04
 IDIUse=1 WtCom= 1.00D+00 WtEn= 0.00D+00
 Coeff-Com: -0.197D-02 0.230D-02 0.537D-01 0.419D-01 0.124D+00 0.780D+00
 Coeff:     -0.197D-02 0.230D-02 0.537D-01 0.419D-01 0.124D+00 0.780D+00
 Gap=     0.051 Goal=   None    Shift=    0.000
 Gap=     0.050 Goal=   None    Shift=    0.000
 RMSDP=3.27D-04 MaxDP=4.83D-02 DE=-1.52D-04 OVMax= 3.06D-03

 Cycle   7  Pass 1  IDiag  1:
 E= -1136.13546688771     Delta-E=       -0.000000550811 Rises=F Damp=F
 DIIS: error= 1.10D-04 at cycle   7 NSaved=   7.
 NSaved= 7 IEnMin= 7 EnMin= -1136.13546688771     IErMin= 6 ErrMin= 9.88D-05
 ErrMax= 1.10D-04  0.00D+00 EMaxC= 1.00D-01 BMatC= 2.77D-06 BMatP= 2.91D-06
 IDIUse=1 WtCom= 1.00D+00 WtEn= 0.00D+00
 Coeff-Com: -0.254D-02 0.321D-02-0.276D-01-0.273D-01 0.126D-01 0.572D+00
 Coeff-Com:  0.470D+00
 Coeff:     -0.254D-02 0.321D-02-0.276D-01-0.273D-01 0.126D-01 0.572D+00
 Coeff:      0.470D+00
 Gap=     0.051 Goal=   None    Shift=    0.000
 Gap=     0.050 Goal=   None    Shift=    0.000
 RMSDP=2.09D-04 MaxDP=3.91D-02 DE=-5.51D-07 OVMax= 1.80D-03

 Cycle   8  Pass 1  IDiag  1:
 E= -1136.13547024350     Delta-E=       -0.000003355796 Rises=F Damp=F
 DIIS: error= 9.99D-06 at cycle   8 NSaved=   8.
 NSaved= 8 IEnMin= 8 EnMin= -1136.13547024350     IErMin= 8 ErrMin= 9.99D-06
 ErrMax= 9.99D-06  0.00D+00 EMaxC= 1.00D-01 BMatC= 4.61D-08 BMatP= 2.77D-06
 IDIUse=1 WtCom= 1.00D+00 WtEn= 0.00D+00
 Coeff-Com: -0.305D-03 0.368D-03-0.111D-01-0.951D-02-0.576D-02 0.694D-01
 Coeff-Com:  0.113D+00 0.844D+00
 Coeff:     -0.305D-03 0.368D-03-0.111D-01-0.951D-02-0.576D-02 0.694D-01
 Coeff:      0.113D+00 0.844D+00
 Gap=     0.051 Goal=   None    Shift=    0.000
 Gap=     0.050 Goal=   None    Shift=    0.000
 RMSDP=8.30D-05 MaxDP=1.55D-02 DE=-3.36D-06 OVMax= 3.83D-04

 Cycle   9  Pass 1  IDiag  1:
 E= -1136.13547028901     Delta-E=       -0.000000045504 Rises=F Damp=F
 DIIS: error= 1.04D-05 at cycle   9 NSaved=   9.
 NSaved= 9 IEnMin= 9 EnMin= -1136.13547028901     IErMin= 8 ErrMin= 9.99D-06
 ErrMax= 1.04D-05  0.00D+00 EMaxC= 1.00D-01 BMatC= 3.64D-08 BMatP= 4.61D-08
 IDIUse=1 WtCom= 1.00D+00 WtEn= 0.00D+00
 Coeff-Com:  0.347D-03-0.455D-03-0.237D-02-0.124D-02-0.694D-02-0.645D-01
 Coeff-Com: -0.183D-01 0.553D+00 0.540D+00
 Coeff:      0.347D-03-0.455D-03-0.237D-02-0.124D-02-0.694D-02-0.645D-01
 Coeff:     -0.183D-01 0.553D+00 0.540D+00
 Gap=     0.051 Goal=   None    Shift=    0.000
 Gap=     0.050 Goal=   None    Shift=    0.000
 RMSDP=2.42D-05 MaxDP=3.95D-03 DE=-4.55D-08 OVMax= 2.16D-04

 Cycle  10  Pass 1  IDiag  1:
 E= -1136.13547033563     Delta-E=       -0.000000046629 Rises=F Damp=F
 DIIS: error= 2.10D-06 at cycle  10 NSaved=  10.
 NSaved=10 IEnMin=10 EnMin= -1136.13547033563     IErMin=10 ErrMin= 2.10D-06
 ErrMax= 2.10D-06  0.00D+00 EMaxC= 1.00D-01 BMatC= 1.51D-09 BMatP= 3.64D-08
 IDIUse=1 WtCom= 1.00D+00 WtEn= 0.00D+00
 Coeff-Com:  0.147D-03-0.188D-03 0.818D-03 0.823D-03-0.131D-02-0.183D-01
 Coeff-Com: -0.173D-01-0.122D-01 0.112D+00 0.935D+00
 Coeff:      0.147D-03-0.188D-03 0.818D-03 0.823D-03-0.131D-02-0.183D-01
 Coeff:     -0.173D-01-0.122D-01 0.112D+00 0.935D+00
 Gap=     0.051 Goal=   None    Shift=    0.000
 Gap=     0.050 Goal=   None    Shift=    0.000
 RMSDP=1.18D-05 MaxDP=2.30D-03 DE=-4.66D-08 OVMax= 1.04D-04

 Cycle  11  Pass 1  IDiag  1:
 E= -1136.13547034105     Delta-E=       -0.000000005412 Rises=F Damp=F
 DIIS: error= 1.20D-06 at cycle  11 NSaved=  11.
 NSaved=11 IEnMin=11 EnMin= -1136.13547034105     IErMin=11 ErrMin= 1.20D-06
 ErrMax= 1.20D-06  0.00D+00 EMaxC= 1.00D-01 BMatC= 2.89D-10 BMatP= 1.51D-09
 IDIUse=1 WtCom= 1.00D+00 WtEn= 0.00D+00
 Coeff-Com: -0.579D-04 0.777D-04 0.388D-03 0.190D-03 0.103D-02 0.748D-02
 Coeff-Com:  0.313D-02-0.737D-01-0.807D-01-0.608D-02 0.115D+01
 Coeff:     -0.579D-04 0.777D-04 0.388D-03 0.190D-03 0.103D-02 0.748D-02
 Coeff:      0.313D-02-0.737D-01-0.807D-01-0.608D-02 0.115D+01
 Gap=     0.051 Goal=   None    Shift=    0.000
 Gap=     0.050 Goal=   None    Shift=    0.000
 RMSDP=3.76D-06 MaxDP=5.91D-04 DE=-5.41D-09 OVMax= 7.03D-05

 Cycle  12  Pass 1  IDiag  1:
 E= -1136.13547034297     Delta-E=       -0.000000001924 Rises=F Damp=F
 DIIS: error= 6.27D-07 at cycle  12 NSaved=  12.
 NSaved=12 IEnMin=12 EnMin= -1136.13547034297     IErMin=12 ErrMin= 6.27D-07
 ErrMax= 6.27D-07  0.00D+00 EMaxC= 1.00D-01 BMatC= 9.39D-11 BMatP= 2.89D-10
 IDIUse=1 WtCom= 1.00D+00 WtEn= 0.00D+00
 Coeff-Com: -0.640D-04 0.828D-04-0.241D-04-0.107D-03 0.809D-03 0.865D-02
 Coeff-Com:  0.537D-02-0.339D-01-0.624D-01-0.216D+00 0.350D+00 0.947D+00
 Coeff:     -0.640D-04 0.828D-04-0.241D-04-0.107D-03 0.809D-03 0.865D-02
 Coeff:      0.537D-02-0.339D-01-0.624D-01-0.216D+00 0.350D+00 0.947D+00
 Gap=     0.051 Goal=   None    Shift=    0.000
 Gap=     0.050 Goal=   None    Shift=    0.000
 RMSDP=2.50D-06 MaxDP=4.31D-04 DE=-1.92D-09 OVMax= 4.55D-05

 Cycle  13  Pass 1  IDiag  1:
 E= -1136.13547034355     Delta-E=       -0.000000000578 Rises=F Damp=F
 DIIS: error= 2.62D-07 at cycle  13 NSaved=  13.
 NSaved=13 IEnMin=13 EnMin= -1136.13547034355     IErMin=13 ErrMin= 2.62D-07
 ErrMax= 2.62D-07  0.00D+00 EMaxC= 1.00D-01 BMatC= 1.59D-11 BMatP= 9.39D-11
 IDIUse=1 WtCom= 1.00D+00 WtEn= 0.00D+00
 Coeff-Com:  0.790D-05-0.111D-04-0.756D-04-0.378D-04-0.127D-03-0.124D-02
 Coeff-Com: -0.271D-03 0.170D-01 0.106D-01-0.390D-01-0.218D+00 0.932D-01
 Coeff-Com:  0.114D+01
 Coeff:      0.790D-05-0.111D-04-0.756D-04-0.378D-04-0.127D-03-0.124D-02
 Coeff:     -0.271D-03 0.170D-01 0.106D-01-0.390D-01-0.218D+00 0.932D-01
 Coeff:      0.114D+01
 Gap=     0.051 Goal=   None    Shift=    0.000
 Gap=     0.050 Goal=   None    Shift=    0.000
 RMSDP=1.14D-06 MaxDP=1.57D-04 DE=-5.78D-10 OVMax= 2.49D-05

 Cycle  14  Pass 1  IDiag  1:
 E= -1136.13547034368     Delta-E=       -0.000000000135 Rises=F Damp=F
 DIIS: error= 9.73D-08 at cycle  14 NSaved=  14.
 NSaved=14 IEnMin=14 EnMin= -1136.13547034368     IErMin=14 ErrMin= 9.73D-08
 ErrMax= 9.73D-08  0.00D+00 EMaxC= 1.00D-01 BMatC= 2.13D-12 BMatP= 1.59D-11
 IDIUse=1 WtCom= 1.00D+00 WtEn= 0.00D+00
 Coeff-Com:  0.861D-05-0.111D-04-0.149D-04 0.274D-05-0.128D-03-0.987D-03
 Coeff-Com: -0.673D-03 0.380D-02 0.943D-02 0.344D-01-0.370D-01-0.156D+00
 Coeff-Com: -0.774D-01 0.122D+01
 Coeff:      0.861D-05-0.111D-04-0.149D-04 0.274D-05-0.128D-03-0.987D-03
 Coeff:     -0.673D-03 0.380D-02 0.943D-02 0.344D-01-0.370D-01-0.156D+00
 Coeff:     -0.774D-01 0.122D+01
 Gap=     0.051 Goal=   None    Shift=    0.000
 Gap=     0.050 Goal=   None    Shift=    0.000
 RMSDP=4.12D-07 MaxDP=3.73D-05 DE=-1.35D-10 OVMax= 8.73D-06

 Cycle  15  Pass 1  IDiag  1:
 E= -1136.13547034368     Delta-E=        0.000000000003 Rises=F Damp=F
 DIIS: error= 3.65D-08 at cycle  15 NSaved=  15.
 NSaved=15 IEnMin=14 EnMin= -1136.13547034368     IErMin=15 ErrMin= 3.65D-08
 ErrMax= 3.65D-08  0.00D+00 EMaxC= 1.00D-01 BMatC= 2.43D-13 BMatP= 2.13D-12
 IDIUse=1 WtCom= 1.00D+00 WtEn= 0.00D+00
 Coeff-Com: -0.204D-05 0.281D-05 0.126D-04 0.356D-05 0.384D-04 0.211D-03
 Coeff-Com:  0.103D-03-0.264D-02-0.261D-02-0.354D-04 0.397D-01 0.348D-02
 Coeff-Com: -0.168D+00-0.136D+00 0.127D+01
 Coeff:     -0.204D-05 0.281D-05 0.126D-04 0.356D-05 0.384D-04 0.211D-03
 Coeff:      0.103D-03-0.264D-02-0.261D-02-0.354D-04 0.397D-01 0.348D-02
 Coeff:     -0.168D+00-0.136D+00 0.127D+01
 Gap=     0.051 Goal=   None    Shift=    0.000
 Gap=     0.050 Goal=   None    Shift=    0.000
 RMSDP=1.85D-07 MaxDP=1.89D-05 DE= 2.73D-12 OVMax= 3.30D-06

 Cycle  16  Pass 1  IDiag  1:
 E= -1136.13547034369     Delta-E=       -0.000000000005 Rises=F Damp=F
 DIIS: error= 9.25D-09 at cycle  16 NSaved=  16.
 NSaved=16 IEnMin=16 EnMin= -1136.13547034369     IErMin=16 ErrMin= 9.25D-09
 ErrMax= 9.25D-09  0.00D+00 EMaxC= 1.00D-01 BMatC= 2.68D-14 BMatP= 2.43D-13
 IDIUse=1 WtCom= 1.00D+00 WtEn= 0.00D+00
 Coeff-Com: -0.758D-06 0.100D-05 0.463D-05 0.162D-05 0.127D-04 0.666D-04
 Coeff-Com:  0.547D-04-0.494D-03-0.100D-02-0.223D-02 0.604D-02 0.132D-01
 Coeff-Com: -0.120D-01-0.118D+00 0.191D+00 0.924D+00
 Coeff:     -0.758D-06 0.100D-05 0.463D-05 0.162D-05 0.127D-04 0.666D-04
 Coeff:      0.547D-04-0.494D-03-0.100D-02-0.223D-02 0.604D-02 0.132D-01
 Coeff:     -0.120D-01-0.118D+00 0.191D+00 0.924D+00
 Gap=     0.051 Goal=   None    Shift=    0.000
 Gap=     0.050 Goal=   None    Shift=    0.000
 RMSDP=3.35D-08 MaxDP=3.34D-06 DE=-4.55D-12 OVMax= 6.02D-07

 Cycle  17  Pass 1  IDiag  1:
 E= -1136.13547034369     Delta-E=       -0.000000000008 Rises=F Damp=F
 DIIS: error= 6.30D-09 at cycle  17 NSaved=  17.
 NSaved=17 IEnMin=17 EnMin= -1136.13547034369     IErMin=17 ErrMin= 6.30D-09
 ErrMax= 6.30D-09  0.00D+00 EMaxC= 1.00D-01 BMatC= 6.79D-15 BMatP= 2.68D-14
 IDIUse=1 WtCom= 1.00D+00 WtEn= 0.00D+00
 Coeff-Com:  0.235D-07-0.534D-07-0.152D-05-0.623D-06-0.383D-05 0.612D-05
 Coeff-Com:  0.746D-05 0.255D-03 0.126D-03-0.804D-03-0.455D-02 0.316D-02
 Coeff-Com:  0.239D-01-0.156D-02-0.188D+00 0.228D+00 0.939D+00
 Coeff:      0.235D-07-0.534D-07-0.152D-05-0.623D-06-0.383D-05 0.612D-05
 Coeff:      0.746D-05 0.255D-03 0.126D-03-0.804D-03-0.455D-02 0.316D-02
 Coeff:      0.239D-01-0.156D-02-0.188D+00 0.228D+00 0.939D+00
 Gap=     0.051 Goal=   None    Shift=    0.000
 Gap=     0.050 Goal=   None    Shift=    0.000
 RMSDP=1.50D-08 MaxDP=9.87D-07 DE=-7.73D-12 OVMax= 2.96D-07

 Cycle  18  Pass 1  IDiag  1:
 E= -1136.13547034368     Delta-E=        0.000000000009 Rises=F Damp=F
 DIIS: error= 2.34D-09 at cycle  18 NSaved=  18.
 NSaved=18 IEnMin=17 EnMin= -1136.13547034369     IErMin=18 ErrMin= 2.34D-09
 ErrMax= 2.34D-09  0.00D+00 EMaxC= 1.00D-01 BMatC= 1.08D-15 BMatP= 6.79D-15
 IDIUse=1 WtCom= 1.00D+00 WtEn= 0.00D+00
 Large coefficients: NSaved= 18 BigCof=    0.00 CofMax=   10.00 Det=-1.74D-15
 Inversion failed.  Reducing to 17 matrices.
 Large coefficients: NSaved= 17 BigCof=    0.00 CofMax=   10.00 Det=-1.75D-15
 Inversion failed.  Reducing to 16 matrices.
 Large coefficients: NSaved= 16 BigCof=    0.00 CofMax=   10.00 Det=-1.78D-15
 Inversion failed.  Reducing to 15 matrices.
 Coeff-Com:  0.673D-07 0.171D-05 0.272D-05-0.122D-05-0.777D-04 0.148D-04
 Coeff-Com:  0.319D-03 0.104D-02-0.238D-02-0.513D-02 0.155D-01 0.233D-01
 Coeff-Com: -0.217D+00-0.234D+00 0.142D+01
 Coeff:      0.673D-07 0.171D-05 0.272D-05-0.122D-05-0.777D-04 0.148D-04
 Coeff:      0.319D-03 0.104D-02-0.238D-02-0.513D-02 0.155D-01 0.233D-01
 Coeff:     -0.217D+00-0.234D+00 0.142D+01
 Gap=     0.051 Goal=   None    Shift=    0.000
 Gap=     0.050 Goal=   None    Shift=    0.000
 RMSDP=1.19D-08 MaxDP=7.51D-07 DE= 9.09D-12 OVMax= 2.08D-07

 Cycle  19  Pass 1  IDiag  1:
 E= -1136.13547034369     Delta-E=       -0.000000000005 Rises=F Damp=F
 DIIS: error= 7.92D-10 at cycle  19 NSaved=  16.
 NSaved=16 IEnMin=14 EnMin= -1136.13547034369     IErMin=16 ErrMin= 7.92D-10
 ErrMax= 7.92D-10  0.00D+00 EMaxC= 1.00D-01 BMatC= 1.66D-16 BMatP= 1.08D-15
 IDIUse=1 WtCom= 1.00D+00 WtEn= 0.00D+00
 Large coefficients: NSaved= 16 BigCof=    0.00 CofMax=   10.00 Det=-2.40D-16
 Inversion failed.  Reducing to 15 matrices.
 Coeff-Com:  0.705D-07-0.452D-05-0.479D-05-0.266D-04 0.126D-04 0.267D-03
 Coeff-Com:  0.682D-03-0.106D-02-0.473D-02 0.425D-02 0.333D-01-0.717D-01
 Coeff-Com: -0.185D+00 0.135D+00 0.109D+01
 Coeff:      0.705D-07-0.452D-05-0.479D-05-0.266D-04 0.126D-04 0.267D-03
 Coeff:      0.682D-03-0.106D-02-0.473D-02 0.425D-02 0.333D-01-0.717D-01
 Coeff:     -0.185D+00 0.135D+00 0.109D+01
 Gap=     0.051 Goal=   None    Shift=    0.000
 Gap=     0.050 Goal=   None    Shift=    0.000
 RMSDP=6.36D-09 MaxDP=5.28D-07 DE=-5.00D-12 OVMax= 7.93D-08

 SCF Done:  E(UB3LYP) =  -1136.13547034     A.U. after   19 cycles
            NFock= 19  Conv=0.64D-08     -V/T= 2.0028
 <Sx>= 0.0000 <Sy>= 0.0000 <Sz>= 0.5000 <S**2>= 0.7580 S= 0.5040
 <L.S>= 0.000000000000E+00
 KE= 1.133018896924D+03 PE=-3.444044169466D+03 EE= 8.176925329664D+02
 Annihilation of the first spin contaminant:
 S**2 before annihilation     0.7580,   after     0.7500
 Leave Link  502 at Thu Dec  7 08:42:16 2023, MaxMem=  1879048192 cpu:             176.8 elap:              15.6
 (Enter /home/sekinelabo/g16/l601.exe)
 Copying SCF densities to generalized density rwf, IOpCl= 1 IROHF=0.

 **********************************************************************

            Population analysis using the SCF Density.

 **********************************************************************

 Orbital symmetries:
 Alpha Orbitals:
       Occupied  (A) (A) (A) (A) (A) (A) (A) (A) (A) (A) (A) (A)
                 (A) (A) (A) (A) (A) (A) (A) (A) (A) (A) (A) (A)
                 (A) (A) (A) (A) (A) (A) (A) (A) (A) (A) (A) (A)
                 (A) (A) (A)
       Virtual   (A) (A) (A) (A) (A) (A) (A) (A) (A) (A) (A) (A)
                 (A) (A) (A) (A) (A) (A) (A) (A) (A) (A) (A) (A)
                 (A) (A) (A) (A) (A) (A) (A) (A) (A) (A) (A) (A)
                 (A) (A) (A) (A) (A) (A) (A) (A) (A) (A) (A) (A)
                 (A) (A) (A) (A) (A) (A) (A) (A) (A) (A) (A) (A)
                 (A) (A) (A) (A) (A) (A) (A) (A) (A) (A) (A) (A)
                 (A) (A) (A) (A) (A) (A) (A) (A) (A) (A) (A) (A)
                 (A) (A) (A) (A) (A) (A) (A) (A) (A) (A) (A) (A)
                 (A) (A) (A) (A) (A) (A) (A) (A) (A) (A) (A) (A)
                 (A) (A) (A) (A) (A) (A) (A) (A) (A) (A) (A) (A)
                 (A) (A) (A) (A) (A) (A) (A) (A) (A) (A) (A) (A)
                 (A) (A) (A) (A) (A) (A) (A) (A) (A) (A) (A) (A)
                 (A) (A) (A) (A) (A) (A) (A) (A) (A) (A) (A) (A)
                 (A) (A) (A) (A) (A) (A) (A) (A) (A) (A) (A) (A)
                 (A) (A) (A)
 Beta  Orbitals:
       Occupied  (A) (A) (A) (A) (A) (A) (A) (A) (A) (A) (A) (A)
                 (A) (A) (A) (A) (A) (A) (A) (A) (A) (A) (A) (A)
                 (A) (A) (A) (A) (A) (A) (A) (A) (A) (A) (A) (A)
                 (A) (A)
       Virtual   (A) (A) (A) (A) (A) (A) (A) (A) (A) (A) (A) (A)
                 (A) (A) (A) (A) (A) (A) (A) (A) (A) (A) (A) (A)
                 (A) (A) (A) (A) (A) (A) (A) (A) (A) (A) (A) (A)
                 (A) (A) (A) (A) (A) (A) (A) (A) (A) (A) (A) (A)
                 (A) (A) (A) (A) (A) (A) (A) (A) (A) (A) (A) (A)
                 (A) (A) (A) (A) (A) (A) (A) (A) (A) (A) (A) (A)
                 (A) (A) (A) (A) (A) (A) (A) (A) (A) (A) (A) (A)
                 (A) (A) (A) (A) (A) (A) (A) (A) (A) (A) (A) (A)
                 (A) (A) (A) (A) (A) (A) (A) (A) (A) (A) (A) (A)
                 (A) (A) (A) (A) (A) (A) (A) (A) (A) (A) (A) (A)
                 (A) (A) (A) (A) (A) (A) (A) (A) (A) (A) (A) (A)
                 (A) (A) (A) (A) (A) (A) (A) (A) (A) (A) (A) (A)
                 (A) (A) (A) (A) (A) (A) (A) (A) (A) (A) (A) (A)
                 (A) (A) (A) (A) (A) (A) (A) (A) (A) (A) (A) (A)
                 (A) (A) (A) (A)
 The electronic state is 2-A.
 Alpha  occ. eigenvalues --  -38.44165 -38.43933 -38.43667 -38.43425 -38.43278
 Alpha  occ. eigenvalues --  -38.43149 -38.42858  -2.20047  -2.19810  -2.19542
 Alpha  occ. eigenvalues --   -2.19369  -2.19306  -2.19034  -2.18801  -1.13720
 Alpha  occ. eigenvalues --   -1.13707  -1.13698  -1.13523  -1.13467  -1.13454
 Alpha  occ. eigenvalues --   -1.13210  -1.13204  -1.13171  -1.13068  -1.13036
 Alpha  occ. eigenvalues --   -1.13003  -1.12982  -1.12955  -1.12907  -1.12707
 Alpha  occ. eigenvalues --   -1.12697  -1.12662  -1.12488  -1.12450  -1.12406
 Alpha  occ. eigenvalues --   -0.19281  -0.13550  -0.12270  -0.10917
 Alpha virt. eigenvalues --   -0.05820  -0.05125  -0.04141  -0.03402  -0.02804
 Alpha virt. eigenvalues --   -0.02509  -0.01685  -0.00943  -0.00133  -0.00040
 Alpha virt. eigenvalues --   -0.00014   0.00366   0.00797   0.00934   0.00949
 Alpha virt. eigenvalues --    0.01081   0.01155   0.01203   0.01241   0.01354
 Alpha virt. eigenvalues --    0.01417   0.01612   0.01730   0.01872   0.02170
 Alpha virt. eigenvalues --    0.02312   0.02335   0.02655   0.02676   0.02906
 Alpha virt. eigenvalues --    0.02947   0.03035   0.03088   0.03162   0.03251
 Alpha virt. eigenvalues --    0.03280   0.03318   0.03475   0.03578   0.03747
 Alpha virt. eigenvalues --    0.04321   0.04433   0.04728   0.04810   0.04874
 Alpha virt. eigenvalues --    0.05003   0.05210   0.05344   0.05462   0.05598
 Alpha virt. eigenvalues --    0.05893   0.07169   0.07292   0.07521   0.07533
 Alpha virt. eigenvalues --    0.07688   0.07914   0.08247   0.08846   0.09039
 Alpha virt. eigenvalues --    0.09716   0.10063   0.10808   0.11034   0.11842
 Alpha virt. eigenvalues --    0.11961   0.12510   0.12973   0.13370   0.13743
 Alpha virt. eigenvalues --    0.14047   0.14264   0.14911   0.15182   0.15627
 Alpha virt. eigenvalues --    0.15741   0.15757   0.16242   0.16613   0.16769
 Alpha virt. eigenvalues --    0.25606   0.26233   0.26806   0.27415   0.27975
 Alpha virt. eigenvalues --    0.29427   0.29918   0.30689   0.31254   0.34396
 Alpha virt. eigenvalues --    0.34793   0.35426   0.35722   0.38851   0.39256
 Alpha virt. eigenvalues --    0.39893   0.41592   0.42412   0.43054   0.43825
 Alpha virt. eigenvalues --    0.44443   0.44747   0.44994   0.45091   0.45372
 Alpha virt. eigenvalues --    0.45533   0.45656   0.46117   0.46959   0.47285
 Alpha virt. eigenvalues --    0.47371   0.47904   0.47999   0.49998   0.50580
 Alpha virt. eigenvalues --    0.51317   0.51933   0.52235   0.52450   0.53763
 Alpha virt. eigenvalues --    0.54548   0.56043   0.56600   0.57677   0.57866
 Alpha virt. eigenvalues --    0.58140   0.59397   0.61038   0.61527   0.62404
 Alpha virt. eigenvalues --    0.63774   0.64881   0.66474   0.67643   0.70616
 Alpha virt. eigenvalues --    0.76981   2.04546   2.17325   2.19780   2.22025
 Alpha virt. eigenvalues --    2.23513   2.26035   2.28626   4.42854   4.43081
 Alpha virt. eigenvalues --    4.43849   4.44533   4.45024   4.45263   4.46531
 Alpha virt. eigenvalues --    4.46609   4.47049   4.48524   4.49558   4.50728
 Alpha virt. eigenvalues --    4.51791   4.54006   4.54643   4.55361   4.57605
 Alpha virt. eigenvalues --    4.59514   4.61574   4.63982   4.73616  96.23808
 Alpha virt. eigenvalues --   96.39357  96.43032  96.45631  96.47247  96.50609
 Alpha virt. eigenvalues --   96.54125
  Beta  occ. eigenvalues --  -38.44162 -38.43929 -38.43661 -38.43334 -38.43207
  Beta  occ. eigenvalues --  -38.43143 -38.42849  -2.20043  -2.19807  -2.19535
  Beta  occ. eigenvalues --   -2.19202  -2.19177  -2.19026  -2.18788  -1.13717
  Beta  occ. eigenvalues --   -1.13706  -1.13674  -1.13524  -1.13455  -1.13438
  Beta  occ. eigenvalues --   -1.13205  -1.13174  -1.13168  -1.12979  -1.12935
  Beta  occ. eigenvalues --   -1.12884  -1.12866  -1.12864  -1.12813  -1.12700
  Beta  occ. eigenvalues --   -1.12662  -1.12658  -1.12473  -1.12408  -1.12398
  Beta  occ. eigenvalues --   -0.18523  -0.13300  -0.12004
  Beta virt. eigenvalues --   -0.06956  -0.05777  -0.05138  -0.04138  -0.02569
  Beta virt. eigenvalues --   -0.01987  -0.01594  -0.01438  -0.00888  -0.00188
  Beta virt. eigenvalues --   -0.00087   0.00126   0.00385   0.00855   0.00920
  Beta virt. eigenvalues --    0.00944   0.01203   0.01268   0.01344   0.01389
  Beta virt. eigenvalues --    0.01429   0.01537   0.01695   0.01767   0.01894
  Beta virt. eigenvalues --    0.02285   0.02319   0.02355   0.02625   0.02661
  Beta virt. eigenvalues --    0.02927   0.03039   0.03107   0.03155   0.03246
  Beta virt. eigenvalues --    0.03284   0.03328   0.03372   0.03611   0.03717
  Beta virt. eigenvalues --    0.03794   0.04396   0.04498   0.04842   0.04962
  Beta virt. eigenvalues --    0.05037   0.05185   0.05316   0.05398   0.05517
  Beta virt. eigenvalues --    0.05826   0.06213   0.07146   0.07334   0.07679
  Beta virt. eigenvalues --    0.07721   0.07898   0.07953   0.08260   0.08953
  Beta virt. eigenvalues --    0.09345   0.09902   0.10357   0.10935   0.11215
  Beta virt. eigenvalues --    0.12045   0.12131   0.13025   0.13087   0.13780
  Beta virt. eigenvalues --    0.14006   0.14161   0.14565   0.15060   0.15464
  Beta virt. eigenvalues --    0.15685   0.15949   0.16123   0.16342   0.16849
  Beta virt. eigenvalues --    0.17195   0.25666   0.26557   0.27155   0.27804
  Beta virt. eigenvalues --    0.28181   0.29624   0.30325   0.31093   0.31511
  Beta virt. eigenvalues --    0.34707   0.34919   0.35623   0.36108   0.39131
  Beta virt. eigenvalues --    0.39463   0.40140   0.41874   0.42628   0.43124
  Beta virt. eigenvalues --    0.44125   0.44524   0.45035   0.45221   0.45314
  Beta virt. eigenvalues --    0.45465   0.45550   0.45748   0.46345   0.47003
  Beta virt. eigenvalues --    0.47356   0.47413   0.48188   0.48251   0.50027
  Beta virt. eigenvalues --    0.50560   0.51577   0.52157   0.52310   0.52632
  Beta virt. eigenvalues --    0.53996   0.54618   0.56207   0.56727   0.57952
  Beta virt. eigenvalues --    0.58293   0.58462   0.59747   0.61404   0.61595
  Beta virt. eigenvalues --    0.62798   0.64017   0.65124   0.66699   0.67730
  Beta virt. eigenvalues --    0.70553   0.77205   2.04659   2.17324   2.19783
  Beta virt. eigenvalues --    2.22028   2.23639   2.26266   2.28921   4.42845
  Beta virt. eigenvalues --    4.43084   4.43939   4.44606   4.45086   4.45298
  Beta virt. eigenvalues --    4.46569   4.46639   4.47143   4.48570   4.49570
  Beta virt. eigenvalues --    4.50860   4.51818   4.54080   4.54702   4.55426
  Beta virt. eigenvalues --    4.57648   4.59564   4.61614   4.64021   4.73679
  Beta virt. eigenvalues --   96.23847  96.39359  96.43035  96.45636  96.47300
  Beta virt. eigenvalues --   96.50671  96.54208
          Condensed to atoms (all electrons):
               1          2          3          4          5          6
     1  Na  11.120637   0.200187  -0.388290   0.514582   0.179507  -0.621842
     2  Na   0.200187  11.205469  -0.529202  -0.277377  -0.379145   0.078145
     3  Na  -0.388290  -0.529202  11.459240   0.255554  -0.421574   0.206179
     4  Na   0.514582  -0.277377   0.255554  11.210007  -0.227215  -0.623323
     5  Na   0.179507  -0.379145  -0.421574  -0.227215  17.273576  -3.357738
     6  Na  -0.621842   0.078145   0.206179  -0.623323  -3.357738  16.148187
     7  Na  -0.171983   0.507894   0.198296  -0.051128  -1.519792  -0.216123
               7
     1  Na  -0.171983
     2  Na   0.507894
     3  Na   0.198296
     4  Na  -0.051128
     5  Na  -1.519792
     6  Na  -0.216123
     7  Na  11.871664
          Atomic-Atomic Spin Densities.
               1          2          3          4          5          6
     1  Na  -0.121863  -0.081987   0.085424  -0.030862   0.248134  -0.243586
     2  Na  -0.081987  -0.218636   0.145366   0.066357  -0.041253   0.144376
     3  Na   0.085424   0.145366  -0.284191  -0.073875  -0.143534   0.231364
     4  Na  -0.030862   0.066357  -0.073875  -0.083362   0.053998  -0.114751
     5  Na   0.248134  -0.041253  -0.143534   0.053998   4.829973  -3.992603
     6  Na  -0.243586   0.144376   0.231364  -0.114751  -3.992603   4.364233
     7  Na   0.069530  -0.046903   0.010976   0.085777  -0.406021   0.325313
               7
     1  Na   0.069530
     2  Na  -0.046903
     3  Na   0.010976
     4  Na   0.085777
     5  Na  -0.406021
     6  Na   0.325313
     7  Na  -0.068634
 Mulliken charges and spin densities:
               1          2
     1  Na   0.167203  -0.075211
     2  Na   0.194029  -0.032680
     3  Na   0.219798  -0.028471
     4  Na   0.198900  -0.096717
     5  Na  -0.547619   0.548694
     6  Na  -0.613485   0.714347
     7  Na   0.381173  -0.029962
 Sum of Mulliken charges =  -0.00000   1.00000
 Mulliken charges and spin densities with hydrogens summed into heavy atoms:
               1          2
     1  Na   0.167203  -0.075211
     2  Na   0.194029  -0.032680
     3  Na   0.219798  -0.028471
     4  Na   0.198900  -0.096717
     5  Na  -0.547619   0.548694
     6  Na  -0.613485   0.714347
     7  Na   0.381173  -0.029962
 Electronic spatial extent (au):  <R**2>=           2070.0980
 Charge=             -0.0000 electrons
 Dipole moment (field-independent basis, Debye):
    X=             -0.0176    Y=              0.0686    Z=              0.1320  Tot=              0.1498
 Quadrupole moment (field-independent basis, Debye-Ang):
   XX=            -53.9188   YY=            -66.3006   ZZ=            -73.5079
   XY=              0.0932   XZ=              0.2375   YZ=             -1.2361
 Traceless Quadrupole moment (field-independent basis, Debye-Ang):
   XX=             10.6570   YY=             -1.7248   ZZ=             -8.9322
   XY=              0.0932   XZ=              0.2375   YZ=             -1.2361
 Octapole moment (field-independent basis, Debye-Ang**2):
  XXX=              6.3022  YYY=              5.1568  ZZZ=              1.8039  XYY=             -5.1586
  XXY=             -5.4787  XXZ=              0.2835  XZZ=             -0.4809  YZZ=              0.7445
  YYZ=             -0.5902  XYZ=              0.4268
 Hexadecapole moment (field-independent basis, Debye-Ang**3):
 XXXX=          -1375.9275 YYYY=          -1238.6497 ZZZZ=           -707.3023 XXXY=             -3.3336
 XXXZ=              4.3605 YYYX=              6.6597 YYYZ=            -22.6455 ZZZX=             -1.4930
 ZZZY=              4.1560 XXYY=           -434.2108 XXZZ=           -433.6250 YYZZ=           -373.2289
 XXYZ=            -11.5617 YYXZ=              3.1879 ZZXY=             -0.8072
 N-N= 3.571972692323D+02 E-N=-3.444044169365D+03  KE= 1.133018896924D+03
                          Isotropic Fermi Contact Couplings
        Atom                 a.u.       MegaHertz       Gauss      10(-4) cm-1
     1  Na(23)            -0.01184     -14.00638      -4.99782      -4.67202
     2  Na(23)            -0.02189     -25.89610      -9.24037      -8.63801
     3  Na(23)            -0.02105     -24.89900      -8.88458      -8.30541
     4  Na(23)            -0.01635     -19.34087      -6.90130      -6.45142
     5  Na(23)             0.27977     330.97271     118.09929     110.40061
     6  Na(23)             0.37033     438.11332     156.32973     146.13887
     7  Na(23)            -0.01403     -16.59780      -5.92251      -5.53643
 --------------------------------------------------------
       Center         ----  Spin Dipole Couplings  ----
                      3XX-RR        3YY-RR        3ZZ-RR
 --------------------------------------------------------
     1   Atom       -0.013177     -0.014710      0.027887
     2   Atom       -0.011482     -0.016382      0.027864
     3   Atom       -0.011144     -0.017858      0.029002
     4   Atom       -0.017134     -0.015148      0.032282
     5   Atom        0.000886      0.000486     -0.001372
     6   Atom        0.000511      0.005283     -0.005794
     7   Atom       -0.022736     -0.018417      0.041153
 --------------------------------------------------------
                        XY            XZ            YZ
 --------------------------------------------------------
     1   Atom       -0.003126     -0.002206      0.004194
     2   Atom        0.002346      0.003050     -0.003110
     3   Atom       -0.000993     -0.000251     -0.001698
     4   Atom        0.002435      0.000540      0.002794
     5   Atom       -0.000644     -0.000478     -0.001891
     6   Atom        0.000291      0.000853     -0.002414
     7   Atom       -0.001185     -0.002546      0.004549
 --------------------------------------------------------


 ---------------------------------------------------------------------------------
              Anisotropic Spin Dipole Couplings in Principal Axis System
 ---------------------------------------------------------------------------------

       Atom             a.u.   MegaHertz   Gauss  10(-4) cm-1        Axes

              Baa    -0.0173    -2.436    -0.869    -0.813  0.5924  0.8043 -0.0458
     1 Na(23) Bbb    -0.0112    -1.581    -0.564    -0.527  0.8034 -0.5856  0.1082
              Bcc     0.0284     4.017     1.433     1.340 -0.0602  0.1009  0.9931
 
              Baa    -0.0177    -2.497    -0.891    -0.833 -0.3904  0.9164  0.0887
     2 Na(23) Bbb    -0.0106    -1.498    -0.535    -0.500  0.9178  0.3950 -0.0408
              Bcc     0.0283     3.995     1.426     1.333  0.0725 -0.0655  0.9952
 
              Baa    -0.0181    -2.551    -0.910    -0.851  0.1433  0.9890  0.0365
     3 Na(23) Bbb    -0.0110    -1.553    -0.554    -0.518  0.9897 -0.1434  0.0001
              Bcc     0.0291     4.104     1.465     1.369 -0.0054 -0.0361  0.9993
 
              Baa    -0.0188    -2.654    -0.947    -0.885  0.8235 -0.5669  0.0223
     4 Na(23) Bbb    -0.0137    -1.929    -0.688    -0.643  0.5672  0.8216 -0.0566
              Bcc     0.0325     4.583     1.635     1.529  0.0138  0.0593  0.9981
 
              Baa    -0.0027    -0.382    -0.136    -0.127  0.2045  0.5291  0.8235
     5 Na(23) Bbb     0.0009     0.131     0.047     0.044  0.9109  0.2051 -0.3580
              Bcc     0.0018     0.251     0.090     0.084 -0.3583  0.8234 -0.4400
 
              Baa    -0.0064    -0.906    -0.323    -0.302 -0.1282  0.2035  0.9706
     6 Na(23) Bbb     0.0006     0.088     0.031     0.029  0.9915  0.0054  0.1298
              Bcc     0.0058     0.817     0.292     0.273  0.0212  0.9791 -0.2025
 
              Baa    -0.0231    -3.258    -1.162    -1.087  0.9739  0.2260  0.0226
     7 Na(23) Bbb    -0.0185    -2.618    -0.934    -0.873 -0.2235  0.9711 -0.0835
              Bcc     0.0416     5.875     2.096     1.960 -0.0408  0.0763  0.9962
 

 ---------------------------------------------------------------------------------

 No NMR shielding tensors so no spin-rotation constants.
 Leave Link  601 at Thu Dec  7 08:42:16 2023, MaxMem=  1879048192 cpu:               2.3 elap:               0.2
 (Enter /home/sekinelabo/g16/l701.exe)
 ... and contract with generalized density number  0.
 Compute integral first derivatives.
 Leave Link  701 at Thu Dec  7 08:42:16 2023, MaxMem=  1879048192 cpu:               1.6 elap:               0.1
 (Enter /home/sekinelabo/g16/l702.exe)
 L702 exits ... SP integral derivatives will be done elsewhere.
 Leave Link  702 at Thu Dec  7 08:42:16 2023, MaxMem=  1879048192 cpu:               0.5 elap:               0.0
 (Enter /home/sekinelabo/g16/l703.exe)
 Integral derivatives from FoFJK, PRISM(SPDF).
 Compute integral first derivatives, UseDBF=F ICtDFT=           0.
 Calling FoFJK, ICntrl=      2127 FMM=F ISym2X=0 I1Cent= 0 IOpClX= 1 NMat=1 NMatS=1 NMatT=0.
 FoFJK:  IHMeth= 1 ICntrl=    2127 DoSepK=F KAlg= 0 I1Cent=           0 FoldK=F
 IRaf=         0 NMat=       1 IRICut=       1 DoRegI=T DoRafI=F ISym2E= 0 IDoP0=0 IntGTp=1.
 FoFCou: FMM=F IPFlag=           0 FMFlag=      100000 FMFlg1=         800
         NFxFlg=           0 DoJE=F BraDBF=F KetDBF=F FulRan=T
         wScrn=  0.000000 ICntrl=      2127 IOpCl=  1 I1Cent=           0 NGrid=           0
         NMat0=    1 NMatS0=      1 NMatT0=    0 NMatD0=    1 NMtDS0=    0 NMtDT0=    0
 Symmetry not used in FoFCou.
 Leave Link  703 at Thu Dec  7 08:42:19 2023, MaxMem=  1879048192 cpu:              33.9 elap:               2.3
 (Enter /home/sekinelabo/g16/l716.exe)
 Dipole        =-6.92912353D-03 2.69896597D-02 5.19429788D-02
 ***** Axes restored to original set *****
 -------------------------------------------------------------------
 Center     Atomic                   Forces (Hartrees/Bohr)
 Number     Number              X              Y              Z
 -------------------------------------------------------------------
      1       11          -0.001605316    0.005317353   -0.002061682
      2       11          -0.001079997   -0.004481396   -0.000087098
      3       11          -0.000695889   -0.000656367   -0.000925344
      4       11           0.001947710    0.004497442    0.000225486
      5       11          -0.000812799    0.005646883    0.005037565
      6       11           0.000967175   -0.000556884   -0.000977709
      7       11           0.001279115   -0.009767030   -0.001211218
 -------------------------------------------------------------------
 Cartesian Forces:  Max     0.009767030 RMS     0.003386429
 Z-matrix is all fixed cartesians, so copy forces.
 Force constants in Cartesian coordinates: 
                1             2             3             4             5 
      1  0.815229D-01
      2  0.199208D-01  0.947001D-01
      3  0.159168D-01  0.453762D-02  0.617732D-01
      4 -0.234408D-01 -0.176343D-01 -0.704268D-02  0.848266D-01
      5  0.150759D-01 -0.402079D-01  0.151336D-01 -0.121937D-01  0.840187D-01
      6 -0.132078D-01 -0.587047D-02 -0.150158D-01  0.220849D-01 -0.151221D-01
      7 -0.163596D-02 -0.420401D-02 -0.470656D-02 -0.155373D-02  0.205455D-02
      8 -0.374989D-02  0.475597D-02 -0.236120D-02  0.139166D-02  0.750335D-02
      9 -0.483837D-02 -0.273339D-02  0.577320D-02 -0.555312D-02  0.131881D-02
     10 -0.157581D-01  0.139782D-01 -0.102387D-01  0.306298D-02  0.523223D-02
     11 -0.147049D-01 -0.168533D-01 -0.669141D-02  0.550734D-02  0.520677D-03
     12 -0.598091D-02  0.114739D-01 -0.844155D-02 -0.399766D-02  0.419502D-02
     13 -0.275550D-01  0.311159D-02  0.205051D-01 -0.283843D-01  0.595036D-02
     14 -0.152835D-01 -0.184217D-01  0.105322D-01  0.114940D-01 -0.179476D-01
     15 -0.695656D-02 -0.681039D-02 -0.230126D-01 -0.115356D-01  0.608729D-02
     16 -0.169048D-01 -0.812317D-02 -0.129867D-01 -0.147470D-01  0.443085D-02
     17  0.559012D-02 -0.203853D-01 -0.190950D-01  0.265351D-03 -0.118289D-01
     18  0.164035D-01  0.111942D-02 -0.279775D-01  0.174349D-01 -0.491403D-02
     19  0.377177D-02 -0.704915D-02 -0.144718D-02 -0.197637D-01 -0.205502D-01
     20 -0.684861D-02 -0.358798D-02 -0.205590D-02  0.111696D-01 -0.220585D-01
     21 -0.133666D-02 -0.171670D-02  0.690106D-02 -0.113907D-01 -0.669858D-02
                6             7             8             9            10 
      6  0.684742D-01
      7 -0.647496D-02  0.992276D-01
      8  0.109987D-02  0.824091D-02  0.722353D-01
      9  0.431136D-02  0.244316D-01 -0.160504D-02  0.675588D-01
     10 -0.407932D-02 -0.235398D-01 -0.216029D-01 -0.454877D-02  0.732102D-01
     11  0.439655D-02  0.114904D-01 -0.320777D-01  0.111613D-01 -0.826711D-02
     12  0.428404D-02 -0.119124D-01 -0.718104D-02 -0.113190D-01  0.111398D-01
     13  0.230447D-01 -0.214113D-01 -0.521941D-02 -0.208742D-01 -0.206287D-01
     14 -0.859116D-02  0.140524D-02 -0.140949D-01 -0.501090D-02 -0.749923D-02
     15 -0.215672D-01  0.178148D-01 -0.454990D-02 -0.364396D-01  0.123155D-01
     16 -0.161743D-01 -0.265336D-01  0.332722D-02  0.234213D-01 -0.236884D-01
     17  0.129000D-01 -0.367331D-02 -0.825545D-02 -0.127873D-03  0.171082D-01
     18 -0.293822D-01 -0.136582D-01 -0.233533D-02 -0.168981D-01 -0.442571D-02
     19 -0.519321D-02 -0.245533D-01  0.176124D-01 -0.120385D-01  0.734172D-02
     20  0.111873D-01 -0.153138D-01 -0.300666D-01 -0.300293D-02  0.105065D-02
     21 -0.111044D-01 -0.549423D-02  0.169326D-01 -0.129867D-01 -0.162786D-03
               11            12            13            14            15 
     11  0.106849D+00
     12 -0.153275D-01  0.636932D-01
     13  0.597752D-02 -0.425021D-02  0.146477D+00
     14 -0.229227D-01  0.233634D-01 -0.641609D-02  0.133367D+00
     15 -0.736662D-02 -0.318098D-01 -0.284096D-01  0.133145D-01  0.179097D+00
     16 -0.710468D-03  0.151007D-01 -0.196385D-01  0.184756D-02  0.951810D-02
     17 -0.276005D-01 -0.198363D-01  0.286062D-02 -0.123330D-01 -0.432052D-02
     18  0.983163D-02 -0.234355D-01  0.101878D-01 -0.285686D-02 -0.305590D-01
     19  0.707230D-03 -0.993633D-04 -0.288596D-01  0.144520D-01  0.725343D-02
     20 -0.791573D-02  0.331252D-02 -0.626458D-02 -0.476472D-01  0.364562D-02
     21  0.399606D-02  0.702866D-02 -0.203528D-03 -0.307512D-01 -0.357089D-01
               16            17            18            19            20 
     16  0.123403D+00
     17 -0.663745D-02  0.103287D+00
     18 -0.281732D-01  0.867113D-02  0.153581D+00
     19 -0.218905D-01 -0.155135D-01  0.223101D-02  0.839537D-01
     20  0.586546D-02 -0.228834D-01 -0.951596D-02  0.103412D-01  0.134159D+00
     21  0.929409D-02  0.218085D-01 -0.253286D-01  0.929379D-02 -0.357070D-02
               21 
     21  0.711990D-01
 Leave Link  716 at Thu Dec  7 08:42:19 2023, MaxMem=  1879048192 cpu:               0.4 elap:               0.0
 (Enter /home/sekinelabo/g16/l103.exe)

 GradGradGradGradGradGradGradGradGradGradGradGradGradGradGradGradGradGrad
 Berny optimization.
 Search for a local minimum.
 Step number   1 out of a maximum of    2
 All quantities printed in internal units (Hartrees-Bohrs-Radians)
 Second derivative matrix not updated -- first step.
 ITU=  0
     Eigenvalues ---    0.06594   0.07022   0.07226   0.09314   0.10915
     Eigenvalues ---    0.11215   0.12051   0.14205   0.14918   0.16487
     Eigenvalues ---    0.16755   0.17142   0.19051   0.20333   0.23892
 Angle between quadratic step and forces=  17.95 degrees.
 Linear search not attempted -- first point.
 B after Tr=     0.000000   -0.000000   -0.000000
         Rot=    1.000000   -0.000000   -0.000000   -0.000000 Ang=   0.00 deg.
 Variable       Old X    -DE/DX   Delta X   Delta X   Delta X     New X
                                 (Linear)    (Quad)   (Total)
    X1       26.52079  -0.00161   0.00000  -0.00624  -0.00624  26.51455
    Y1       25.86468   0.00532   0.00000   0.05202   0.05202  25.91670
    Z1       24.36613  -0.00206   0.00000  -0.01631  -0.01631  24.34982
    X2       26.76551  -0.00108   0.00000  -0.00405  -0.00405  26.76146
    Y2       20.12369  -0.00448   0.00000  -0.03971  -0.03971  20.08398
    Z2       25.56951  -0.00009   0.00000   0.01145   0.01145  25.58096
    X3       17.35659  -0.00070   0.00000  -0.01966  -0.01966  17.33693
    Y3       21.75491  -0.00066   0.00000  -0.00733  -0.00733  21.74758
    Z3       19.78619  -0.00093   0.00000  -0.00544  -0.00544  19.78074
    X4       20.57175   0.00195   0.00000   0.01564   0.01564  20.58739
    Y4       26.99115   0.00450   0.00000   0.05112   0.05112  27.04227
    Z4       20.40715   0.00023   0.00000  -0.00248  -0.00248  20.40468
    X5       20.74409  -0.00081   0.00000  -0.00359  -0.00359  20.74050
    Y5       22.80219   0.00565   0.00000   0.02339   0.02339  22.82558
    Z5       25.18929   0.00504   0.00000   0.02718   0.02718  25.21647
    X6       24.42698   0.00097   0.00000   0.01108   0.01108  24.43806
    Y6       22.11471  -0.00056   0.00000  -0.00426  -0.00426  22.11044
    Z6       19.34966  -0.00098   0.00000  -0.01040  -0.01040  19.33926
    X7       21.08254   0.00128   0.00000   0.00682   0.00682  21.08936
    Y7       17.81726  -0.00977   0.00000  -0.07523  -0.07523  17.74203
    Z7       22.80030  -0.00121   0.00000  -0.00400  -0.00400  22.79630
         Item               Value     Threshold  Converged?
 Maximum Force            0.009767     0.000450     NO 
 RMS     Force            0.003386     0.000300     NO 
 Maximum Displacement     0.075230     0.001800     NO 
 RMS     Displacement     0.027027     0.001200     NO 
 Predicted change in Energy=-9.142279D-04
 GradGradGradGradGradGradGradGradGradGradGradGradGradGradGradGradGradGrad

 Leave Link  103 at Thu Dec  7 08:42:19 2023, MaxMem=  1879048192 cpu:               0.2 elap:               0.0
 (Enter /home/sekinelabo/g16/l9999.exe)
 1\1\GINC-SEKINELABO-XA7R-R37\Force\UB3LYP\6-311+G(d)\Na7(2)\SEKINELABO
 \07-Dec-2023\0\\#P B3LYP/6-311+g(d) force\\DPGEN\\0,2\Na,14.0342,13.68
 7,12.894\Na,14.1637,10.649,13.5308\Na,9.18471,11.5122,10.4704\Na,10.88
 61,14.2831,10.799\Na,10.9773,12.0664,13.3296\Na,12.9262,11.7026,10.239
 4\Na,11.1564,9.42849,12.0654\\Version=ES64L-G16RevB.01\State=2-A\HF=-1
 136.1354703\S2=0.758029\S2-1=0.\S2A=0.750042\RMSD=6.357e-09\RMSF=3.386
 e-03\Dipole=0.0347912,0.0138821,-0.0455125\Quadrupole=4.046453,-1.1550
 731,-2.8913799,0.0473989,6.4733209,-0.4489431\PG=C01 [X(Na7)]\\@


 ... I FELL INTO A REVERIE ... THE ATOMS WERE GAMBOLING BEFORE MY EYES
 ... I SAW HOW TWO SMALL ONES UNITED TO FORM A PAIR;
 HOW THE LARGER ONES SEIZED TWO OF THE SMALLER ONES;
 HOW STILL LARGER ONES KEPT HOLD OF THREE OR FOUR
 SMALLER ONES ... I SAW HOW THE LARGER ONES FORMED A CHAIN ...
 THIS WAS THE ORIGIN OF THE STRUCTURE THEORY.

                                   -- C.F.KEKULE VON STRADONITZ
 Job cpu time:       0 days  0 hours  3 minutes 46.8 seconds.
 Elapsed time:       0 days  0 hours  0 minutes 19.0 seconds.
 File lengths (MBytes):  RWF=     32 Int=      0 D2E=      0 Chk=      4 Scr=      1
 Normal termination of Gaussian 16 at Thu Dec  7 08:42:19 2023.
