 Set GAUSS_MDEF to "14GB".
 Entering Gaussian System, Link 0=g16
 Initial command:
 /home/sekinelabo/g16/l1.exe "/home/sekinelabo/g16temp/Gau-75125.inp" -scrdir="/home/sekinelabo/g16temp/"
 Entering Link 1 = /home/sekinelabo/g16/l1.exe PID=     75127.
  
 Copyright (c) 1988-2017, Gaussian, Inc.  All Rights Reserved.
  
 This is part of the Gaussian(R) 16 program.  It is based on
 the Gaussian(R) 09 system (copyright 2009, Gaussian, Inc.),
 the Gaussian(R) 03 system (copyright 2003, Gaussian, Inc.),
 the Gaussian(R) 98 system (copyright 1998, Gaussian, Inc.),
 the Gaussian(R) 94 system (copyright 1995, Gaussian, Inc.),
 the Gaussian 92(TM) system (copyright 1992, Gaussian, Inc.),
 the Gaussian 90(TM) system (copyright 1990, Gaussian, Inc.),
 the Gaussian 88(TM) system (copyright 1988, Gaussian, Inc.),
 the Gaussian 86(TM) system (copyright 1986, Carnegie Mellon
 University), and the Gaussian 82(TM) system (copyright 1983,
 Carnegie Mellon University). Gaussian is a federally registered
 trademark of Gaussian, Inc.
  
 This software contains proprietary and confidential information,
 including trade secrets, belonging to Gaussian, Inc.
  
 This software is provided under written license and may be
 used, copied, transmitted, or stored only in accord with that
 written license.
  
 The following legend is applicable only to US Government
 contracts under FAR:
  
                    RESTRICTED RIGHTS LEGEND
  
 Use, reproduction and disclosure by the US Government is
 subject to restrictions as set forth in subparagraphs (a)
 and (c) of the Commercial Computer Software - Restricted
 Rights clause in FAR 52.227-19.
  
 Gaussian, Inc.
 340 Quinnipiac St., Bldg. 40, Wallingford CT 06492
  
  
 ---------------------------------------------------------------
 Warning -- This program may not be used in any manner that
 competes with the business of Gaussian, Inc. or will provide
 assistance to any competitor of Gaussian, Inc.  The licensee
 of this program is prohibited from giving any competitor of
 Gaussian, Inc. access to this program.  By using this program,
 the user acknowledges that Gaussian, Inc. is engaged in the
 business of creating and licensing software in the field of
 computational chemistry and represents and warrants to the
 licensee that it is not a competitor of Gaussian, Inc. and that
 it will not use this program in any manner prohibited above.
 ---------------------------------------------------------------
  

 Cite this work as:
 Gaussian 16, Revision B.01,
 M. J. Frisch, G. W. Trucks, H. B. Schlegel, G. E. Scuseria, 
 M. A. Robb, J. R. Cheeseman, G. Scalmani, V. Barone, 
 G. A. Petersson, H. Nakatsuji, X. Li, M. Caricato, A. V. Marenich, 
 J. Bloino, B. G. Janesko, R. Gomperts, B. Mennucci, H. P. Hratchian, 
 J. V. Ortiz, A. F. Izmaylov, J. L. Sonnenberg, D. Williams-Young, 
 F. Ding, F. Lipparini, F. Egidi, J. Goings, B. Peng, A. Petrone, 
 T. Henderson, D. Ranasinghe, V. G. Zakrzewski, J. Gao, N. Rega, 
 G. Zheng, W. Liang, M. Hada, M. Ehara, K. Toyota, R. Fukuda, 
 J. Hasegawa, M. Ishida, T. Nakajima, Y. Honda, O. Kitao, H. Nakai, 
 T. Vreven, K. Throssell, J. A. Montgomery, Jr., J. E. Peralta, 
 F. Ogliaro, M. J. Bearpark, J. J. Heyd, E. N. Brothers, K. N. Kudin, 
 V. N. Staroverov, T. A. Keith, R. Kobayashi, J. Normand, 
 K. Raghavachari, A. P. Rendell, J. C. Burant, S. S. Iyengar, 
 J. Tomasi, M. Cossi, J. M. Millam, M. Klene, C. Adamo, R. Cammi, 
 J. W. Ochterski, R. L. Martin, K. Morokuma, O. Farkas, 
 J. B. Foresman, and D. J. Fox, Gaussian, Inc., Wallingford CT, 2016.
 
 ******************************************
 Gaussian 16:  ES64L-G16RevB.01 20-Dec-2017
                28-Nov-2023 
 ******************************************
 %nproc=15
 Will use up to   15 processors via shared memory.
 -------------------------
 #P B3LYP/6-311+g(d) force
 -------------------------
 1/10=7,30=1,38=1/1,3;
 2/12=2,17=6,18=5,40=1/2;
 3/5=4,6=6,7=11,11=2,25=1,30=1,71=1,74=-5/1,2,3;
 4//1;
 5/5=2,38=5/2;
 6/7=2,8=2,9=2,10=2,28=1/1;
 7/29=1/1,2,3,16;
 1/10=7,30=1/3;
 99//99;
 Leave Link    1 at Tue Nov 28 20:34:05 2023, MaxMem=           0 cpu:               0.3 elap:               0.0
 (Enter /home/sekinelabo/g16/l101.exe)
 -----
 DPGEN
 -----
 Symbolic Z-matrix:
 Charge =  0 Multiplicity = 2
 Na                    13.2687   17.1792   16.3435 
 Na                    12.9257   14.7857   13.9572 
 Na                    15.124    14.5014   16.6515 
 Na                    18.2293   14.2405   15.2955 
 Na                    15.9492   17.2093   17.9522 
 Na                    15.5745   16.261    13.9566 
 Na                    16.354    13.2484   13.269 
 
 ITRead=  0  0  0  0  0  0  0
 MicOpt= -1 -1 -1 -1 -1 -1 -1
 NAtoms=      7 NQM=        7 NQMF=       0 NMMI=      0 NMMIF=      0
                NMic=       0 NMicF=      0.
                    Isotopes and Nuclear Properties:
 (Nuclear quadrupole moments (NQMom) in fm**2, nuclear magnetic moments (NMagM)
  in nuclear magnetons)

  Atom         1           2           3           4           5           6           7
 IAtWgt=          23          23          23          23          23          23          23
 AtmWgt=  22.9897697  22.9897697  22.9897697  22.9897697  22.9897697  22.9897697  22.9897697
 NucSpn=           3           3           3           3           3           3           3
 AtZEff=  -0.0000000  -0.0000000  -0.0000000  -0.0000000  -0.0000000  -0.0000000  -0.0000000
 NQMom=   10.4000000  10.4000000  10.4000000  10.4000000  10.4000000  10.4000000  10.4000000
 NMagM=    2.2175200   2.2175200   2.2175200   2.2175200   2.2175200   2.2175200   2.2175200
 AtZNuc=  11.0000000  11.0000000  11.0000000  11.0000000  11.0000000  11.0000000  11.0000000
 Leave Link  101 at Tue Nov 28 20:34:06 2023, MaxMem=  1879048192 cpu:               2.4 elap:               0.2
 (Enter /home/sekinelabo/g16/l103.exe)

 GradGradGradGradGradGradGradGradGradGradGradGradGradGradGradGradGradGrad
 Berny optimization.
 Initialization pass.
 Trust Radius=3.00D-01 FncErr=1.00D-07 GrdErr=1.00D-07 EigMax=2.50D+02 EigMin=1.00D-04
 Number of steps in this run=      2 maximum allowed number of steps=      2.
 GradGradGradGradGradGradGradGradGradGradGradGradGradGradGradGradGradGrad

 Leave Link  103 at Tue Nov 28 20:34:06 2023, MaxMem=  1879048192 cpu:               0.2 elap:               0.0
 (Enter /home/sekinelabo/g16/l202.exe)
                          Input orientation:                          
 ---------------------------------------------------------------------
 Center     Atomic      Atomic             Coordinates (Angstroms)
 Number     Number       Type             X           Y           Z
 ---------------------------------------------------------------------
      1         11           0       13.268700   17.179200   16.343500
      2         11           0       12.925700   14.785700   13.957200
      3         11           0       15.124000   14.501400   16.651500
      4         11           0       18.229300   14.240500   15.295500
      5         11           0       15.949200   17.209300   17.952200
      6         11           0       15.574500   16.261000   13.956600
      7         11           0       16.354000   13.248400   13.269000
 ---------------------------------------------------------------------
                    Distance matrix (angstroms):
                    1          2          3          4          5
     1  Na   0.000000
     2  Na   3.397193   0.000000
     3  Na   3.272249   3.488926   0.000000
     4  Na   5.860189   5.496950   3.398484   0.000000
     5  Na   3.126324   5.565556   3.115365   4.590282   0.000000
     6  Na   3.443413   3.031939   3.249866   3.594863   4.123650
     7  Na   5.867096   3.819706   3.811065   2.933891   6.146947
                    6          7
     6  Na   0.000000
     7  Na   3.186875   0.000000
 Stoichiometry    Na7(2)
 Framework group  C1[X(Na7)]
 Deg. of freedom    15
 Full point group                 C1      NOp   1
 Largest Abelian subgroup         C1      NOp   1
 Largest concise Abelian subgroup C1      NOp   1
                         Standard orientation:                         
 ---------------------------------------------------------------------
 Center     Atomic      Atomic             Coordinates (Angstroms)
 Number     Number       Type             X           Y           Z
 ---------------------------------------------------------------------
      1         11           0       -2.788021    0.928340    0.187386
      2         11           0       -0.027746    2.817636   -0.406214
      3         11           0       -0.339816   -0.496605   -1.450734
      4         11           0        2.167921   -2.197456    0.088116
      5         11           0       -2.421948   -2.176200    0.145882
      6         11           0        0.348283    0.534778    1.553330
      7         11           0        3.061328    0.589505   -0.117767
 ---------------------------------------------------------------------
 Rotational constants (GHZ):           0.9157137           0.6720805           0.4657988
 Leave Link  202 at Tue Nov 28 20:34:06 2023, MaxMem=  1879048192 cpu:               0.0 elap:               0.0
 (Enter /home/sekinelabo/g16/l301.exe)
 Standard basis: 6-311+G(d) (5D, 7F)
 Ernie: Thresh=  0.10000D-02 Tol=  0.10000D-05 Strict=F.
 There are   217 symmetry adapted cartesian basis functions of A   symmetry.
 There are   210 symmetry adapted basis functions of A   symmetry.
   210 basis functions,   350 primitive gaussians,   217 cartesian basis functions
    39 alpha electrons       38 beta electrons
       nuclear repulsion energy       354.2381781409 Hartrees.
 IExCor=  402 DFT=T Ex+Corr=B3LYP ExCW=0 ScaHFX=  0.200000
 ScaDFX=  0.800000  0.720000  1.000000  0.810000 ScalE2=  1.000000  1.000000
 IRadAn=      5 IRanWt=     -1 IRanGd=            0 ICorTp=0 IEmpDi=  4
 NAtoms=    7 NActive=    7 NUniq=    7 SFac= 1.00D+00 NAtFMM=   60 NAOKFM=F Big=F
 Integral buffers will be    131072 words long.
 Raffenetti 2 integral format.
 Two-electron integral symmetry is turned on.
 Leave Link  301 at Tue Nov 28 20:34:06 2023, MaxMem=  1879048192 cpu:               0.5 elap:               0.0
 (Enter /home/sekinelabo/g16/l302.exe)
 NPDir=0 NMtPBC=     1 NCelOv=     1 NCel=       1 NClECP=     1 NCelD=      1
         NCelK=      1 NCelE2=     1 NClLst=     1 CellRange=     0.0.
 One-electron integrals computed using PRISM.
 One-electron integral symmetry used in STVInt
 NBasis=   210 RedAO= T EigKep=  3.76D-06  NBF=   210
 NBsUse=   210 1.00D-06 EigRej= -1.00D+00 NBFU=   210
 Precomputing XC quadrature grid using
 IXCGrd= 4 IRadAn=           5 IRanWt=          -1 IRanGd=           0 AccXCQ= 0.00D+00.
 Generated NRdTot=       0 NPtTot=           0 NUsed=           0 NTot=          32
 NSgBfM=   211   211   211   211   211 MxSgAt=     7 MxSgA2=     7.
 Leave Link  302 at Tue Nov 28 20:34:06 2023, MaxMem=  1879048192 cpu:               1.8 elap:               0.1
 (Enter /home/sekinelabo/g16/l303.exe)
 DipDrv:  MaxL=1.
 Leave Link  303 at Tue Nov 28 20:34:06 2023, MaxMem=  1879048192 cpu:               0.5 elap:               0.0
 (Enter /home/sekinelabo/g16/l401.exe)
 ExpMin= 7.60D-03 ExpMax= 3.62D+04 ExpMxC= 1.21D+03 IAcc=3 IRadAn=         5 AccDes= 0.00D+00
 Harris functional with IExCor=  402 and IRadAn=       5 diagonalized for initial guess.
 HarFok:  IExCor=  402 AccDes= 0.00D+00 IRadAn=         5 IDoV= 1 UseB2=F ITyADJ=14
 ICtDFT=  3500011 ScaDFX=  1.000000  1.000000  1.000000  1.000000
 FoFCou: FMM=F IPFlag=           0 FMFlag=      100000 FMFlg1=           0
         NFxFlg=           0 DoJE=T BraDBF=F KetDBF=T FulRan=T
         wScrn=  0.000000 ICntrl=       500 IOpCl=  0 I1Cent=   200000004 NGrid=           0
         NMat0=    1 NMatS0=      1 NMatT0=    0 NMatD0=    1 NMtDS0=    0 NMtDT0=    0
 Petite list used in FoFCou.
 Harris En= -1135.89811888959    
 JPrj=0 DoOrth=F DoCkMO=F.
 Initial guess <Sx>= 0.0000 <Sy>= 0.0000 <Sz>= 0.5000 <S**2>= 0.7500 S= 0.5000
 Leave Link  401 at Tue Nov 28 20:34:06 2023, MaxMem=  1879048192 cpu:               4.3 elap:               0.3
 (Enter /home/sekinelabo/g16/l502.exe)
 Keep R1 and R2 ints in memory in canonical form, NReq=506573335.
 FoFCou: FMM=F IPFlag=           0 FMFlag=           0 FMFlg1=           0
         NFxFlg=           0 DoJE=F BraDBF=F KetDBF=F FulRan=T
         wScrn=  0.000000 ICntrl=       600 IOpCl=  0 I1Cent=           0 NGrid=           0
         NMat0=    1 NMatS0=  22155 NMatT0=    0 NMatD0=    1 NMtDS0=    0 NMtDT0=    0
 Symmetry not used in FoFCou.
 Two-electron integral symmetry not used.
 UHF open shell SCF:
 Using DIIS extrapolation, IDIIS=  1040.
 NGot=  1879048192 LenX=  1388082565 LenY=  1388035035
 Requested convergence on RMS density matrix=1.00D-08 within 128 cycles.
 Requested convergence on MAX density matrix=1.00D-06.
 Requested convergence on             energy=1.00D-06.
 No special actions if energy rises.

 Cycle   1  Pass 1  IDiag  1:
 E= -1136.08525740606    
 DIIS: error= 1.31D-02 at cycle   1 NSaved=   1.
 NSaved= 1 IEnMin= 1 EnMin= -1136.08525740606     IErMin= 1 ErrMin= 1.31D-02
 ErrMax= 1.31D-02  0.00D+00 EMaxC= 1.00D-01 BMatC= 1.98D-01 BMatP= 1.98D-01
 IDIUse=3 WtCom= 8.69D-01 WtEn= 1.31D-01
 Coeff-Com:  0.100D+01
 Coeff-En:   0.100D+01
 Coeff:      0.100D+01
 Gap=     0.028 Goal=   None    Shift=    0.000
 Gap=     0.060 Goal=   None    Shift=    0.000
 GapD=    0.028 DampG=0.250 DampE=0.500 DampFc=0.2500 IDamp=-1.
 Damping current iteration by 2.50D-01
 RMSDP=3.51D-02 MaxDP=2.69D+00              OVMax= 2.68D-01

 Cycle   2  Pass 1  IDiag  1:
 E= -1136.09995021747     Delta-E=       -0.014692811412 Rises=F Damp=T
 DIIS: error= 9.15D-03 at cycle   2 NSaved=   2.
 NSaved= 2 IEnMin= 2 EnMin= -1136.09995021747     IErMin= 2 ErrMin= 9.15D-03
 ErrMax= 9.15D-03  0.00D+00 EMaxC= 1.00D-01 BMatC= 7.46D-02 BMatP= 1.98D-01
 IDIUse=3 WtCom= 9.09D-01 WtEn= 9.15D-02
 Coeff-Com: -0.125D+01 0.225D+01
 Coeff-En:   0.000D+00 0.100D+01
 Coeff:     -0.113D+01 0.213D+01
 Gap=     0.045 Goal=   None    Shift=    0.000
 Gap=     0.067 Goal=   None    Shift=    0.000
 RMSDP=2.43D-02 MaxDP=2.28D+00 DE=-1.47D-02 OVMax= 1.75D-01

 Cycle   3  Pass 1  IDiag  1:
 E= -1136.12385281309     Delta-E=       -0.023902595617 Rises=F Damp=F
 DIIS: error= 3.32D-03 at cycle   3 NSaved=   3.
 NSaved= 3 IEnMin= 3 EnMin= -1136.12385281309     IErMin= 3 ErrMin= 3.32D-03
 ErrMax= 3.32D-03  0.00D+00 EMaxC= 1.00D-01 BMatC= 3.81D-03 BMatP= 7.46D-02
 IDIUse=3 WtCom= 9.67D-01 WtEn= 3.32D-02
 Coeff-Com: -0.254D+00 0.458D+00 0.796D+00
 Coeff-En:   0.000D+00 0.000D+00 0.100D+01
 Coeff:     -0.245D+00 0.443D+00 0.803D+00
 Gap=     0.037 Goal=   None    Shift=    0.000
 Gap=     0.059 Goal=   None    Shift=    0.000
 RMSDP=8.98D-03 MaxDP=1.03D+00 DE=-2.39D-02 OVMax= 8.70D-02

 Cycle   4  Pass 1  IDiag  1:
 E= -1136.12345003186     Delta-E=        0.000402781233 Rises=F Damp=F
 DIIS: error= 3.30D-03 at cycle   4 NSaved=   4.
 NSaved= 4 IEnMin= 3 EnMin= -1136.12385281309     IErMin= 4 ErrMin= 3.30D-03
 ErrMax= 3.30D-03  0.00D+00 EMaxC= 1.00D-01 BMatC= 3.61D-03 BMatP= 3.81D-03
 IDIUse=3 WtCom= 9.67D-01 WtEn= 3.30D-02
 Coeff-Com: -0.116D-02 0.493D-02 0.492D+00 0.504D+00
 Coeff-En:   0.000D+00 0.000D+00 0.527D+00 0.473D+00
 Coeff:     -0.112D-02 0.477D-02 0.493D+00 0.503D+00
 Gap=     0.040 Goal=   None    Shift=    0.000
 Gap=     0.060 Goal=   None    Shift=    0.000
 RMSDP=2.90D-03 MaxDP=2.60D-01 DE= 4.03D-04 OVMax= 6.07D-02

 Cycle   5  Pass 1  IDiag  1:
 E= -1136.12639371602     Delta-E=       -0.002943684162 Rises=F Damp=F
 DIIS: error= 1.08D-03 at cycle   5 NSaved=   5.
 NSaved= 5 IEnMin= 5 EnMin= -1136.12639371602     IErMin= 5 ErrMin= 1.08D-03
 ErrMax= 1.08D-03  0.00D+00 EMaxC= 1.00D-01 BMatC= 2.96D-04 BMatP= 3.61D-03
 IDIUse=3 WtCom= 9.89D-01 WtEn= 1.08D-02
 Coeff-Com:  0.285D-02-0.438D-02 0.309D+00 0.339D+00 0.354D+00
 Coeff-En:   0.000D+00 0.000D+00 0.000D+00 0.424D-01 0.958D+00
 Coeff:      0.282D-02-0.434D-02 0.305D+00 0.336D+00 0.360D+00
 Gap=     0.040 Goal=   None    Shift=    0.000
 Gap=     0.059 Goal=   None    Shift=    0.000
 RMSDP=6.99D-04 MaxDP=7.09D-02 DE=-2.94D-03 OVMax= 1.87D-02

 Cycle   6  Pass 1  IDiag  1:
 E= -1136.12674947166     Delta-E=       -0.000355755642 Rises=F Damp=F
 DIIS: error= 1.35D-04 at cycle   6 NSaved=   6.
 NSaved= 6 IEnMin= 6 EnMin= -1136.12674947166     IErMin= 6 ErrMin= 1.35D-04
 ErrMax= 1.35D-04  0.00D+00 EMaxC= 1.00D-01 BMatC= 4.39D-06 BMatP= 2.96D-04
 IDIUse=3 WtCom= 9.99D-01 WtEn= 1.35D-03
 Coeff-Com: -0.156D-02 0.169D-02 0.502D-01 0.576D-01 0.119D+00 0.773D+00
 Coeff-En:   0.000D+00 0.000D+00 0.000D+00 0.000D+00 0.000D+00 0.100D+01
 Coeff:     -0.156D-02 0.169D-02 0.501D-01 0.576D-01 0.119D+00 0.773D+00
 Gap=     0.040 Goal=   None    Shift=    0.000
 Gap=     0.059 Goal=   None    Shift=    0.000
 RMSDP=6.72D-04 MaxDP=1.01D-01 DE=-3.56D-04 OVMax= 4.02D-03

 Cycle   7  Pass 1  IDiag  1:
 E= -1136.12675062009     Delta-E=       -0.000001148424 Rises=F Damp=F
 DIIS: error= 1.10D-04 at cycle   7 NSaved=   7.
 NSaved= 7 IEnMin= 7 EnMin= -1136.12675062009     IErMin= 7 ErrMin= 1.10D-04
 ErrMax= 1.10D-04  0.00D+00 EMaxC= 1.00D-01 BMatC= 4.05D-06 BMatP= 4.39D-06
 IDIUse=3 WtCom= 9.99D-01 WtEn= 1.10D-03
 Coeff-Com: -0.199D-02 0.247D-02-0.248D-01-0.253D-01 0.171D-01 0.571D+00
 Coeff-Com:  0.461D+00
 Coeff-En:   0.000D+00 0.000D+00 0.000D+00 0.000D+00 0.000D+00 0.449D+00
 Coeff-En:   0.551D+00
 Coeff:     -0.199D-02 0.246D-02-0.247D-01-0.253D-01 0.171D-01 0.571D+00
 Coeff:      0.461D+00
 Gap=     0.041 Goal=   None    Shift=    0.000
 Gap=     0.059 Goal=   None    Shift=    0.000
 RMSDP=2.74D-04 MaxDP=3.72D-02 DE=-1.15D-06 OVMax= 2.45D-03

 Cycle   8  Pass 1  IDiag  1:
 E= -1136.12675581237     Delta-E=       -0.000005192288 Rises=F Damp=F
 DIIS: error= 1.64D-05 at cycle   8 NSaved=   8.
 NSaved= 8 IEnMin= 8 EnMin= -1136.12675581237     IErMin= 8 ErrMin= 1.64D-05
 ErrMax= 1.64D-05  0.00D+00 EMaxC= 1.00D-01 BMatC= 6.45D-08 BMatP= 4.05D-06
 IDIUse=1 WtCom= 1.00D+00 WtEn= 0.00D+00
 Coeff-Com:  0.152D-03-0.214D-03-0.687D-02-0.723D-02-0.938D-02-0.329D-01
 Coeff-Com:  0.520D-01 0.100D+01
 Coeff:      0.152D-03-0.214D-03-0.687D-02-0.723D-02-0.938D-02-0.329D-01
 Coeff:      0.520D-01 0.100D+01
 Gap=     0.041 Goal=   None    Shift=    0.000
 Gap=     0.059 Goal=   None    Shift=    0.000
 RMSDP=1.72D-04 MaxDP=2.59D-02 DE=-5.19D-06 OVMax= 7.26D-04

 Cycle   9  Pass 1  IDiag  1:
 E= -1136.12675605935     Delta-E=       -0.000000246974 Rises=F Damp=F
 DIIS: error= 7.29D-06 at cycle   9 NSaved=   9.
 NSaved= 9 IEnMin= 9 EnMin= -1136.12675605935     IErMin= 9 ErrMin= 7.29D-06
 ErrMax= 7.29D-06  0.00D+00 EMaxC= 1.00D-01 BMatC= 1.86D-08 BMatP= 6.45D-08
 IDIUse=1 WtCom= 1.00D+00 WtEn= 0.00D+00
 Coeff-Com:  0.420D-03-0.538D-03 0.933D-03 0.905D-03-0.676D-02-0.821D-01
 Coeff-Com: -0.462D-01 0.262D+00 0.871D+00
 Coeff:      0.420D-03-0.538D-03 0.933D-03 0.905D-03-0.676D-02-0.821D-01
 Coeff:     -0.462D-01 0.262D+00 0.871D+00
 Gap=     0.041 Goal=   None    Shift=    0.000
 Gap=     0.059 Goal=   None    Shift=    0.000
 RMSDP=6.00D-05 MaxDP=7.92D-03 DE=-2.47D-07 OVMax= 4.04D-04

 Cycle  10  Pass 1  IDiag  1:
 E= -1136.12675614222     Delta-E=       -0.000000082875 Rises=F Damp=F
 DIIS: error= 4.34D-06 at cycle  10 NSaved=  10.
 NSaved=10 IEnMin=10 EnMin= -1136.12675614222     IErMin=10 ErrMin= 4.34D-06
 ErrMax= 4.34D-06  0.00D+00 EMaxC= 1.00D-01 BMatC= 6.70D-09 BMatP= 1.86D-08
 IDIUse=1 WtCom= 1.00D+00 WtEn= 0.00D+00
 Coeff-Com:  0.144D-03-0.178D-03 0.202D-02 0.198D-02-0.508D-03-0.259D-01
 Coeff-Com: -0.302D-01-0.135D+00 0.306D+00 0.882D+00
 Coeff:      0.144D-03-0.178D-03 0.202D-02 0.198D-02-0.508D-03-0.259D-01
 Coeff:     -0.302D-01-0.135D+00 0.306D+00 0.882D+00
 Gap=     0.041 Goal=   None    Shift=    0.000
 Gap=     0.059 Goal=   None    Shift=    0.000
 RMSDP=2.96D-05 MaxDP=4.83D-03 DE=-8.29D-08 OVMax= 3.20D-04

 Cycle  11  Pass 1  IDiag  1:
 E= -1136.12675617878     Delta-E=       -0.000000036556 Rises=F Damp=F
 DIIS: error= 2.88D-06 at cycle  11 NSaved=  11.
 NSaved=11 IEnMin=11 EnMin= -1136.12675617878     IErMin=11 ErrMin= 2.88D-06
 ErrMax= 2.88D-06  0.00D+00 EMaxC= 1.00D-01 BMatC= 2.63D-09 BMatP= 6.70D-09
 IDIUse=1 WtCom= 1.00D+00 WtEn= 0.00D+00
 Coeff-Com: -0.130D-03 0.173D-03 0.639D-03 0.545D-03 0.300D-02 0.201D-01
 Coeff-Com:  0.527D-02-0.164D+00-0.265D+00 0.378D+00 0.102D+01
 Coeff:     -0.130D-03 0.173D-03 0.639D-03 0.545D-03 0.300D-02 0.201D-01
 Coeff:      0.527D-02-0.164D+00-0.265D+00 0.378D+00 0.102D+01
 Gap=     0.041 Goal=   None    Shift=    0.000
 Gap=     0.059 Goal=   None    Shift=    0.000
 RMSDP=1.68D-05 MaxDP=1.62D-03 DE=-3.66D-08 OVMax= 2.97D-04

 Cycle  12  Pass 1  IDiag  1:
 E= -1136.12675619581     Delta-E=       -0.000000017028 Rises=F Damp=F
 DIIS: error= 8.57D-07 at cycle  12 NSaved=  12.
 NSaved=12 IEnMin=12 EnMin= -1136.12675619581     IErMin=12 ErrMin= 8.57D-07
 ErrMax= 8.57D-07  0.00D+00 EMaxC= 1.00D-01 BMatC= 4.73D-10 BMatP= 2.63D-09
 IDIUse=1 WtCom= 1.00D+00 WtEn= 0.00D+00
 Coeff-Com: -0.887D-04 0.115D-03-0.826D-04-0.118D-03 0.150D-02 0.143D-01
 Coeff-Com:  0.744D-02-0.463D-01-0.168D+00-0.312D-01 0.410D+00 0.813D+00
 Coeff:     -0.887D-04 0.115D-03-0.826D-04-0.118D-03 0.150D-02 0.143D-01
 Coeff:      0.744D-02-0.463D-01-0.168D+00-0.312D-01 0.410D+00 0.813D+00
 Gap=     0.041 Goal=   None    Shift=    0.000
 Gap=     0.059 Goal=   None    Shift=    0.000
 RMSDP=6.49D-06 MaxDP=6.91D-04 DE=-1.70D-08 OVMax= 1.08D-04

 Cycle  13  Pass 1  IDiag  1:
 E= -1136.12675619794     Delta-E=       -0.000000002129 Rises=F Damp=F
 DIIS: error= 3.30D-07 at cycle  13 NSaved=  13.
 NSaved=13 IEnMin=13 EnMin= -1136.12675619794     IErMin=13 ErrMin= 3.30D-07
 ErrMax= 3.30D-07  0.00D+00 EMaxC= 1.00D-01 BMatC= 4.90D-11 BMatP= 4.73D-10
 IDIUse=1 WtCom= 1.00D+00 WtEn= 0.00D+00
 Coeff-Com:  0.599D-05-0.916D-05-0.862D-04-0.721D-04-0.160D-03-0.734D-03
 Coeff-Com: -0.393D-04 0.217D-01 0.616D-02-0.763D-01-0.897D-01 0.155D+00
 Coeff-Com:  0.984D+00
 Coeff:      0.599D-05-0.916D-05-0.862D-04-0.721D-04-0.160D-03-0.734D-03
 Coeff:     -0.393D-04 0.217D-01 0.616D-02-0.763D-01-0.897D-01 0.155D+00
 Coeff:      0.984D+00
 Gap=     0.041 Goal=   None    Shift=    0.000
 Gap=     0.059 Goal=   None    Shift=    0.000
 RMSDP=2.78D-06 MaxDP=3.43D-04 DE=-2.13D-09 OVMax= 3.98D-05

 Cycle  14  Pass 1  IDiag  1:
 E= -1136.12675619820     Delta-E=       -0.000000000265 Rises=F Damp=F
 DIIS: error= 1.41D-07 at cycle  14 NSaved=  14.
 NSaved=14 IEnMin=14 EnMin= -1136.12675619820     IErMin=14 ErrMin= 1.41D-07
 ErrMax= 1.41D-07  0.00D+00 EMaxC= 1.00D-01 BMatC= 4.55D-12 BMatP= 4.90D-11
 IDIUse=1 WtCom= 1.00D+00 WtEn= 0.00D+00
 Coeff-Com:  0.867D-05-0.113D-04-0.234D-04-0.116D-04-0.186D-03-0.130D-02
 Coeff-Com: -0.523D-03 0.528D-02 0.177D-01 0.402D-02-0.465D-01-0.907D-01
 Coeff-Com: -0.299D-01 0.114D+01
 Coeff:      0.867D-05-0.113D-04-0.234D-04-0.116D-04-0.186D-03-0.130D-02
 Coeff:     -0.523D-03 0.528D-02 0.177D-01 0.402D-02-0.465D-01-0.907D-01
 Coeff:     -0.299D-01 0.114D+01
 Gap=     0.041 Goal=   None    Shift=    0.000
 Gap=     0.059 Goal=   None    Shift=    0.000
 RMSDP=1.21D-06 MaxDP=2.05D-04 DE=-2.65D-10 OVMax= 1.15D-05

 Cycle  15  Pass 1  IDiag  1:
 E= -1136.12675619822     Delta-E=       -0.000000000022 Rises=F Damp=F
 DIIS: error= 3.60D-08 at cycle  15 NSaved=  15.
 NSaved=15 IEnMin=15 EnMin= -1136.12675619822     IErMin=15 ErrMin= 3.60D-08
 ErrMax= 3.60D-08  0.00D+00 EMaxC= 1.00D-01 BMatC= 5.47D-13 BMatP= 4.55D-12
 IDIUse=1 WtCom= 1.00D+00 WtEn= 0.00D+00
 Coeff-Com: -0.127D-05 0.185D-05 0.157D-04 0.110D-04 0.445D-04 0.144D-03
 Coeff-Com:  0.178D-05-0.325D-02-0.347D-02 0.899D-02 0.201D-01-0.856D-02
 Coeff-Com: -0.120D+00-0.152D+00 0.126D+01
 Coeff:     -0.127D-05 0.185D-05 0.157D-04 0.110D-04 0.445D-04 0.144D-03
 Coeff:      0.178D-05-0.325D-02-0.347D-02 0.899D-02 0.201D-01-0.856D-02
 Coeff:     -0.120D+00-0.152D+00 0.126D+01
 Gap=     0.041 Goal=   None    Shift=    0.000
 Gap=     0.059 Goal=   None    Shift=    0.000
 RMSDP=5.92D-07 MaxDP=1.13D-04 DE=-2.23D-11 OVMax= 4.25D-06

 Cycle  16  Pass 1  IDiag  1:
 E= -1136.12675619822     Delta-E=        0.000000000001 Rises=F Damp=F
 DIIS: error= 1.54D-08 at cycle  16 NSaved=  16.
 NSaved=16 IEnMin=15 EnMin= -1136.12675619822     IErMin=16 ErrMin= 1.54D-08
 ErrMax= 1.54D-08  0.00D+00 EMaxC= 1.00D-01 BMatC= 9.15D-14 BMatP= 5.47D-13
 IDIUse=1 WtCom= 1.00D+00 WtEn= 0.00D+00
 Coeff-Com: -0.886D-06 0.116D-05 0.409D-05 0.210D-05 0.181D-04 0.108D-03
 Coeff-Com:  0.335D-04-0.318D-03-0.134D-02-0.121D-02 0.369D-02 0.932D-02
 Coeff-Com:  0.841D-02-0.120D+00 0.156D-01 0.109D+01
 Coeff:     -0.886D-06 0.116D-05 0.409D-05 0.210D-05 0.181D-04 0.108D-03
 Coeff:      0.335D-04-0.318D-03-0.134D-02-0.121D-02 0.369D-02 0.932D-02
 Coeff:      0.841D-02-0.120D+00 0.156D-01 0.109D+01
 Gap=     0.041 Goal=   None    Shift=    0.000
 Gap=     0.059 Goal=   None    Shift=    0.000
 RMSDP=1.69D-07 MaxDP=2.47D-05 DE= 1.36D-12 OVMax= 1.86D-06

 Cycle  17  Pass 1  IDiag  1:
 E= -1136.12675619822     Delta-E=        0.000000000005 Rises=F Damp=F
 DIIS: error= 9.88D-09 at cycle  17 NSaved=  17.
 NSaved=17 IEnMin=15 EnMin= -1136.12675619822     IErMin=17 ErrMin= 9.88D-09
 ErrMax= 9.88D-09  0.00D+00 EMaxC= 1.00D-01 BMatC= 3.20D-14 BMatP= 9.15D-14
 IDIUse=1 WtCom= 1.00D+00 WtEn= 0.00D+00
 Coeff-Com: -0.110D-06 0.997D-07-0.331D-05-0.227D-05-0.641D-05 0.248D-04
 Coeff-Com:  0.378D-04 0.508D-03 0.397D-03-0.211D-02-0.331D-02 0.394D-02
 Coeff-Com:  0.273D-01 0.106D-01-0.308D+00 0.285D+00 0.986D+00
 Coeff:     -0.110D-06 0.997D-07-0.331D-05-0.227D-05-0.641D-05 0.248D-04
 Coeff:      0.378D-04 0.508D-03 0.397D-03-0.211D-02-0.331D-02 0.394D-02
 Coeff:      0.273D-01 0.106D-01-0.308D+00 0.285D+00 0.986D+00
 Gap=     0.041 Goal=   None    Shift=    0.000
 Gap=     0.059 Goal=   None    Shift=    0.000
 RMSDP=9.40D-08 MaxDP=1.42D-05 DE= 5.46D-12 OVMax= 1.26D-06

 Cycle  18  Pass 1  IDiag  1:
 E= -1136.12675619823     Delta-E=       -0.000000000016 Rises=F Damp=F
 DIIS: error= 4.82D-09 at cycle  18 NSaved=  18.
 NSaved=18 IEnMin=18 EnMin= -1136.12675619823     IErMin=18 ErrMin= 4.82D-09
 ErrMax= 4.82D-09  0.00D+00 EMaxC= 1.00D-01 BMatC= 4.90D-15 BMatP= 3.20D-14
 IDIUse=1 WtCom= 1.00D+00 WtEn= 0.00D+00
 Large coefficients: NSaved= 18 BigCof=    0.00 CofMax=   10.00 Det=-9.25D-15
 Inversion failed.  Reducing to 17 matrices.
 Large coefficients: NSaved= 17 BigCof=    0.00 CofMax=   10.00 Det=-9.49D-15
 Inversion failed.  Reducing to 16 matrices.
 Large coefficients: NSaved= 16 BigCof=    0.00 CofMax=   10.00 Det=-9.73D-15
 Inversion failed.  Reducing to 15 matrices.
 Coeff-Com: -0.317D-06 0.595D-06-0.143D-05 0.458D-05-0.629D-04 0.638D-04
 Coeff-Com:  0.348D-03-0.608D-04-0.173D-02-0.191D-02 0.193D-01-0.126D-03
 Coeff-Com: -0.211D+00-0.427D-01 0.124D+01
 Coeff:     -0.317D-06 0.595D-06-0.143D-05 0.458D-05-0.629D-04 0.638D-04
 Coeff:      0.348D-03-0.608D-04-0.173D-02-0.191D-02 0.193D-01-0.126D-03
 Coeff:     -0.211D+00-0.427D-01 0.124D+01
 Gap=     0.041 Goal=   None    Shift=    0.000
 Gap=     0.059 Goal=   None    Shift=    0.000
 RMSDP=5.20D-08 MaxDP=8.63D-06 DE=-1.57D-11 OVMax= 7.43D-07

 Cycle  19  Pass 1  IDiag  1:
 E= -1136.12675619823     Delta-E=        0.000000000003 Rises=F Damp=F
 DIIS: error= 2.24D-09 at cycle  19 NSaved=  16.
 NSaved=16 IEnMin=15 EnMin= -1136.12675619823     IErMin=16 ErrMin= 2.24D-09
 ErrMax= 2.24D-09  0.00D+00 EMaxC= 1.00D-01 BMatC= 9.48D-16 BMatP= 4.90D-15
 IDIUse=1 WtCom= 1.00D+00 WtEn= 0.00D+00
 Large coefficients: NSaved= 16 BigCof=    0.00 CofMax=   10.00 Det=-1.51D-15
 Inversion failed.  Reducing to 15 matrices.
 Coeff-Com: -0.673D-06-0.128D-04-0.114D-04-0.483D-04 0.692D-04 0.332D-03
 Coeff-Com:  0.334D-03-0.132D-02-0.471D-02 0.336D-02 0.530D-01-0.805D-01
 Coeff-Com: -0.182D+00 0.135D+00 0.108D+01
 Coeff:     -0.673D-06-0.128D-04-0.114D-04-0.483D-04 0.692D-04 0.332D-03
 Coeff:      0.334D-03-0.132D-02-0.471D-02 0.336D-02 0.530D-01-0.805D-01
 Coeff:     -0.182D+00 0.135D+00 0.108D+01
 Gap=     0.041 Goal=   None    Shift=    0.000
 Gap=     0.059 Goal=   None    Shift=    0.000
 RMSDP=2.24D-08 MaxDP=3.56D-06 DE= 3.41D-12 OVMax= 2.85D-07

 Cycle  20  Pass 1  IDiag  1:
 E= -1136.12675619822     Delta-E=        0.000000000006 Rises=F Damp=F
 DIIS: error= 6.72D-10 at cycle  20 NSaved=  16.
 NSaved=16 IEnMin=14 EnMin= -1136.12675619823     IErMin=16 ErrMin= 6.72D-10
 ErrMax= 6.72D-10  0.00D+00 EMaxC= 1.00D-01 BMatC= 1.07D-16 BMatP= 9.48D-16
 IDIUse=1 WtCom= 1.00D+00 WtEn= 0.00D+00
 Large coefficients: NSaved= 16 BigCof=    0.00 CofMax=   10.00 Det=-2.11D-16
 Inversion failed.  Reducing to 15 matrices.
 Coeff-Com:  0.144D-05 0.116D-05 0.119D-04 0.112D-04-0.706D-04-0.466D-04
 Coeff-Com:  0.781D-04 0.304D-03 0.398D-03-0.819D-03 0.997D-03-0.110D-01
 Coeff-Com: -0.370D-01 0.135D+00 0.913D+00
 Coeff:      0.144D-05 0.116D-05 0.119D-04 0.112D-04-0.706D-04-0.466D-04
 Coeff:      0.781D-04 0.304D-03 0.398D-03-0.819D-03 0.997D-03-0.110D-01
 Coeff:     -0.370D-01 0.135D+00 0.913D+00
 Gap=     0.041 Goal=   None    Shift=    0.000
 Gap=     0.059 Goal=   None    Shift=    0.000
 RMSDP=3.65D-09 MaxDP=4.43D-07 DE= 5.91D-12 OVMax= 6.02D-08

 SCF Done:  E(UB3LYP) =  -1136.12675620     A.U. after   20 cycles
            NFock= 20  Conv=0.36D-08     -V/T= 2.0027
 <Sx>= 0.0000 <Sy>= 0.0000 <Sz>= 0.5000 <S**2>= 0.7575 S= 0.5038
 <L.S>= 0.000000000000E+00
 KE= 1.133049804949D+03 PE=-3.438046281631D+03 EE= 8.146315423424D+02
 Annihilation of the first spin contaminant:
 S**2 before annihilation     0.7575,   after     0.7500
 Leave Link  502 at Tue Nov 28 20:34:23 2023, MaxMem=  1879048192 cpu:             185.4 elap:              16.6
 (Enter /home/sekinelabo/g16/l601.exe)
 Copying SCF densities to generalized density rwf, IOpCl= 1 IROHF=0.

 **********************************************************************

            Population analysis using the SCF Density.

 **********************************************************************

 Orbital symmetries:
 Alpha Orbitals:
       Occupied  (A) (A) (A) (A) (A) (A) (A) (A) (A) (A) (A) (A)
                 (A) (A) (A) (A) (A) (A) (A) (A) (A) (A) (A) (A)
                 (A) (A) (A) (A) (A) (A) (A) (A) (A) (A) (A) (A)
                 (A) (A) (A)
       Virtual   (A) (A) (A) (A) (A) (A) (A) (A) (A) (A) (A) (A)
                 (A) (A) (A) (A) (A) (A) (A) (A) (A) (A) (A) (A)
                 (A) (A) (A) (A) (A) (A) (A) (A) (A) (A) (A) (A)
                 (A) (A) (A) (A) (A) (A) (A) (A) (A) (A) (A) (A)
                 (A) (A) (A) (A) (A) (A) (A) (A) (A) (A) (A) (A)
                 (A) (A) (A) (A) (A) (A) (A) (A) (A) (A) (A) (A)
                 (A) (A) (A) (A) (A) (A) (A) (A) (A) (A) (A) (A)
                 (A) (A) (A) (A) (A) (A) (A) (A) (A) (A) (A) (A)
                 (A) (A) (A) (A) (A) (A) (A) (A) (A) (A) (A) (A)
                 (A) (A) (A) (A) (A) (A) (A) (A) (A) (A) (A) (A)
                 (A) (A) (A) (A) (A) (A) (A) (A) (A) (A) (A) (A)
                 (A) (A) (A) (A) (A) (A) (A) (A) (A) (A) (A) (A)
                 (A) (A) (A) (A) (A) (A) (A) (A) (A) (A) (A) (A)
                 (A) (A) (A) (A) (A) (A) (A) (A) (A) (A) (A) (A)
                 (A) (A) (A)
 Beta  Orbitals:
       Occupied  (A) (A) (A) (A) (A) (A) (A) (A) (A) (A) (A) (A)
                 (A) (A) (A) (A) (A) (A) (A) (A) (A) (A) (A) (A)
                 (A) (A) (A) (A) (A) (A) (A) (A) (A) (A) (A) (A)
                 (A) (A)
       Virtual   (A) (A) (A) (A) (A) (A) (A) (A) (A) (A) (A) (A)
                 (A) (A) (A) (A) (A) (A) (A) (A) (A) (A) (A) (A)
                 (A) (A) (A) (A) (A) (A) (A) (A) (A) (A) (A) (A)
                 (A) (A) (A) (A) (A) (A) (A) (A) (A) (A) (A) (A)
                 (A) (A) (A) (A) (A) (A) (A) (A) (A) (A) (A) (A)
                 (A) (A) (A) (A) (A) (A) (A) (A) (A) (A) (A) (A)
                 (A) (A) (A) (A) (A) (A) (A) (A) (A) (A) (A) (A)
                 (A) (A) (A) (A) (A) (A) (A) (A) (A) (A) (A) (A)
                 (A) (A) (A) (A) (A) (A) (A) (A) (A) (A) (A) (A)
                 (A) (A) (A) (A) (A) (A) (A) (A) (A) (A) (A) (A)
                 (A) (A) (A) (A) (A) (A) (A) (A) (A) (A) (A) (A)
                 (A) (A) (A) (A) (A) (A) (A) (A) (A) (A) (A) (A)
                 (A) (A) (A) (A) (A) (A) (A) (A) (A) (A) (A) (A)
                 (A) (A) (A) (A) (A) (A) (A) (A) (A) (A) (A) (A)
                 (A) (A) (A) (A)
 The electronic state is 2-A.
 Alpha  occ. eigenvalues --  -38.44533 -38.44092 -38.44024 -38.43889 -38.43037
 Alpha  occ. eigenvalues --  -38.42921 -38.42773  -2.20437  -2.20016  -2.19903
 Alpha  occ. eigenvalues --   -2.19753  -2.19060  -2.18828  -2.18803  -1.14177
 Alpha  occ. eigenvalues --   -1.14101  -1.14065  -1.13722  -1.13681  -1.13663
 Alpha  occ. eigenvalues --   -1.13566  -1.13546  -1.13541  -1.13440  -1.13393
 Alpha  occ. eigenvalues --   -1.13385  -1.12805  -1.12725  -1.12680  -1.12499
 Alpha  occ. eigenvalues --   -1.12485  -1.12467  -1.12457  -1.12425  -1.12412
 Alpha  occ. eigenvalues --   -0.19165  -0.13997  -0.12355  -0.10059
 Alpha virt. eigenvalues --   -0.06001  -0.05589  -0.04465  -0.03346  -0.02509
 Alpha virt. eigenvalues --   -0.01865  -0.01655  -0.01181  -0.00565  -0.00259
 Alpha virt. eigenvalues --    0.00064   0.00345   0.00743   0.00840   0.00883
 Alpha virt. eigenvalues --    0.01043   0.01163   0.01204   0.01243   0.01342
 Alpha virt. eigenvalues --    0.01443   0.01621   0.01815   0.01936   0.02196
 Alpha virt. eigenvalues --    0.02260   0.02343   0.02530   0.02585   0.02827
 Alpha virt. eigenvalues --    0.02993   0.03050   0.03106   0.03136   0.03174
 Alpha virt. eigenvalues --    0.03287   0.03300   0.03493   0.03503   0.03625
 Alpha virt. eigenvalues --    0.04087   0.04338   0.04671   0.04742   0.04915
 Alpha virt. eigenvalues --    0.05004   0.05028   0.05194   0.05435   0.05587
 Alpha virt. eigenvalues --    0.05967   0.07141   0.07229   0.07437   0.07733
 Alpha virt. eigenvalues --    0.07879   0.08008   0.08123   0.08387   0.09134
 Alpha virt. eigenvalues --    0.09424   0.10105   0.10260   0.11277   0.11726
 Alpha virt. eigenvalues --    0.11931   0.12126   0.12802   0.12934   0.13233
 Alpha virt. eigenvalues --    0.13457   0.13810   0.14239   0.15067   0.15134
 Alpha virt. eigenvalues --    0.15899   0.16131   0.16684   0.16814   0.18442
 Alpha virt. eigenvalues --    0.24400   0.25489   0.27090   0.27299   0.29175
 Alpha virt. eigenvalues --    0.29595   0.30437   0.32246   0.32625   0.34346
 Alpha virt. eigenvalues --    0.34412   0.35046   0.35333   0.38400   0.39331
 Alpha virt. eigenvalues --    0.40072   0.40315   0.41220   0.42163   0.42489
 Alpha virt. eigenvalues --    0.43699   0.44153   0.44270   0.44952   0.45077
 Alpha virt. eigenvalues --    0.45218   0.45424   0.45566   0.46985   0.47231
 Alpha virt. eigenvalues --    0.47493   0.47986   0.48818   0.49199   0.49888
 Alpha virt. eigenvalues --    0.50850   0.51665   0.51708   0.52144   0.53371
 Alpha virt. eigenvalues --    0.54664   0.55084   0.56487   0.56672   0.57503
 Alpha virt. eigenvalues --    0.60411   0.61795   0.62983   0.63777   0.64999
 Alpha virt. eigenvalues --    0.65777   0.67656   0.69591   0.71073   0.72596
 Alpha virt. eigenvalues --    0.74971   2.06213   2.15449   2.18240   2.19881
 Alpha virt. eigenvalues --    2.22763   2.28674   2.30257   4.42147   4.42642
 Alpha virt. eigenvalues --    4.43319   4.43813   4.44248   4.45436   4.45525
 Alpha virt. eigenvalues --    4.46420   4.46939   4.47750   4.49073   4.49853
 Alpha virt. eigenvalues --    4.52712   4.55794   4.56652   4.58624   4.59614
 Alpha virt. eigenvalues --    4.64197   4.65260   4.68609   4.71600  96.25889
 Alpha virt. eigenvalues --   96.37396  96.41677  96.43768  96.46986  96.54312
 Alpha virt. eigenvalues --   96.56306
  Beta  occ. eigenvalues --  -38.44527 -38.44081 -38.44019 -38.43886 -38.42975
  Beta  occ. eigenvalues --  -38.42907 -38.42708  -2.20430  -2.20000  -2.19898
  Beta  occ. eigenvalues --   -2.19750  -2.18947  -2.18807  -2.18684  -1.14176
  Beta  occ. eigenvalues --   -1.14092  -1.14037  -1.13716  -1.13661  -1.13631
  Beta  occ. eigenvalues --   -1.13564  -1.13546  -1.13511  -1.13432  -1.13390
  Beta  occ. eigenvalues --   -1.13370  -1.12731  -1.12652  -1.12595  -1.12461
  Beta  occ. eigenvalues --   -1.12445  -1.12421  -1.12405  -1.12343  -1.12325
  Beta  occ. eigenvalues --   -0.18463  -0.13723  -0.12129
  Beta virt. eigenvalues --   -0.06220  -0.05909  -0.05572  -0.04438  -0.02526
  Beta virt. eigenvalues --   -0.01834  -0.01737  -0.01159  -0.00737  -0.00597
  Beta virt. eigenvalues --   -0.00270   0.00217   0.00384   0.00781   0.00844
  Beta virt. eigenvalues --    0.00885   0.01088   0.01283   0.01348   0.01372
  Beta virt. eigenvalues --    0.01470   0.01667   0.01768   0.01872   0.01971
  Beta virt. eigenvalues --    0.02193   0.02253   0.02514   0.02528   0.02576
  Beta virt. eigenvalues --    0.02855   0.03097   0.03142   0.03173   0.03192
  Beta virt. eigenvalues --    0.03252   0.03327   0.03348   0.03499   0.03540
  Beta virt. eigenvalues --    0.03822   0.04143   0.04431   0.04745   0.04770
  Beta virt. eigenvalues --    0.05036   0.05164   0.05187   0.05401   0.05564
  Beta virt. eigenvalues --    0.05933   0.06291   0.07137   0.07230   0.07455
  Beta virt. eigenvalues --    0.07815   0.07983   0.08156   0.08229   0.08705
  Beta virt. eigenvalues --    0.09451   0.09602   0.10223   0.10404   0.11411
  Beta virt. eigenvalues --    0.11936   0.12162   0.12370   0.13040   0.13245
  Beta virt. eigenvalues --    0.13464   0.13732   0.13997   0.14472   0.15300
  Beta virt. eigenvalues --    0.15384   0.16141   0.16348   0.17047   0.17273
  Beta virt. eigenvalues --    0.18890   0.24481   0.25675   0.27248   0.27468
  Beta virt. eigenvalues --    0.29306   0.29780   0.30747   0.32639   0.32865
  Beta virt. eigenvalues --    0.34517   0.34715   0.35298   0.35631   0.38448
  Beta virt. eigenvalues --    0.39584   0.40373   0.40441   0.41372   0.42322
  Beta virt. eigenvalues --    0.42904   0.43818   0.44136   0.44418   0.45053
  Beta virt. eigenvalues --    0.45278   0.45428   0.45631   0.45747   0.47152
  Beta virt. eigenvalues --    0.47392   0.47626   0.48101   0.48883   0.49257
  Beta virt. eigenvalues --    0.49971   0.50869   0.51748   0.51871   0.52431
  Beta virt. eigenvalues --    0.53683   0.54869   0.55379   0.56693   0.56922
  Beta virt. eigenvalues --    0.57734   0.60532   0.62159   0.63448   0.64052
  Beta virt. eigenvalues --    0.65175   0.65902   0.67970   0.69631   0.71304
  Beta virt. eigenvalues --    0.72802   0.74922   2.06290   2.15456   2.18255
  Beta virt. eigenvalues --    2.19896   2.22795   2.28915   2.30551   4.42164
  Beta virt. eigenvalues --    4.42635   4.43373   4.43880   4.44312   4.45495
  Beta virt. eigenvalues --    4.45557   4.46463   4.46956   4.47786   4.49112
  Beta virt. eigenvalues --    4.49898   4.52735   4.55865   4.56734   4.58693
  Beta virt. eigenvalues --    4.59685   4.64255   4.65301   4.68629   4.71626
  Beta virt. eigenvalues --   96.25918  96.37399  96.41685  96.43773  96.46997
  Beta virt. eigenvalues --   96.54381  96.56393
          Condensed to atoms (all electrons):
               1          2          3          4          5          6
     1  Na  12.709715  -0.296423  -2.456665  -0.052384   0.662341   1.645443
     2  Na  -0.296423  11.396935   1.048215  -0.123000  -0.267686  -1.564664
     3  Na  -2.456665   1.048215  20.935746  -0.410919  -1.460439  -7.763317
     4  Na  -0.052384  -0.123000  -0.410919  11.272941   0.702352  -0.080492
     5  Na   0.662341  -0.267686  -1.460439   0.702352  11.285382   0.692459
     6  Na   1.645443  -1.564664  -7.763317  -0.080492   0.692459  19.832329
     7  Na  -1.490941   0.828621   1.454147  -0.348795  -0.706213  -1.400724
               7
     1  Na  -1.490941
     2  Na   0.828621
     3  Na   1.454147
     4  Na  -0.348795
     5  Na  -0.706213
     6  Na  -1.400724
     7  Na  12.345124
          Atomic-Atomic Spin Densities.
               1          2          3          4          5          6
     1  Na  -0.254881  -0.056720  -1.207899   0.036725   0.007702   1.267593
     2  Na  -0.056720   0.136478   0.885783   0.059061   0.007343  -0.961484
     3  Na  -1.207899   0.885783   7.717769   0.292613  -0.409715  -7.404926
     4  Na   0.036725   0.059061   0.292613  -0.217752  -0.168668  -0.103124
     5  Na   0.007702   0.007343  -0.409715  -0.168668  -0.159205   0.577921
     6  Na   1.267593  -0.961484  -7.404926  -0.103124   0.577921   7.576920
     7  Na   0.330318  -0.025380   0.528554   0.033586   0.096379  -0.478512
               7
     1  Na   0.330318
     2  Na  -0.025380
     3  Na   0.528554
     4  Na   0.033586
     5  Na   0.096379
     6  Na  -0.478512
     7  Na  -0.413621
 Mulliken charges and spin densities:
               1          2
     1  Na   0.278914   0.122837
     2  Na  -0.021997   0.045080
     3  Na  -0.346767   0.402178
     4  Na   0.040296  -0.067561
     5  Na   0.091806  -0.048243
     6  Na  -0.361033   0.474386
     7  Na   0.318781   0.071323
 Sum of Mulliken charges =  -0.00000   1.00000
 Mulliken charges and spin densities with hydrogens summed into heavy atoms:
               1          2
     1  Na   0.278914   0.122837
     2  Na  -0.021997   0.045080
     3  Na  -0.346767   0.402178
     4  Na   0.040296  -0.067561
     5  Na   0.091806  -0.048243
     6  Na  -0.361033   0.474386
     7  Na   0.318781   0.071323
 Electronic spatial extent (au):  <R**2>=           2183.6782
 Charge=             -0.0000 electrons
 Dipole moment (field-independent basis, Debye):
    X=              0.1811    Y=             -0.1793    Z=             -0.0068  Tot=              0.2550
 Quadrupole moment (field-independent basis, Debye-Ang):
   XX=            -52.8428   YY=            -61.5671   ZZ=            -77.6979
   XY=              0.2756   XZ=             -1.5162   YZ=             -2.3592
 Traceless Quadrupole moment (field-independent basis, Debye-Ang):
   XX=             11.1931   YY=              2.4688   ZZ=            -13.6619
   XY=              0.2756   XZ=             -1.5162   YZ=             -2.3592
 Octapole moment (field-independent basis, Debye-Ang**2):
  XXX=              4.4158  YYY=             -9.0619  ZZZ=              0.7753  XYY=             -0.9175
  XXY=              4.9393  XXZ=             -2.2373  XZZ=              0.2309  YZZ=             -0.4009
  YYZ=             -1.1706  XYZ=             -0.8289
 Hexadecapole moment (field-independent basis, Debye-Ang**3):
 XXXX=          -1556.0925 YYYY=          -1267.2896 ZZZZ=           -664.6472 XXXY=             14.3351
 XXXZ=            -34.3399 YYYX=             -2.3791 YYYZ=            -48.1006 ZZZX=              0.0988
 ZZZY=             -1.3750 XXYY=           -447.2201 XXZZ=           -449.5475 YYZZ=           -366.7990
 XXYZ=            -11.8419 YYXZ=             -6.2235 ZZXY=              2.2365
 N-N= 3.542381781409D+02 E-N=-3.438046281819D+03  KE= 1.133049804949D+03
                          Isotropic Fermi Contact Couplings
        Atom                 a.u.       MegaHertz       Gauss      10(-4) cm-1
     1  Na(23)            -0.00071      -0.83676      -0.29858      -0.27911
     2  Na(23)             0.01288      15.23605       5.43660       5.08220
     3  Na(23)             0.24769     293.01862     104.55633      97.74049
     4  Na(23)            -0.01856     -21.95789      -7.83512      -7.32436
     5  Na(23)            -0.01633     -19.31726      -6.89288      -6.44354
     6  Na(23)             0.23842     282.05814     100.64536      94.08447
     7  Na(23)            -0.01940     -22.95621      -8.19135      -7.65737
 --------------------------------------------------------
       Center         ----  Spin Dipole Couplings  ----
                      3XX-RR        3YY-RR        3ZZ-RR
 --------------------------------------------------------
     1   Atom       -0.016268     -0.020029      0.036297
     2   Atom       -0.018011     -0.012041      0.030052
     3   Atom       -0.009336      0.000912      0.008423
     4   Atom       -0.014076     -0.013452      0.027528
     5   Atom       -0.010281     -0.010582      0.020863
     6   Atom       -0.001428     -0.008246      0.009674
     7   Atom       -0.013531     -0.020367      0.033898
 --------------------------------------------------------
                        XY            XZ            YZ
 --------------------------------------------------------
     1   Atom       -0.001801     -0.002379     -0.010544
     2   Atom        0.000035      0.000204      0.012385
     3   Atom        0.000893     -0.003979     -0.010091
     4   Atom       -0.002970      0.004968      0.004453
     5   Atom        0.001207     -0.005179      0.006661
     6   Atom       -0.000670     -0.002215     -0.002896
     7   Atom        0.001766      0.004660     -0.003529
 --------------------------------------------------------


 ---------------------------------------------------------------------------------
              Anisotropic Spin Dipole Couplings in Principal Axis System
 ---------------------------------------------------------------------------------

       Atom             a.u.   MegaHertz   Gauss  10(-4) cm-1        Axes

              Baa    -0.0227    -3.205    -1.144    -1.069  0.3262  0.9282  0.1791
     1 Na(23) Bbb    -0.0156    -2.201    -0.785    -0.734  0.9446 -0.3275 -0.0233
              Bcc     0.0383     5.406     1.929     1.803 -0.0371 -0.1767  0.9836
 
              Baa    -0.0180    -2.544    -0.908    -0.848  1.0000  0.0063 -0.0059
     2 Na(23) Bbb    -0.0154    -2.177    -0.777    -0.726 -0.0076  0.9648 -0.2628
              Bcc     0.0334     4.720     1.684     1.575  0.0040  0.2628  0.9648
 
              Baa    -0.0104    -1.473    -0.526    -0.491  0.9336  0.1943  0.3010
     3 Na(23) Bbb    -0.0056    -0.786    -0.281    -0.262 -0.3262  0.8083  0.4902
              Bcc     0.0160     2.260     0.806     0.754 -0.1481 -0.5558  0.8180
 
              Baa    -0.0177    -2.504    -0.894    -0.835  0.7354  0.6618 -0.1458
     4 Na(23) Bbb    -0.0108    -1.522    -0.543    -0.508 -0.6689  0.7434  0.0003
              Bcc     0.0285     4.026     1.437     1.343  0.1086  0.0973  0.9893
 
              Baa    -0.0137    -1.935    -0.690    -0.645 -0.6220  0.7463 -0.2370
     5 Na(23) Bbb    -0.0092    -1.302    -0.465    -0.434  0.7696  0.6385 -0.0089
              Bcc     0.0229     3.237     1.155     1.080 -0.1447  0.1879  0.9715
 
              Baa    -0.0088    -1.249    -0.446    -0.417  0.1387  0.9758  0.1692
     6 Na(23) Bbb    -0.0017    -0.233    -0.083    -0.078  0.9751 -0.1643  0.1486
              Bcc     0.0105     1.482     0.529     0.494 -0.1728 -0.1444  0.9743
 
              Baa    -0.0212    -2.991    -1.067    -0.998 -0.2727  0.9584  0.0845
     7 Na(23) Bbb    -0.0134    -1.889    -0.674    -0.630  0.9575  0.2789 -0.0736
              Bcc     0.0346     4.880     1.741     1.628  0.0941 -0.0608  0.9937
 

 ---------------------------------------------------------------------------------

 No NMR shielding tensors so no spin-rotation constants.
 Leave Link  601 at Tue Nov 28 20:34:23 2023, MaxMem=  1879048192 cpu:               2.3 elap:               0.2
 (Enter /home/sekinelabo/g16/l701.exe)
 ... and contract with generalized density number  0.
 Compute integral first derivatives.
 Leave Link  701 at Tue Nov 28 20:34:23 2023, MaxMem=  1879048192 cpu:               1.5 elap:               0.1
 (Enter /home/sekinelabo/g16/l702.exe)
 L702 exits ... SP integral derivatives will be done elsewhere.
 Leave Link  702 at Tue Nov 28 20:34:23 2023, MaxMem=  1879048192 cpu:               0.4 elap:               0.0
 (Enter /home/sekinelabo/g16/l703.exe)
 Integral derivatives from FoFJK, PRISM(SPDF).
 Compute integral first derivatives, UseDBF=F ICtDFT=           0.
 Calling FoFJK, ICntrl=      2127 FMM=F ISym2X=0 I1Cent= 0 IOpClX= 1 NMat=1 NMatS=1 NMatT=0.
 FoFJK:  IHMeth= 1 ICntrl=    2127 DoSepK=F KAlg= 0 I1Cent=           0 FoldK=F
 IRaf=         0 NMat=       1 IRICut=       1 DoRegI=T DoRafI=F ISym2E= 0 IDoP0=0 IntGTp=1.
 FoFCou: FMM=F IPFlag=           0 FMFlag=      100000 FMFlg1=         800
         NFxFlg=           0 DoJE=F BraDBF=F KetDBF=F FulRan=T
         wScrn=  0.000000 ICntrl=      2127 IOpCl=  1 I1Cent=           0 NGrid=           0
         NMat0=    1 NMatS0=      1 NMatT0=    0 NMatD0=    1 NMtDS0=    0 NMtDT0=    0
 Symmetry not used in FoFCou.
 Leave Link  703 at Tue Nov 28 20:34:26 2023, MaxMem=  1879048192 cpu:              34.0 elap:               2.3
 (Enter /home/sekinelabo/g16/l716.exe)
 Dipole        = 7.12636890D-02-7.05504686D-02-2.66720346D-03
 ***** Axes restored to original set *****
 -------------------------------------------------------------------
 Center     Atomic                   Forces (Hartrees/Bohr)
 Number     Number              X              Y              Z
 -------------------------------------------------------------------
      1       11          -0.003664414    0.001716796   -0.002102350
      2       11          -0.004987443   -0.004094339   -0.001456640
      3       11          -0.001280649   -0.008358992    0.001766694
      4       11           0.004822263    0.003902864    0.005908976
      5       11           0.005802910    0.002036253    0.001423440
      6       11           0.004941582    0.008385034   -0.001929696
      7       11          -0.005634250   -0.003587616   -0.003610423
 -------------------------------------------------------------------
 Cartesian Forces:  Max     0.008385034 RMS     0.004410705
 Z-matrix is all fixed cartesians, so copy forces.
 Force constants in Cartesian coordinates: 
                1             2             3             4             5 
      1  0.106868D+00
      2 -0.267031D-01  0.829247D-01
      3  0.104119D-02  0.150205D-01  0.773783D-01
      4 -0.234186D-01  0.162415D-01  0.897243D-02  0.106570D+00
      5 -0.115289D-01 -0.210514D-01 -0.160227D-01  0.836932D-02  0.690989D-01
      6 -0.178911D-01 -0.766461D-02 -0.164373D-01  0.177023D-01  0.167920D-01
      7 -0.223627D-01  0.191050D-01 -0.844415D-02 -0.206206D-01  0.130682D-01
      8 -0.196680D-02 -0.351951D-01  0.190629D-01 -0.550432D-02 -0.174715D-01
      9  0.931169D-02 -0.325333D-02 -0.262265D-01  0.646346D-02  0.124982D-01
     10 -0.137253D-02  0.161483D-02 -0.128078D-02 -0.580095D-02  0.141683D-02
     11  0.568841D-02  0.365463D-02 -0.262529D-02 -0.188670D-03  0.786040D-02
     12  0.161778D-02 -0.351956D-02  0.569257D-02 -0.336537D-02  0.236217D-03
     13 -0.369334D-01 -0.534147D-02 -0.204905D-01  0.320539D-02 -0.508023D-02
     14  0.178105D-01 -0.132550D-01  0.521749D-03 -0.461024D-02  0.567407D-02
     15  0.205739D-02 -0.128047D-01 -0.180327D-01 -0.458502D-02 -0.393310D-02
     16 -0.267837D-01 -0.986091D-02  0.175215D-01 -0.395190D-01 -0.234128D-01
     17  0.116531D-01 -0.191137D-01 -0.106631D-01 -0.433115D-02 -0.351925D-01
     18  0.727148D-03  0.179142D-01 -0.271241D-01 -0.116080D-01 -0.563077D-02
     19  0.400321D-02  0.494421D-02  0.268029D-02 -0.204163D-01  0.171675D-01
     20  0.504677D-02  0.203582D-02 -0.529400D-02 -0.997641D-02 -0.891801D-02
     21  0.313586D-02 -0.569239D-02  0.474976D-02 -0.135798D-01 -0.393983D-02
                6             7             8             9            10 
      6  0.747842D-01
      7 -0.196381D-01  0.129972D+00
      8 -0.706490D-02  0.775601D-02  0.165476D+00
      9 -0.287958D-01 -0.682646D-02 -0.312829D-01  0.164607D+00
     10 -0.426693D-02 -0.288758D-01  0.138656D-02 -0.115341D-01  0.829286D-01
     11 -0.689806D-04 -0.132076D-01 -0.193230D-01  0.883432D-02 -0.310970D-02
     12  0.705213D-02  0.215162D-01  0.847332D-03 -0.224778D-01  0.136404D-01
     13 -0.587468D-02 -0.244953D-01 -0.355178D-02 -0.315406D-02  0.123682D-02
     14 -0.430072D-02 -0.155328D-01 -0.418134D-01 -0.160575D-01  0.662468D-03
     15  0.968266D-03  0.314591D-02  0.194778D-01 -0.242002D-01 -0.817482D-03
     16  0.194063D-01 -0.229428D-01 -0.304199D-02  0.268848D-02 -0.160729D-01
     17  0.117994D-01 -0.482519D-02 -0.364397D-01  0.126410D-01 -0.105494D-01
     18 -0.253322D-01  0.591843D-02  0.144443D-01 -0.355076D-01  0.456075D-02
     19  0.105622D-01 -0.106752D-01  0.492233D-02  0.305097D-02 -0.320432D-01
     20 -0.949216D-02 -0.636362D-02 -0.152336D-01  0.166202D-01  0.857844D-02
     21 -0.122393D-01  0.432813D-02 -0.154844D-01 -0.273993D-01 -0.301875D-03
               11            12            13            14            15 
     11  0.470337D-01
     12  0.949262D-02  0.631319D-01
     13  0.713446D-02  0.572036D-02  0.609893D-01
     14 -0.139649D-02 -0.349284D-02  0.242889D-02  0.560817D-01
     15 -0.260648D-02 -0.517328D-03  0.143737D-01  0.135127D-01  0.594383D-01
     16  0.180006D-01 -0.133760D-01 -0.761813D-02 -0.197481D-03 -0.115780D-01
     17 -0.175258D-01  0.772636D-02  0.149037D-02 -0.751262D-02 -0.887693D-02
     18  0.917878D-02 -0.216530D-01  0.792955D-02  0.155973D-01 -0.194723D-01
     19 -0.143175D-01 -0.257534D-01  0.361532D-02 -0.561282D-03 -0.259652D-02
     20 -0.203034D-01 -0.112901D-01  0.291977D-02  0.222176D-02 -0.476922D-02
     21 -0.222050D-01 -0.312285D-01  0.149557D-02 -0.578068D-02  0.181603D-02
               16            17            18            19            20 
     16  0.132017D+00
     17  0.136020D-01  0.161864D+00
     18 -0.130554D-01 -0.343729D-01  0.155450D+00
     19 -0.190801D-01 -0.703974D-02  0.552753D-02  0.745963D-01
     20  0.491063D-02 -0.460797D-01 -0.171309D-01 -0.511558D-02  0.862771D-01
     21 -0.160686D-02  0.217462D-01 -0.263613D-01  0.652895D-02  0.313562D-01
               21 
     21  0.906626D-01
 Leave Link  716 at Tue Nov 28 20:34:26 2023, MaxMem=  1879048192 cpu:               0.4 elap:               0.0
 (Enter /home/sekinelabo/g16/l103.exe)

 GradGradGradGradGradGradGradGradGradGradGradGradGradGradGradGradGradGrad
 Berny optimization.
 Search for a local minimum.
 Step number   1 out of a maximum of    2
 All quantities printed in internal units (Hartrees-Bohrs-Radians)
 Second derivative matrix not updated -- first step.
 ITU=  0
     Eigenvalues ---    0.04981   0.05272   0.06723   0.07673   0.08109
     Eigenvalues ---    0.11927   0.13002   0.13525   0.16338   0.16389
     Eigenvalues ---    0.17118   0.17646   0.17970   0.21008   0.25628
 Angle between quadratic step and forces=  21.60 degrees.
 Linear search not attempted -- first point.
 B after Tr=    -0.000000   -0.000000    0.000000
         Rot=    1.000000    0.000000   -0.000000   -0.000000 Ang=   0.00 deg.
 Variable       Old X    -DE/DX   Delta X   Delta X   Delta X     New X
                                 (Linear)    (Quad)   (Total)
    X1       25.07421  -0.00366   0.00000  -0.03294  -0.03294  25.04127
    Y1       32.46398   0.00172   0.00000   0.02051   0.02051  32.48449
    Z1       30.88474  -0.00210   0.00000  -0.00796  -0.00796  30.87678
    X2       24.42603  -0.00499   0.00000  -0.05374  -0.05374  24.37229
    Y2       27.94092  -0.00409   0.00000  -0.02954  -0.02954  27.91138
    Z2       26.37529  -0.00146   0.00000  -0.02999  -0.02999  26.34530
    X3       28.58022  -0.00128   0.00000  -0.00746  -0.00746  28.57276
    Y3       27.40367  -0.00836   0.00000  -0.04137  -0.04137  27.36230
    Z3       31.46677   0.00177   0.00000   0.00884   0.00884  31.47562
    X4       34.44838   0.00482   0.00000   0.04518   0.04518  34.49356
    Y4       26.91064   0.00390   0.00000   0.02703   0.02703  26.93767
    Z4       28.90431   0.00591   0.00000   0.04846   0.04846  28.95277
    X5       30.13962   0.00580   0.00000   0.05682   0.05682  30.19644
    Y5       32.52086   0.00204   0.00000   0.01465   0.01465  32.53552
    Z5       33.92474   0.00142   0.00000   0.02859   0.02859  33.95333
    X6       29.43154   0.00494   0.00000   0.01880   0.01880  29.45034
    Y6       30.72884   0.00839   0.00000   0.03666   0.03666  30.76550
    Z6       26.37415  -0.00193   0.00000  -0.01448  -0.01448  26.35967
    X7       30.90458  -0.00563   0.00000  -0.02666  -0.02666  30.87793
    Y7       25.03585  -0.00359   0.00000  -0.02793  -0.02793  25.00791
    Z7       25.07478  -0.00361   0.00000  -0.03347  -0.03347  25.04131
         Item               Value     Threshold  Converged?
 Maximum Force            0.008385     0.000450     NO 
 RMS     Force            0.004411     0.000300     NO 
 Maximum Displacement     0.056820     0.001800     NO 
 RMS     Displacement     0.032348     0.001200     NO 
 Predicted change in Energy=-1.392890D-03
 GradGradGradGradGradGradGradGradGradGradGradGradGradGradGradGradGradGrad

 Leave Link  103 at Tue Nov 28 20:34:26 2023, MaxMem=  1879048192 cpu:               0.2 elap:               0.0
 (Enter /home/sekinelabo/g16/l9999.exe)
 1\1\GINC-SEKINELABO-XA7R-R37\Force\UB3LYP\6-311+G(d)\Na7(2)\SEKINELABO
 \28-Nov-2023\0\\#P B3LYP/6-311+g(d) force\\DPGEN\\0,2\Na,13.2687,17.17
 92,16.3435\Na,12.9257,14.7857,13.9572\Na,15.124,14.5014,16.6515\Na,18.
 2293,14.2405,15.2955\Na,15.9492,17.2093,17.9522\Na,15.5745,16.261,13.9
 566\Na,16.354,13.2484,13.269\\Version=ES64L-G16RevB.01\State=2-A\HF=-1
 136.1267562\S2=0.757525\S2-1=0.\S2A=0.750038\RMSD=3.649e-09\RMSF=4.411
 e-03\Dipole=0.0916548,-0.0407697,0.0004797\Quadrupole=2.6303025,-1.156
 8387,-1.4734638,-3.9025883,0.3049445,8.4704464\PG=C01 [X(Na7)]\\@


 THESE ARE THE TIMES THAT TRY MENS SOULS.
 THE SUMMER SOLDIER AND THE SUNSHINE PATRIOT WILL IN THIS CRISIS,
 SHRINK FROM THE SERVICE OF HIS COUNTRY.  BUT HE THAT STANDS NOW,
 DESERVES THE LOVE AND THANKS OF MAN AND WOMAN.
 TYRANNY, LIKE HELL, IS NOT EASILY CONQUERED,
 YET WE HAVE THIS CONSOLATION WITH US,
 THAT THE HARDER THE CONFLICT, THE MORE GLORIOUS THE TRIUMPH.
 WHAT WE OBTAIN TOO CHEAP, WE ESTEEM TOO LIGHTLY, 
 'TIS DEARNESS ONLY THAT GIVES EVERYTHING ITS VALUE.

                                              -- TOM PAINE
 Job cpu time:       0 days  0 hours  3 minutes 55.0 seconds.
 Elapsed time:       0 days  0 hours  0 minutes 19.9 seconds.
 File lengths (MBytes):  RWF=     32 Int=      0 D2E=      0 Chk=      4 Scr=      1
 Normal termination of Gaussian 16 at Tue Nov 28 20:34:26 2023.
