 Set GAUSS_MDEF to "14GB".
 Entering Gaussian System, Link 0=g16
 Initial command:
 /home/sekinelabo/g16/l1.exe "/home/sekinelabo/g16temp/Gau-2359795.inp" -scrdir="/home/sekinelabo/g16temp/"
 Entering Link 1 = /home/sekinelabo/g16/l1.exe PID=   2359797.
  
 Copyright (c) 1988-2017, Gaussian, Inc.  All Rights Reserved.
  
 This is part of the Gaussian(R) 16 program.  It is based on
 the Gaussian(R) 09 system (copyright 2009, Gaussian, Inc.),
 the Gaussian(R) 03 system (copyright 2003, Gaussian, Inc.),
 the Gaussian(R) 98 system (copyright 1998, Gaussian, Inc.),
 the Gaussian(R) 94 system (copyright 1995, Gaussian, Inc.),
 the Gaussian 92(TM) system (copyright 1992, Gaussian, Inc.),
 the Gaussian 90(TM) system (copyright 1990, Gaussian, Inc.),
 the Gaussian 88(TM) system (copyright 1988, Gaussian, Inc.),
 the Gaussian 86(TM) system (copyright 1986, Carnegie Mellon
 University), and the Gaussian 82(TM) system (copyright 1983,
 Carnegie Mellon University). Gaussian is a federally registered
 trademark of Gaussian, Inc.
  
 This software contains proprietary and confidential information,
 including trade secrets, belonging to Gaussian, Inc.
  
 This software is provided under written license and may be
 used, copied, transmitted, or stored only in accord with that
 written license.
  
 The following legend is applicable only to US Government
 contracts under FAR:
  
                    RESTRICTED RIGHTS LEGEND
  
 Use, reproduction and disclosure by the US Government is
 subject to restrictions as set forth in subparagraphs (a)
 and (c) of the Commercial Computer Software - Restricted
 Rights clause in FAR 52.227-19.
  
 Gaussian, Inc.
 340 Quinnipiac St., Bldg. 40, Wallingford CT 06492
  
  
 ---------------------------------------------------------------
 Warning -- This program may not be used in any manner that
 competes with the business of Gaussian, Inc. or will provide
 assistance to any competitor of Gaussian, Inc.  The licensee
 of this program is prohibited from giving any competitor of
 Gaussian, Inc. access to this program.  By using this program,
 the user acknowledges that Gaussian, Inc. is engaged in the
 business of creating and licensing software in the field of
 computational chemistry and represents and warrants to the
 licensee that it is not a competitor of Gaussian, Inc. and that
 it will not use this program in any manner prohibited above.
 ---------------------------------------------------------------
  

 Cite this work as:
 Gaussian 16, Revision B.01,
 M. J. Frisch, G. W. Trucks, H. B. Schlegel, G. E. Scuseria, 
 M. A. Robb, J. R. Cheeseman, G. Scalmani, V. Barone, 
 G. A. Petersson, H. Nakatsuji, X. Li, M. Caricato, A. V. Marenich, 
 J. Bloino, B. G. Janesko, R. Gomperts, B. Mennucci, H. P. Hratchian, 
 J. V. Ortiz, A. F. Izmaylov, J. L. Sonnenberg, D. Williams-Young, 
 F. Ding, F. Lipparini, F. Egidi, J. Goings, B. Peng, A. Petrone, 
 T. Henderson, D. Ranasinghe, V. G. Zakrzewski, J. Gao, N. Rega, 
 G. Zheng, W. Liang, M. Hada, M. Ehara, K. Toyota, R. Fukuda, 
 J. Hasegawa, M. Ishida, T. Nakajima, Y. Honda, O. Kitao, H. Nakai, 
 T. Vreven, K. Throssell, J. A. Montgomery, Jr., J. E. Peralta, 
 F. Ogliaro, M. J. Bearpark, J. J. Heyd, E. N. Brothers, K. N. Kudin, 
 V. N. Staroverov, T. A. Keith, R. Kobayashi, J. Normand, 
 K. Raghavachari, A. P. Rendell, J. C. Burant, S. S. Iyengar, 
 J. Tomasi, M. Cossi, J. M. Millam, M. Klene, C. Adamo, R. Cammi, 
 J. W. Ochterski, R. L. Martin, K. Morokuma, O. Farkas, 
 J. B. Foresman, and D. J. Fox, Gaussian, Inc., Wallingford CT, 2016.
 
 ******************************************
 Gaussian 16:  ES64L-G16RevB.01 20-Dec-2017
                 8-Dec-2023 
 ******************************************
 %nproc=15
 Will use up to   15 processors via shared memory.
 -------------------------
 #P B3LYP/6-311+g(d) force
 -------------------------
 1/10=7,30=1,38=1/1,3;
 2/12=2,17=6,18=5,40=1/2;
 3/5=4,6=6,7=11,11=2,25=1,30=1,71=1,74=-5/1,2,3;
 4//1;
 5/5=2,38=5/2;
 6/7=2,8=2,9=2,10=2,28=1/1;
 7/29=1/1,2,3,16;
 1/10=7,30=1/3;
 99//99;
 Leave Link    1 at Fri Dec  8 04:19:00 2023, MaxMem=           0 cpu:               0.3 elap:               0.0
 (Enter /home/sekinelabo/g16/l101.exe)
 -----
 DPGEN
 -----
 Symbolic Z-matrix:
 Charge =  0 Multiplicity = 2
 Na                    12.9694   12.4088   13.5079 
 Na                    9.92176   9.82038   13.7241 
 Na                    13.3672   8.98857   12.2629 
 Na                    9.56882   13.4356   12.3747 
 Na                    14.0626   12.0587   9.90636 
 Na                    11.8906   14.9087   10.5764 
 Na                    11.0903   11.2499   10.5183 
 
 ITRead=  0  0  0  0  0  0  0
 MicOpt= -1 -1 -1 -1 -1 -1 -1
 NAtoms=      7 NQM=        7 NQMF=       0 NMMI=      0 NMMIF=      0
                NMic=       0 NMicF=      0.
                    Isotopes and Nuclear Properties:
 (Nuclear quadrupole moments (NQMom) in fm**2, nuclear magnetic moments (NMagM)
  in nuclear magnetons)

  Atom         1           2           3           4           5           6           7
 IAtWgt=          23          23          23          23          23          23          23
 AtmWgt=  22.9897697  22.9897697  22.9897697  22.9897697  22.9897697  22.9897697  22.9897697
 NucSpn=           3           3           3           3           3           3           3
 AtZEff=  -0.0000000  -0.0000000  -0.0000000  -0.0000000  -0.0000000  -0.0000000  -0.0000000
 NQMom=   10.4000000  10.4000000  10.4000000  10.4000000  10.4000000  10.4000000  10.4000000
 NMagM=    2.2175200   2.2175200   2.2175200   2.2175200   2.2175200   2.2175200   2.2175200
 AtZNuc=  11.0000000  11.0000000  11.0000000  11.0000000  11.0000000  11.0000000  11.0000000
 Leave Link  101 at Fri Dec  8 04:19:00 2023, MaxMem=  1879048192 cpu:               2.4 elap:               0.2
 (Enter /home/sekinelabo/g16/l103.exe)

 GradGradGradGradGradGradGradGradGradGradGradGradGradGradGradGradGradGrad
 Berny optimization.
 Initialization pass.
 Trust Radius=3.00D-01 FncErr=1.00D-07 GrdErr=1.00D-07 EigMax=2.50D+02 EigMin=1.00D-04
 Number of steps in this run=      2 maximum allowed number of steps=      2.
 GradGradGradGradGradGradGradGradGradGradGradGradGradGradGradGradGradGrad

 Leave Link  103 at Fri Dec  8 04:19:00 2023, MaxMem=  1879048192 cpu:               0.2 elap:               0.0
 (Enter /home/sekinelabo/g16/l202.exe)
                          Input orientation:                          
 ---------------------------------------------------------------------
 Center     Atomic      Atomic             Coordinates (Angstroms)
 Number     Number       Type             X           Y           Z
 ---------------------------------------------------------------------
      1         11           0       12.969400   12.408800   13.507900
      2         11           0        9.921760    9.820380   13.724100
      3         11           0       13.367200    8.988570   12.262900
      4         11           0        9.568820   13.435600   12.374700
      5         11           0       14.062600   12.058700    9.906360
      6         11           0       11.890600   14.908700   10.576400
      7         11           0       11.090300   11.249900   10.518300
 ---------------------------------------------------------------------
                    Distance matrix (angstroms):
                    1          2          3          4          5
     1  Na   0.000000
     2  Na   4.004344   0.000000
     3  Na   3.661454   3.833806   0.000000
     4  Na   3.728593   3.874953   5.849467   0.000000
     5  Na   3.780046   6.060674   3.932246   5.308730   0.000000
     6  Na   4.000875   6.298837   6.330290   3.285509   3.645413
     7  Na   3.716420   3.699482   3.652604   3.246291   3.140572
                    6          7
     6  Na   0.000000
     7  Na   3.745754   0.000000
 Stoichiometry    Na7(2)
 Framework group  C1[X(Na7)]
 Deg. of freedom    15
 Full point group                 C1      NOp   1
 Largest Abelian subgroup         C1      NOp   1
 Largest concise Abelian subgroup C1      NOp   1
                         Standard orientation:                         
 ---------------------------------------------------------------------
 Center     Atomic      Atomic             Coordinates (Angstroms)
 Number     Number       Type             X           Y           Z
 ---------------------------------------------------------------------
      1         11           0        0.181554    0.120033    2.083886
      2         11           0        2.706748   -1.983666   -0.203604
      3         11           0        2.691626    1.841788    0.048858
      4         11           0       -1.119057   -2.592955   -0.118501
      5         11           0       -1.123626    2.711185   -0.339167
      6         11           0       -3.312235   -0.161951    0.154916
      7         11           0       -0.025008    0.065566   -1.626389
 ---------------------------------------------------------------------
 Rotational constants (GHZ):           0.7678063           0.6231778           0.4437680
 Leave Link  202 at Fri Dec  8 04:19:00 2023, MaxMem=  1879048192 cpu:               0.0 elap:               0.0
 (Enter /home/sekinelabo/g16/l301.exe)
 Standard basis: 6-311+G(d) (5D, 7F)
 Ernie: Thresh=  0.10000D-02 Tol=  0.10000D-05 Strict=F.
 There are   217 symmetry adapted cartesian basis functions of A   symmetry.
 There are   210 symmetry adapted basis functions of A   symmetry.
   210 basis functions,   350 primitive gaussians,   217 cartesian basis functions
    39 alpha electrons       38 beta electrons
       nuclear repulsion energy       333.2830525508 Hartrees.
 IExCor=  402 DFT=T Ex+Corr=B3LYP ExCW=0 ScaHFX=  0.200000
 ScaDFX=  0.800000  0.720000  1.000000  0.810000 ScalE2=  1.000000  1.000000
 IRadAn=      5 IRanWt=     -1 IRanGd=            0 ICorTp=0 IEmpDi=  4
 NAtoms=    7 NActive=    7 NUniq=    7 SFac= 1.00D+00 NAtFMM=   60 NAOKFM=F Big=F
 Integral buffers will be    131072 words long.
 Raffenetti 2 integral format.
 Two-electron integral symmetry is turned on.
 Leave Link  301 at Fri Dec  8 04:19:00 2023, MaxMem=  1879048192 cpu:               0.5 elap:               0.0
 (Enter /home/sekinelabo/g16/l302.exe)
 NPDir=0 NMtPBC=     1 NCelOv=     1 NCel=       1 NClECP=     1 NCelD=      1
         NCelK=      1 NCelE2=     1 NClLst=     1 CellRange=     0.0.
 One-electron integrals computed using PRISM.
 One-electron integral symmetry used in STVInt
 NBasis=   210 RedAO= T EigKep=  4.53D-06  NBF=   210
 NBsUse=   210 1.00D-06 EigRej= -1.00D+00 NBFU=   210
 Precomputing XC quadrature grid using
 IXCGrd= 4 IRadAn=           5 IRanWt=          -1 IRanGd=           0 AccXCQ= 0.00D+00.
 Generated NRdTot=       0 NPtTot=           0 NUsed=           0 NTot=          32
 NSgBfM=   211   211   211   211   211 MxSgAt=     7 MxSgA2=     7.
 Leave Link  302 at Fri Dec  8 04:19:00 2023, MaxMem=  1879048192 cpu:               1.9 elap:               0.1
 (Enter /home/sekinelabo/g16/l303.exe)
 DipDrv:  MaxL=1.
 Leave Link  303 at Fri Dec  8 04:19:00 2023, MaxMem=  1879048192 cpu:               0.5 elap:               0.0
 (Enter /home/sekinelabo/g16/l401.exe)
 ExpMin= 7.60D-03 ExpMax= 3.62D+04 ExpMxC= 1.21D+03 IAcc=3 IRadAn=         5 AccDes= 0.00D+00
 Harris functional with IExCor=  402 and IRadAn=       5 diagonalized for initial guess.
 HarFok:  IExCor=  402 AccDes= 0.00D+00 IRadAn=         5 IDoV= 1 UseB2=F ITyADJ=14
 ICtDFT=  3500011 ScaDFX=  1.000000  1.000000  1.000000  1.000000
 FoFCou: FMM=F IPFlag=           0 FMFlag=      100000 FMFlg1=           0
         NFxFlg=           0 DoJE=T BraDBF=F KetDBF=T FulRan=T
         wScrn=  0.000000 ICntrl=       500 IOpCl=  0 I1Cent=   200000004 NGrid=           0
         NMat0=    1 NMatS0=      1 NMatT0=    0 NMatD0=    1 NMtDS0=    0 NMtDT0=    0
 Petite list used in FoFCou.
 Harris En= -1135.90507681772    
 JPrj=0 DoOrth=F DoCkMO=F.
 Initial guess <Sx>= 0.0000 <Sy>= 0.0000 <Sz>= 0.5000 <S**2>= 0.7500 S= 0.5000
 Leave Link  401 at Fri Dec  8 04:19:01 2023, MaxMem=  1879048192 cpu:               4.5 elap:               0.3
 (Enter /home/sekinelabo/g16/l502.exe)
 Keep R1 and R2 ints in memory in canonical form, NReq=506573335.
 FoFCou: FMM=F IPFlag=           0 FMFlag=           0 FMFlg1=           0
         NFxFlg=           0 DoJE=F BraDBF=F KetDBF=F FulRan=T
         wScrn=  0.000000 ICntrl=       600 IOpCl=  0 I1Cent=           0 NGrid=           0
         NMat0=    1 NMatS0=  22155 NMatT0=    0 NMatD0=    1 NMtDS0=    0 NMtDT0=    0
 Symmetry not used in FoFCou.
 Two-electron integral symmetry not used.
 UHF open shell SCF:
 Using DIIS extrapolation, IDIIS=  1040.
 NGot=  1879048192 LenX=  1388082565 LenY=  1388035035
 Requested convergence on RMS density matrix=1.00D-08 within 128 cycles.
 Requested convergence on MAX density matrix=1.00D-06.
 Requested convergence on             energy=1.00D-06.
 No special actions if energy rises.

 Cycle   1  Pass 1  IDiag  1:
 E= -1136.09718298405    
 DIIS: error= 1.20D-02 at cycle   1 NSaved=   1.
 NSaved= 1 IEnMin= 1 EnMin= -1136.09718298405     IErMin= 1 ErrMin= 1.20D-02
 ErrMax= 1.20D-02  0.00D+00 EMaxC= 1.00D-01 BMatC= 1.95D-01 BMatP= 1.95D-01
 IDIUse=3 WtCom= 8.80D-01 WtEn= 1.20D-01
 Coeff-Com:  0.100D+01
 Coeff-En:   0.100D+01
 Coeff:      0.100D+01
 Gap=     0.034 Goal=   None    Shift=    0.000
 Gap=     0.053 Goal=   None    Shift=    0.000
 GapD=    0.034 DampG=0.250 DampE=0.500 DampFc=0.2500 IDamp=-1.
 Damping current iteration by 2.50D-01
 RMSDP=2.19D-02 MaxDP=1.60D+00              OVMax= 2.56D-01

 Cycle   2  Pass 1  IDiag  1:
 E= -1136.11048190911     Delta-E=       -0.013298925064 Rises=F Damp=T
 DIIS: error= 8.31D-03 at cycle   2 NSaved=   2.
 NSaved= 2 IEnMin= 2 EnMin= -1136.11048190911     IErMin= 2 ErrMin= 8.31D-03
 ErrMax= 8.31D-03  0.00D+00 EMaxC= 1.00D-01 BMatC= 7.36D-02 BMatP= 1.95D-01
 IDIUse=3 WtCom= 9.17D-01 WtEn= 8.31D-02
 Coeff-Com: -0.126D+01 0.226D+01
 Coeff-En:   0.000D+00 0.100D+01
 Coeff:     -0.115D+01 0.215D+01
 Gap=     0.050 Goal=   None    Shift=    0.000
 Gap=     0.059 Goal=   None    Shift=    0.000
 RMSDP=1.34D-02 MaxDP=1.48D+00 DE=-1.33D-02 OVMax= 1.70D-01

 Cycle   3  Pass 1  IDiag  1:
 E= -1136.13178421864     Delta-E=       -0.021302309528 Rises=F Damp=F
 DIIS: error= 3.07D-03 at cycle   3 NSaved=   3.
 NSaved= 3 IEnMin= 3 EnMin= -1136.13178421864     IErMin= 3 ErrMin= 3.07D-03
 ErrMax= 3.07D-03  0.00D+00 EMaxC= 1.00D-01 BMatC= 3.52D-03 BMatP= 7.36D-02
 IDIUse=3 WtCom= 9.69D-01 WtEn= 3.07D-02
 Coeff-Com: -0.239D+00 0.430D+00 0.809D+00
 Coeff-En:   0.000D+00 0.000D+00 0.100D+01
 Coeff:     -0.232D+00 0.417D+00 0.815D+00
 Gap=     0.045 Goal=   None    Shift=    0.000
 Gap=     0.053 Goal=   None    Shift=    0.000
 RMSDP=6.08D-03 MaxDP=8.84D-01 DE=-2.13D-02 OVMax= 1.27D-01

 Cycle   4  Pass 1  IDiag  1:
 E= -1136.12769034514     Delta-E=        0.004093873499 Rises=F Damp=F
 DIIS: error= 5.38D-03 at cycle   4 NSaved=   4.
 NSaved= 4 IEnMin= 3 EnMin= -1136.13178421864     IErMin= 3 ErrMin= 3.07D-03
 ErrMax= 5.38D-03  0.00D+00 EMaxC= 1.00D-01 BMatC= 6.23D-03 BMatP= 3.52D-03
 IDIUse=3 WtCom= 1.20D-01 WtEn= 8.80D-01
 Coeff-Com: -0.557D-02 0.141D-01 0.570D+00 0.421D+00
 Coeff-En:   0.000D+00 0.000D+00 0.647D+00 0.353D+00
 Coeff:     -0.669D-03 0.170D-02 0.638D+00 0.361D+00
 Gap=     0.046 Goal=   None    Shift=    0.000
 Gap=     0.053 Goal=   None    Shift=    0.000
 RMSDP=2.28D-03 MaxDP=4.12D-01 DE= 4.09D-03 OVMax= 7.93D-02

 Cycle   5  Pass 1  IDiag  1:
 E= -1136.13498754884     Delta-E=       -0.007297203696 Rises=F Damp=F
 DIIS: error= 1.13D-03 at cycle   5 NSaved=   5.
 NSaved= 5 IEnMin= 5 EnMin= -1136.13498754884     IErMin= 5 ErrMin= 1.13D-03
 ErrMax= 1.13D-03  0.00D+00 EMaxC= 1.00D-01 BMatC= 3.43D-04 BMatP= 3.52D-03
 IDIUse=3 WtCom= 9.89D-01 WtEn= 1.13D-02
 Coeff-Com:  0.328D-02-0.529D-02 0.346D+00 0.200D+00 0.457D+00
 Coeff-En:   0.000D+00 0.000D+00 0.000D+00 0.000D+00 0.100D+01
 Coeff:      0.325D-02-0.523D-02 0.342D+00 0.197D+00 0.463D+00
 Gap=     0.047 Goal=   None    Shift=    0.000
 Gap=     0.053 Goal=   None    Shift=    0.000
 RMSDP=1.06D-03 MaxDP=1.45D-01 DE=-7.30D-03 OVMax= 1.28D-02

 Cycle   6  Pass 1  IDiag  1:
 E= -1136.13524968012     Delta-E=       -0.000262131285 Rises=F Damp=F
 DIIS: error= 9.90D-05 at cycle   6 NSaved=   6.
 NSaved= 6 IEnMin= 6 EnMin= -1136.13524968012     IErMin= 6 ErrMin= 9.90D-05
 ErrMax= 9.90D-05  0.00D+00 EMaxC= 1.00D-01 BMatC= 4.47D-06 BMatP= 3.43D-04
 IDIUse=1 WtCom= 1.00D+00 WtEn= 0.00D+00
 Coeff-Com: -0.285D-02 0.337D-02 0.338D-01 0.101D-01 0.115D+00 0.841D+00
 Coeff:     -0.285D-02 0.337D-02 0.338D-01 0.101D-01 0.115D+00 0.841D+00
 Gap=     0.047 Goal=   None    Shift=    0.000
 Gap=     0.053 Goal=   None    Shift=    0.000
 RMSDP=3.03D-04 MaxDP=4.72D-02 DE=-2.62D-04 OVMax= 3.82D-03

 Cycle   7  Pass 1  IDiag  1:
 E= -1136.13525300771     Delta-E=       -0.000003327586 Rises=F Damp=F
 DIIS: error= 9.39D-05 at cycle   7 NSaved=   7.
 NSaved= 7 IEnMin= 7 EnMin= -1136.13525300771     IErMin= 7 ErrMin= 9.39D-05
 ErrMax= 9.39D-05  0.00D+00 EMaxC= 1.00D-01 BMatC= 2.40D-06 BMatP= 4.47D-06
 IDIUse=1 WtCom= 1.00D+00 WtEn= 0.00D+00
 Coeff-Com: -0.218D-02 0.271D-02-0.257D-01-0.213D-01 0.119D-01 0.518D+00
 Coeff-Com:  0.517D+00
 Coeff:     -0.218D-02 0.271D-02-0.257D-01-0.213D-01 0.119D-01 0.518D+00
 Coeff:      0.517D+00
 Gap=     0.047 Goal=   None    Shift=    0.000
 Gap=     0.053 Goal=   None    Shift=    0.000
 RMSDP=2.15D-04 MaxDP=4.45D-02 DE=-3.33D-06 OVMax= 1.88D-03

 Cycle   8  Pass 1  IDiag  1:
 E= -1136.13525585562     Delta-E=       -0.000002847913 Rises=F Damp=F
 DIIS: error= 1.26D-05 at cycle   8 NSaved=   8.
 NSaved= 8 IEnMin= 8 EnMin= -1136.13525585562     IErMin= 8 ErrMin= 1.26D-05
 ErrMax= 1.26D-05  0.00D+00 EMaxC= 1.00D-01 BMatC= 4.70D-08 BMatP= 2.40D-06
 IDIUse=1 WtCom= 1.00D+00 WtEn= 0.00D+00
 Coeff-Com:  0.473D-03-0.632D-03-0.458D-02-0.197D-02-0.858D-02-0.602D-01
 Coeff-Com:  0.245D-01 0.105D+01
 Coeff:      0.473D-03-0.632D-03-0.458D-02-0.197D-02-0.858D-02-0.602D-01
 Coeff:      0.245D-01 0.105D+01
 Gap=     0.047 Goal=   None    Shift=    0.000
 Gap=     0.053 Goal=   None    Shift=    0.000
 RMSDP=5.90D-05 MaxDP=6.97D-03 DE=-2.85D-06 OVMax= 5.44D-04

 Cycle   9  Pass 1  IDiag  1:
 E= -1136.13525597955     Delta-E=       -0.000000123929 Rises=F Damp=F
 DIIS: error= 1.21D-05 at cycle   9 NSaved=   9.
 NSaved= 9 IEnMin= 9 EnMin= -1136.13525597955     IErMin= 9 ErrMin= 1.21D-05
 ErrMax= 1.21D-05  0.00D+00 EMaxC= 1.00D-01 BMatC= 3.05D-08 BMatP= 4.70D-08
 IDIUse=1 WtCom= 1.00D+00 WtEn= 0.00D+00
 Coeff-Com:  0.470D-03-0.607D-03-0.820D-03 0.742D-03-0.718D-02-0.788D-01
 Coeff-Com: -0.342D-01 0.578D+00 0.542D+00
 Coeff:      0.470D-03-0.607D-03-0.820D-03 0.742D-03-0.718D-02-0.788D-01
 Coeff:     -0.342D-01 0.578D+00 0.542D+00
 Gap=     0.047 Goal=   None    Shift=    0.000
 Gap=     0.053 Goal=   None    Shift=    0.000
 RMSDP=1.29D-05 MaxDP=1.29D-03 DE=-1.24D-07 OVMax= 3.11D-04

 Cycle  10  Pass 1  IDiag  1:
 E= -1136.13525602578     Delta-E=       -0.000000046228 Rises=F Damp=F
 DIIS: error= 7.38D-06 at cycle  10 NSaved=  10.
 NSaved=10 IEnMin=10 EnMin= -1136.13525602578     IErMin=10 ErrMin= 7.38D-06
 ErrMax= 7.38D-06  0.00D+00 EMaxC= 1.00D-01 BMatC= 9.00D-09 BMatP= 3.05D-08
 IDIUse=1 WtCom= 1.00D+00 WtEn= 0.00D+00
 Coeff-Com:  0.124D-03-0.152D-03 0.745D-03 0.109D-02-0.235D-02-0.258D-01
 Coeff-Com: -0.270D-01-0.127D-01 0.351D+00 0.715D+00
 Coeff:      0.124D-03-0.152D-03 0.745D-03 0.109D-02-0.235D-02-0.258D-01
 Coeff:     -0.270D-01-0.127D-01 0.351D+00 0.715D+00
 Gap=     0.047 Goal=   None    Shift=    0.000
 Gap=     0.053 Goal=   None    Shift=    0.000
 RMSDP=8.64D-06 MaxDP=1.22D-03 DE=-4.62D-08 OVMax= 2.13D-04

 Cycle  11  Pass 1  IDiag  1:
 E= -1136.13525604847     Delta-E=       -0.000000022686 Rises=F Damp=F
 DIIS: error= 1.77D-06 at cycle  11 NSaved=  11.
 NSaved=11 IEnMin=11 EnMin= -1136.13525604847     IErMin=11 ErrMin= 1.77D-06
 ErrMax= 1.77D-06  0.00D+00 EMaxC= 1.00D-01 BMatC= 8.67D-10 BMatP= 9.00D-09
 IDIUse=1 WtCom= 1.00D+00 WtEn= 0.00D+00
 Coeff-Com: -0.737D-04 0.976D-04 0.578D-03 0.590D-05 0.160D-02 0.108D-01
 Coeff-Com:  0.745D-02-0.119D+00-0.145D+00-0.154D-01 0.126D+01
 Coeff:     -0.737D-04 0.976D-04 0.578D-03 0.590D-05 0.160D-02 0.108D-01
 Coeff:      0.745D-02-0.119D+00-0.145D+00-0.154D-01 0.126D+01
 Gap=     0.047 Goal=   None    Shift=    0.000
 Gap=     0.053 Goal=   None    Shift=    0.000
 RMSDP=6.35D-06 MaxDP=4.66D-04 DE=-2.27D-08 OVMax= 2.00D-04

 Cycle  12  Pass 1  IDiag  1:
 E= -1136.13525605521     Delta-E=       -0.000000006743 Rises=F Damp=F
 DIIS: error= 6.73D-07 at cycle  12 NSaved=  12.
 NSaved=12 IEnMin=12 EnMin= -1136.13525605521     IErMin=12 ErrMin= 6.73D-07
 ErrMax= 6.73D-07  0.00D+00 EMaxC= 1.00D-01 BMatC= 1.46D-10 BMatP= 8.67D-10
 IDIUse=1 WtCom= 1.00D+00 WtEn= 0.00D+00
 Coeff-Com: -0.383D-04 0.486D-04 0.346D-04-0.155D-03 0.780D-03 0.587D-02
 Coeff-Com:  0.485D-02-0.227D-01-0.720D-01-0.103D+00 0.190D+00 0.997D+00
 Coeff:     -0.383D-04 0.486D-04 0.346D-04-0.155D-03 0.780D-03 0.587D-02
 Coeff:      0.485D-02-0.227D-01-0.720D-01-0.103D+00 0.190D+00 0.997D+00
 Gap=     0.047 Goal=   None    Shift=    0.000
 Gap=     0.053 Goal=   None    Shift=    0.000
 RMSDP=2.53D-06 MaxDP=3.26D-04 DE=-6.74D-09 OVMax= 7.80D-05

 Cycle  13  Pass 1  IDiag  1:
 E= -1136.13525605630     Delta-E=       -0.000000001086 Rises=F Damp=F
 DIIS: error= 4.03D-07 at cycle  13 NSaved=  13.
 NSaved=13 IEnMin=13 EnMin= -1136.13525605630     IErMin=13 ErrMin= 4.03D-07
 ErrMax= 4.03D-07  0.00D+00 EMaxC= 1.00D-01 BMatC= 4.06D-11 BMatP= 1.46D-10
 IDIUse=1 WtCom= 1.00D+00 WtEn= 0.00D+00
 Coeff-Com:  0.790D-05-0.113D-04-0.139D-03-0.266D-04-0.201D-03-0.138D-02
 Coeff-Com: -0.243D-03 0.218D-01 0.211D-01-0.955D-02-0.283D+00 0.186D+00
 Coeff-Com:  0.107D+01
 Coeff:      0.790D-05-0.113D-04-0.139D-03-0.266D-04-0.201D-03-0.138D-02
 Coeff:     -0.243D-03 0.218D-01 0.211D-01-0.955D-02-0.283D+00 0.186D+00
 Coeff:      0.107D+01
 Gap=     0.047 Goal=   None    Shift=    0.000
 Gap=     0.053 Goal=   None    Shift=    0.000
 RMSDP=1.26D-06 MaxDP=1.42D-04 DE=-1.09D-09 OVMax= 3.52D-05

 Cycle  14  Pass 1  IDiag  1:
 E= -1136.13525605659     Delta-E=       -0.000000000296 Rises=F Damp=F
 DIIS: error= 1.86D-07 at cycle  14 NSaved=  14.
 NSaved=14 IEnMin=14 EnMin= -1136.13525605659     IErMin=14 ErrMin= 1.86D-07
 ErrMax= 1.86D-07  0.00D+00 EMaxC= 1.00D-01 BMatC= 7.40D-12 BMatP= 4.06D-11
 IDIUse=1 WtCom= 1.00D+00 WtEn= 0.00D+00
 Coeff-Com:  0.931D-05-0.119D-04-0.285D-04 0.256D-04-0.196D-03-0.116D-02
 Coeff-Com: -0.122D-02 0.550D-02 0.160D-01 0.214D-01-0.410D-01-0.214D+00
 Coeff-Com: -0.941D-02 0.122D+01
 Coeff:      0.931D-05-0.119D-04-0.285D-04 0.256D-04-0.196D-03-0.116D-02
 Coeff:     -0.122D-02 0.550D-02 0.160D-01 0.214D-01-0.410D-01-0.214D+00
 Coeff:     -0.941D-02 0.122D+01
 Gap=     0.047 Goal=   None    Shift=    0.000
 Gap=     0.053 Goal=   None    Shift=    0.000
 RMSDP=4.99D-07 MaxDP=3.23D-05 DE=-2.96D-10 OVMax= 1.80D-05

 Cycle  15  Pass 1  IDiag  1:
 E= -1136.13525605666     Delta-E=       -0.000000000072 Rises=F Damp=F
 DIIS: error= 7.49D-08 at cycle  15 NSaved=  15.
 NSaved=15 IEnMin=15 EnMin= -1136.13525605666     IErMin=15 ErrMin= 7.49D-08
 ErrMax= 7.49D-08  0.00D+00 EMaxC= 1.00D-01 BMatC= 1.39D-12 BMatP= 7.40D-12
 IDIUse=1 WtCom= 1.00D+00 WtEn= 0.00D+00
 Coeff-Com: -0.188D-05 0.271D-05 0.341D-04 0.346D-05 0.560D-04 0.273D-03
 Coeff-Com:  0.679D-04-0.440D-02-0.640D-02-0.624D-03 0.719D-01-0.401D-01
 Coeff-Com: -0.240D+00-0.239D-01 0.124D+01
 Coeff:     -0.188D-05 0.271D-05 0.341D-04 0.346D-05 0.560D-04 0.273D-03
 Coeff:      0.679D-04-0.440D-02-0.640D-02-0.624D-03 0.719D-01-0.401D-01
 Coeff:     -0.240D+00-0.239D-01 0.124D+01
 Gap=     0.047 Goal=   None    Shift=    0.000
 Gap=     0.053 Goal=   None    Shift=    0.000
 RMSDP=3.08D-07 MaxDP=2.93D-05 DE=-7.23D-11 OVMax= 8.48D-06

 Cycle  16  Pass 1  IDiag  1:
 E= -1136.13525605667     Delta-E=       -0.000000000008 Rises=F Damp=F
 DIIS: error= 2.94D-08 at cycle  16 NSaved=  16.
 NSaved=16 IEnMin=16 EnMin= -1136.13525605667     IErMin=16 ErrMin= 2.94D-08
 ErrMax= 2.94D-08  0.00D+00 EMaxC= 1.00D-01 BMatC= 2.24D-13 BMatP= 1.39D-12
 IDIUse=1 WtCom= 1.00D+00 WtEn= 0.00D+00
 Coeff-Com: -0.137D-05 0.176D-05 0.401D-05-0.176D-05 0.210D-04 0.135D-03
 Coeff-Com:  0.192D-03-0.427D-03-0.163D-02-0.261D-02-0.188D-02 0.365D-01
 Coeff-Com:  0.231D-01-0.186D+00-0.108D+00 0.124D+01
 Coeff:     -0.137D-05 0.176D-05 0.401D-05-0.176D-05 0.210D-04 0.135D-03
 Coeff:      0.192D-03-0.427D-03-0.163D-02-0.261D-02-0.188D-02 0.365D-01
 Coeff:      0.231D-01-0.186D+00-0.108D+00 0.124D+01
 Gap=     0.047 Goal=   None    Shift=    0.000
 Gap=     0.053 Goal=   None    Shift=    0.000
 RMSDP=1.28D-07 MaxDP=1.57D-05 DE=-7.73D-12 OVMax= 3.36D-06

 Cycle  17  Pass 1  IDiag  1:
 E= -1136.13525605668     Delta-E=       -0.000000000007 Rises=F Damp=F
 DIIS: error= 1.23D-08 at cycle  17 NSaved=  17.
 NSaved=17 IEnMin=17 EnMin= -1136.13525605668     IErMin=17 ErrMin= 1.23D-08
 ErrMax= 1.23D-08  0.00D+00 EMaxC= 1.00D-01 BMatC= 5.45D-14 BMatP= 2.24D-13
 IDIUse=1 WtCom= 1.00D+00 WtEn= 0.00D+00
 Coeff-Com:  0.315D-06-0.469D-06-0.629D-05-0.319D-06-0.104D-04-0.424D-04
 Coeff-Com: -0.292D-04 0.944D-03 0.143D-02-0.190D-03-0.160D-01 0.128D-01
 Coeff-Com:  0.554D-01-0.215D-01-0.282D+00 0.199D+00 0.105D+01
 Coeff:      0.315D-06-0.469D-06-0.629D-05-0.319D-06-0.104D-04-0.424D-04
 Coeff:     -0.292D-04 0.944D-03 0.143D-02-0.190D-03-0.160D-01 0.128D-01
 Coeff:      0.554D-01-0.215D-01-0.282D+00 0.199D+00 0.105D+01
 Gap=     0.047 Goal=   None    Shift=    0.000
 Gap=     0.053 Goal=   None    Shift=    0.000
 RMSDP=4.74D-08 MaxDP=4.43D-06 DE=-7.28D-12 OVMax= 1.55D-06

 Cycle  18  Pass 1  IDiag  1:
 E= -1136.13525605668     Delta-E=        0.000000000003 Rises=F Damp=F
 DIIS: error= 6.76D-09 at cycle  18 NSaved=  18.
 NSaved=18 IEnMin=17 EnMin= -1136.13525605668     IErMin=18 ErrMin= 6.76D-09
 ErrMax= 6.76D-09  0.00D+00 EMaxC= 1.00D-01 BMatC= 8.46D-15 BMatP= 5.45D-14
 IDIUse=1 WtCom= 1.00D+00 WtEn= 0.00D+00
 Coeff-Com:  0.361D-06-0.474D-06-0.219D-05-0.141D-06-0.513D-05-0.276D-04
 Coeff-Com: -0.480D-04 0.169D-03 0.543D-03 0.657D-03-0.123D-02-0.783D-02
 Coeff-Com:  0.101D-02 0.422D-01-0.734D-02-0.267D+00 0.142D+00 0.110D+01
 Coeff:      0.361D-06-0.474D-06-0.219D-05-0.141D-06-0.513D-05-0.276D-04
 Coeff:     -0.480D-04 0.169D-03 0.543D-03 0.657D-03-0.123D-02-0.783D-02
 Coeff:      0.101D-02 0.422D-01-0.734D-02-0.267D+00 0.142D+00 0.110D+01
 Gap=     0.047 Goal=   None    Shift=    0.000
 Gap=     0.053 Goal=   None    Shift=    0.000
 RMSDP=1.97D-08 MaxDP=1.50D-06 DE= 2.73D-12 OVMax= 5.82D-07

 Cycle  19  Pass 1  IDiag  1:
 E= -1136.13525605667     Delta-E=        0.000000000010 Rises=F Damp=F
 DIIS: error= 1.49D-09 at cycle  19 NSaved=  19.
 NSaved=19 IEnMin=17 EnMin= -1136.13525605668     IErMin=19 ErrMin= 1.49D-09
 ErrMax= 1.49D-09  0.00D+00 EMaxC= 1.00D-01 BMatC= 6.74D-16 BMatP= 8.46D-15
 IDIUse=1 WtCom= 1.00D+00 WtEn= 0.00D+00
 Large coefficients: NSaved= 19 BigCof=    0.00 CofMax=   10.00 Det=-2.62D-15
 Inversion failed.  Reducing to 18 matrices.
 Large coefficients: NSaved= 18 BigCof=    0.00 CofMax=   10.00 Det=-2.92D-15
 Inversion failed.  Reducing to 17 matrices.
 Large coefficients: NSaved= 17 BigCof=    0.00 CofMax=   10.00 Det=-2.97D-15
 Inversion failed.  Reducing to 16 matrices.
 Large coefficients: NSaved= 16 BigCof=    0.00 CofMax=   10.00 Det=-3.11D-15
 Inversion failed.  Reducing to 15 matrices.
 Coeff-Com: -0.287D-06-0.150D-05-0.414D-05-0.224D-04-0.246D-04 0.742D-04
 Coeff-Com:  0.726D-03-0.189D-02-0.315D-02 0.832D-02 0.149D-01-0.438D-01
 Coeff-Com: -0.785D-01 0.158D+00 0.945D+00
 Coeff:     -0.287D-06-0.150D-05-0.414D-05-0.224D-04-0.246D-04 0.742D-04
 Coeff:      0.726D-03-0.189D-02-0.315D-02 0.832D-02 0.149D-01-0.438D-01
 Coeff:     -0.785D-01 0.158D+00 0.945D+00
 Gap=     0.047 Goal=   None    Shift=    0.000
 Gap=     0.053 Goal=   None    Shift=    0.000
 RMSDP=4.69D-09 MaxDP=2.01D-07 DE= 1.05D-11 OVMax= 9.63D-08

 SCF Done:  E(UB3LYP) =  -1136.13525606     A.U. after   19 cycles
            NFock= 19  Conv=0.47D-08     -V/T= 2.0029
 <Sx>= 0.0000 <Sy>= 0.0000 <Sz>= 0.5000 <S**2>= 0.7597 S= 0.5048
 <L.S>= 0.000000000000E+00
 KE= 1.132851566558D+03 PE=-3.395973337133D+03 EE= 7.937034619674D+02
 Annihilation of the first spin contaminant:
 S**2 before annihilation     0.7597,   after     0.7501
 Leave Link  502 at Fri Dec  8 04:19:17 2023, MaxMem=  1879048192 cpu:             180.6 elap:              15.9
 (Enter /home/sekinelabo/g16/l601.exe)
 Copying SCF densities to generalized density rwf, IOpCl= 1 IROHF=0.

 **********************************************************************

            Population analysis using the SCF Density.

 **********************************************************************

 Orbital symmetries:
 Alpha Orbitals:
       Occupied  (A) (A) (A) (A) (A) (A) (A) (A) (A) (A) (A) (A)
                 (A) (A) (A) (A) (A) (A) (A) (A) (A) (A) (A) (A)
                 (A) (A) (A) (A) (A) (A) (A) (A) (A) (A) (A) (A)
                 (A) (A) (A)
       Virtual   (A) (A) (A) (A) (A) (A) (A) (A) (A) (A) (A) (A)
                 (A) (A) (A) (A) (A) (A) (A) (A) (A) (A) (A) (A)
                 (A) (A) (A) (A) (A) (A) (A) (A) (A) (A) (A) (A)
                 (A) (A) (A) (A) (A) (A) (A) (A) (A) (A) (A) (A)
                 (A) (A) (A) (A) (A) (A) (A) (A) (A) (A) (A) (A)
                 (A) (A) (A) (A) (A) (A) (A) (A) (A) (A) (A) (A)
                 (A) (A) (A) (A) (A) (A) (A) (A) (A) (A) (A) (A)
                 (A) (A) (A) (A) (A) (A) (A) (A) (A) (A) (A) (A)
                 (A) (A) (A) (A) (A) (A) (A) (A) (A) (A) (A) (A)
                 (A) (A) (A) (A) (A) (A) (A) (A) (A) (A) (A) (A)
                 (A) (A) (A) (A) (A) (A) (A) (A) (A) (A) (A) (A)
                 (A) (A) (A) (A) (A) (A) (A) (A) (A) (A) (A) (A)
                 (A) (A) (A) (A) (A) (A) (A) (A) (A) (A) (A) (A)
                 (A) (A) (A) (A) (A) (A) (A) (A) (A) (A) (A) (A)
                 (A) (A) (A)
 Beta  Orbitals:
       Occupied  (A) (A) (A) (A) (A) (A) (A) (A) (A) (A) (A) (A)
                 (A) (A) (A) (A) (A) (A) (A) (A) (A) (A) (A) (A)
                 (A) (A) (A) (A) (A) (A) (A) (A) (A) (A) (A) (A)
                 (A) (A)
       Virtual   (A) (A) (A) (A) (A) (A) (A) (A) (A) (A) (A) (A)
                 (A) (A) (A) (A) (A) (A) (A) (A) (A) (A) (A) (A)
                 (A) (A) (A) (A) (A) (A) (A) (A) (A) (A) (A) (A)
                 (A) (A) (A) (A) (A) (A) (A) (A) (A) (A) (A) (A)
                 (A) (A) (A) (A) (A) (A) (A) (A) (A) (A) (A) (A)
                 (A) (A) (A) (A) (A) (A) (A) (A) (A) (A) (A) (A)
                 (A) (A) (A) (A) (A) (A) (A) (A) (A) (A) (A) (A)
                 (A) (A) (A) (A) (A) (A) (A) (A) (A) (A) (A) (A)
                 (A) (A) (A) (A) (A) (A) (A) (A) (A) (A) (A) (A)
                 (A) (A) (A) (A) (A) (A) (A) (A) (A) (A) (A) (A)
                 (A) (A) (A) (A) (A) (A) (A) (A) (A) (A) (A) (A)
                 (A) (A) (A) (A) (A) (A) (A) (A) (A) (A) (A) (A)
                 (A) (A) (A) (A) (A) (A) (A) (A) (A) (A) (A) (A)
                 (A) (A) (A) (A) (A) (A) (A) (A) (A) (A) (A) (A)
                 (A) (A) (A) (A)
 The electronic state is 2-A.
 Alpha  occ. eigenvalues --  -38.44322 -38.44252 -38.44123 -38.43702 -38.43392
 Alpha  occ. eigenvalues --  -38.43291 -38.43210  -2.20107  -2.20071  -2.19897
 Alpha  occ. eigenvalues --   -2.19558  -2.19236  -2.19172  -2.19152  -1.13788
 Alpha  occ. eigenvalues --   -1.13768  -1.13743  -1.13742  -1.13734  -1.13714
 Alpha  occ. eigenvalues --   -1.13575  -1.13547  -1.13542  -1.13228  -1.13186
 Alpha  occ. eigenvalues --   -1.13173  -1.12995  -1.12910  -1.12890  -1.12852
 Alpha  occ. eigenvalues --   -1.12829  -1.12811  -1.12780  -1.12770  -1.12762
 Alpha  occ. eigenvalues --   -0.18303  -0.12971  -0.12223  -0.10568
 Alpha virt. eigenvalues --   -0.05880  -0.05632  -0.04431  -0.03167  -0.02741
 Alpha virt. eigenvalues --   -0.02519  -0.01784  -0.01367  -0.00566  -0.00367
 Alpha virt. eigenvalues --   -0.00032   0.00327   0.00713   0.00802   0.00874
 Alpha virt. eigenvalues --    0.00959   0.01004   0.01094   0.01217   0.01247
 Alpha virt. eigenvalues --    0.01360   0.01493   0.01726   0.01813   0.02169
 Alpha virt. eigenvalues --    0.02217   0.02247   0.02445   0.02519   0.02858
 Alpha virt. eigenvalues --    0.02876   0.02995   0.03035   0.03070   0.03181
 Alpha virt. eigenvalues --    0.03212   0.03285   0.03332   0.03425   0.03494
 Alpha virt. eigenvalues --    0.04013   0.04161   0.04437   0.04528   0.04776
 Alpha virt. eigenvalues --    0.04890   0.05018   0.05094   0.05142   0.05460
 Alpha virt. eigenvalues --    0.05905   0.06764   0.07134   0.07375   0.07463
 Alpha virt. eigenvalues --    0.07548   0.07688   0.07877   0.08339   0.09028
 Alpha virt. eigenvalues --    0.09333   0.09972   0.10544   0.10627   0.11354
 Alpha virt. eigenvalues --    0.11497   0.12057   0.12306   0.12668   0.12987
 Alpha virt. eigenvalues --    0.13610   0.14115   0.14441   0.14845   0.15034
 Alpha virt. eigenvalues --    0.15160   0.15528   0.15739   0.15781   0.17296
 Alpha virt. eigenvalues --    0.26461   0.26915   0.28012   0.28129   0.28975
 Alpha virt. eigenvalues --    0.30181   0.30674   0.31463   0.31821   0.33621
 Alpha virt. eigenvalues --    0.34489   0.34631   0.35970   0.37849   0.38195
 Alpha virt. eigenvalues --    0.38623   0.39427   0.41009   0.42586   0.43070
 Alpha virt. eigenvalues --    0.43619   0.43974   0.44136   0.44206   0.44514
 Alpha virt. eigenvalues --    0.44668   0.44804   0.44898   0.45196   0.45606
 Alpha virt. eigenvalues --    0.46054   0.46486   0.47109   0.48328   0.48642
 Alpha virt. eigenvalues --    0.48891   0.49510   0.50089   0.51036   0.51146
 Alpha virt. eigenvalues --    0.51953   0.53679   0.54453   0.55364   0.55482
 Alpha virt. eigenvalues --    0.56981   0.57563   0.57590   0.58299   0.59405
 Alpha virt. eigenvalues --    0.59915   0.60070   0.63627   0.65448   0.68005
 Alpha virt. eigenvalues --    0.71213   2.02241   2.12531   2.13983   2.17467
 Alpha virt. eigenvalues --    2.18087   2.20732   2.25322   4.43545   4.44197
 Alpha virt. eigenvalues --    4.45007   4.45468   4.45600   4.45905   4.46275
 Alpha virt. eigenvalues --    4.46448   4.46651   4.47542   4.47702   4.48429
 Alpha virt. eigenvalues --    4.48822   4.49699   4.50529   4.51690   4.53544
 Alpha virt. eigenvalues --    4.55872   4.57786   4.64495   4.66789  96.21876
 Alpha virt. eigenvalues --   96.33403  96.35096  96.39175  96.40107  96.43504
 Alpha virt. eigenvalues --   96.49228
  Beta  occ. eigenvalues --  -38.44320 -38.44250 -38.44121 -38.43606 -38.43382
  Beta  occ. eigenvalues --  -38.43285 -38.43146  -2.20107  -2.20070  -2.19896
  Beta  occ. eigenvalues --   -2.19382  -2.19221  -2.19145  -2.19056  -1.13769
  Beta  occ. eigenvalues --   -1.13766  -1.13746  -1.13745  -1.13718  -1.13711
  Beta  occ. eigenvalues --   -1.13561  -1.13548  -1.13542  -1.13110  -1.13063
  Beta  occ. eigenvalues --   -1.13046  -1.12963  -1.12877  -1.12863  -1.12844
  Beta  occ. eigenvalues --   -1.12788  -1.12774  -1.12758  -1.12701  -1.12690
  Beta  occ. eigenvalues --   -0.17584  -0.12784  -0.11973
  Beta virt. eigenvalues --   -0.06678  -0.05799  -0.05638  -0.04404  -0.02420
  Beta virt. eigenvalues --   -0.01998  -0.01687  -0.01441  -0.01305  -0.00622
  Beta virt. eigenvalues --   -0.00403   0.00116   0.00355   0.00769   0.00805
  Beta virt. eigenvalues --    0.00872   0.01069   0.01121   0.01190   0.01358
  Beta virt. eigenvalues --    0.01421   0.01477   0.01597   0.01759   0.01844
  Beta virt. eigenvalues --    0.02168   0.02198   0.02413   0.02421   0.02503
  Beta virt. eigenvalues --    0.02888   0.03035   0.03055   0.03084   0.03131
  Beta virt. eigenvalues --    0.03192   0.03269   0.03281   0.03424   0.03510
  Beta virt. eigenvalues --    0.03638   0.04091   0.04217   0.04457   0.04609
  Beta virt. eigenvalues --    0.04998   0.05125   0.05166   0.05206   0.05291
  Beta virt. eigenvalues --    0.05637   0.06233   0.06745   0.07153   0.07412
  Beta virt. eigenvalues --    0.07566   0.07746   0.07884   0.08017   0.08415
  Beta virt. eigenvalues --    0.09305   0.09504   0.10235   0.10684   0.10747
  Beta virt. eigenvalues --    0.11542   0.11618   0.12579   0.12641   0.12771
  Beta virt. eigenvalues --    0.13102   0.13714   0.14431   0.14525   0.15245
  Beta virt. eigenvalues --    0.15400   0.15425   0.15692   0.15898   0.16196
  Beta virt. eigenvalues --    0.17702   0.26601   0.27149   0.28278   0.28413
  Beta virt. eigenvalues --    0.29386   0.30283   0.30682   0.32015   0.32327
  Beta virt. eigenvalues --    0.33943   0.34719   0.34854   0.36168   0.37957
  Beta virt. eigenvalues --    0.38465   0.38826   0.39596   0.41086   0.42965
  Beta virt. eigenvalues --    0.43335   0.43711   0.43982   0.44134   0.44363
  Beta virt. eigenvalues --    0.44739   0.44856   0.44924   0.45067   0.45375
  Beta virt. eigenvalues --    0.45905   0.46139   0.46575   0.47299   0.48450
  Beta virt. eigenvalues --    0.48669   0.49077   0.49756   0.50135   0.51194
  Beta virt. eigenvalues --    0.51276   0.52069   0.54022   0.54711   0.55459
  Beta virt. eigenvalues --    0.55523   0.57295   0.57922   0.57972   0.58438
  Beta virt. eigenvalues --    0.59642   0.60169   0.60415   0.63875   0.65440
  Beta virt. eigenvalues --    0.68223   0.71409   2.02361   2.12533   2.13978
  Beta virt. eigenvalues --    2.17616   2.18187   2.20884   2.25578   4.43593
  Beta virt. eigenvalues --    4.44229   4.45045   4.45497   4.45639   4.45952
  Beta virt. eigenvalues --    4.46289   4.46469   4.46665   4.47561   4.47806
  Beta virt. eigenvalues --    4.48510   4.48849   4.49770   4.50604   4.51736
  Beta virt. eigenvalues --    4.53601   4.55884   4.57834   4.64569   4.66875
  Beta virt. eigenvalues --   96.21912  96.33406  96.35097  96.39236  96.40131
  Beta virt. eigenvalues --   96.43545  96.49302
          Condensed to atoms (all electrons):
               1          2          3          4          5          6
     1  Na  15.143445  -0.215753   0.218488  -0.213816  -0.274440   0.550271
     2  Na  -0.215753  10.678682   0.184955   0.305453  -0.065773  -0.064524
     3  Na   0.218488   0.184955  10.718089  -0.016815   0.168553  -0.084930
     4  Na  -0.213816   0.305453  -0.016815  10.940930   0.011705   0.145538
     5  Na  -0.274440  -0.065773   0.168553   0.011705  10.955465   0.239680
     6  Na   0.550271  -0.064524  -0.084930   0.145538   0.239680  10.717433
     7  Na  -3.753693   0.159779  -0.281854  -0.298987  -0.234451  -0.638014
               7
     1  Na  -3.753693
     2  Na   0.159779
     3  Na  -0.281854
     4  Na  -0.298987
     5  Na  -0.234451
     6  Na  -0.638014
     7  Na  16.163212
          Atomic-Atomic Spin Densities.
               1          2          3          4          5          6
     1  Na   4.236863  -0.156153   0.219716   0.021864  -0.111411   0.477307
     2  Na  -0.156153  -0.071249  -0.069518  -0.038210   0.005251  -0.011891
     3  Na   0.219716  -0.069518  -0.080658  -0.000624  -0.007639   0.036089
     4  Na   0.021864  -0.038210  -0.000624  -0.053555   0.001734  -0.017883
     5  Na  -0.111411   0.005251  -0.007639   0.001734  -0.042981  -0.065938
     6  Na   0.477307  -0.011891   0.036089  -0.017883  -0.065938   0.005699
     7  Na  -3.891341   0.247918  -0.189810   0.023468   0.164936  -0.402994
               7
     1  Na  -3.891341
     2  Na   0.247918
     3  Na  -0.189810
     4  Na   0.023468
     5  Na   0.164936
     6  Na  -0.402994
     7  Na   4.536143
 Mulliken charges and spin densities:
               1          2
     1  Na  -0.454501   0.796846
     2  Na   0.017181  -0.093852
     3  Na   0.093514  -0.092446
     4  Na   0.125992  -0.063206
     5  Na   0.199259  -0.056049
     6  Na   0.134546   0.020388
     7  Na  -0.115991   0.488319
 Sum of Mulliken charges =  -0.00000   1.00000
 Mulliken charges and spin densities with hydrogens summed into heavy atoms:
               1          2
     1  Na  -0.454501   0.796846
     2  Na   0.017181  -0.093852
     3  Na   0.093514  -0.092446
     4  Na   0.125992  -0.063206
     5  Na   0.199259  -0.056049
     6  Na   0.134546   0.020388
     7  Na  -0.115991   0.488319
 Electronic spatial extent (au):  <R**2>=           2371.1817
 Charge=             -0.0000 electrons
 Dipole moment (field-independent basis, Debye):
    X=              0.2311    Y=              0.1186    Z=              0.1646  Tot=              0.3075
 Quadrupole moment (field-independent basis, Debye-Ang):
   XX=            -53.0292   YY=            -63.7745   ZZ=            -75.6338
   XY=             -0.0568   XZ=             -0.7125   YZ=             -0.0085
 Traceless Quadrupole moment (field-independent basis, Debye-Ang):
   XX=             11.1166   YY=              0.3714   ZZ=            -11.4880
   XY=             -0.0568   XZ=             -0.7125   YZ=             -0.0085
 Octapole moment (field-independent basis, Debye-Ang**2):
  XXX=             -2.0954  YYY=              2.4701  ZZZ=              0.8046  XYY=              9.5566
  XXY=              2.1181  XXZ=              0.8711  XZZ=              0.3611  YZZ=             -0.3890
  YYZ=             -1.5779  XYZ=              0.1296
 Hexadecapole moment (field-independent basis, Debye-Ang**3):
 XXXX=          -1536.5759 YYYY=          -1440.7657 ZZZZ=           -778.8084 XXXY=              8.9538
 XXXZ=            -24.1323 YYYX=            -10.6699 YYYZ=             -6.6584 ZZZX=              0.0884
 ZZZY=              1.0420 XXYY=           -473.4670 XXZZ=           -482.4189 YYZZ=           -429.1440
 XXYZ=              4.9835 YYXZ=              3.8639 ZZXY=             -0.3910
 N-N= 3.332830525508D+02 E-N=-3.395973337235D+03  KE= 1.132851566558D+03
                          Isotropic Fermi Contact Couplings
        Atom                 a.u.       MegaHertz       Gauss      10(-4) cm-1
     1  Na(23)             0.39279     464.68064     165.80961     155.00078
     2  Na(23)            -0.01513     -17.89788      -6.38641      -5.97009
     3  Na(23)            -0.02165     -25.61280      -9.13928      -8.54351
     4  Na(23)            -0.01343     -15.89103      -5.67032      -5.30068
     5  Na(23)             0.00467       5.53031       1.97335       1.84471
     6  Na(23)            -0.01953     -23.10024      -8.24274      -7.70541
     7  Na(23)             0.24628     291.36056     103.96469      97.18742
 --------------------------------------------------------
       Center         ----  Spin Dipole Couplings  ----
                      3XX-RR        3YY-RR        3ZZ-RR
 --------------------------------------------------------
     1   Atom        0.003340     -0.000330     -0.003010
     2   Atom       -0.006439     -0.009123      0.015562
     3   Atom       -0.009911     -0.012264      0.022175
     4   Atom       -0.015511     -0.012853      0.028365
     5   Atom       -0.015521     -0.011544      0.027065
     6   Atom       -0.007141     -0.012927      0.020068
     7   Atom       -0.004764      0.002870      0.001895
 --------------------------------------------------------
                        XY            XZ            YZ
 --------------------------------------------------------
     1   Atom        0.002942     -0.000987      0.000733
     2   Atom       -0.002198      0.003565      0.000820
     3   Atom        0.002595     -0.001201     -0.001698
     4   Atom        0.002229     -0.007163      0.000682
     5   Atom       -0.001854     -0.002084      0.006861
     6   Atom        0.000030      0.002875     -0.004001
     7   Atom       -0.003781      0.001120     -0.002217
 --------------------------------------------------------


 ---------------------------------------------------------------------------------
              Anisotropic Spin Dipole Couplings in Principal Axis System
 ---------------------------------------------------------------------------------

       Atom             a.u.   MegaHertz   Gauss  10(-4) cm-1        Axes

              Baa    -0.0037    -0.529    -0.189    -0.176  0.3009 -0.4409  0.8456
     1 Na(23) Bbb    -0.0013    -0.178    -0.064    -0.059 -0.3732  0.7615  0.5298
              Bcc     0.0050     0.707     0.252     0.236  0.8776  0.4751 -0.0646
 
              Baa    -0.0106    -1.497    -0.534    -0.499  0.5295  0.8426 -0.0986
     2 Na(23) Bbb    -0.0055    -0.781    -0.279    -0.261  0.8342 -0.5383 -0.1200
              Bcc     0.0161     2.278     0.813     0.760  0.1542  0.0187  0.9879
 
              Baa    -0.0140    -1.970    -0.703    -0.657 -0.5354  0.8443  0.0219
     3 Na(23) Bbb    -0.0084    -1.181    -0.421    -0.394  0.8436  0.5334  0.0629
              Bcc     0.0223     3.151     1.124     1.051 -0.0414 -0.0521  0.9978
 
              Baa    -0.0177    -2.505    -0.894    -0.836  0.8925 -0.4271  0.1450
     4 Na(23) Bbb    -0.0118    -1.661    -0.593    -0.554  0.4230  0.9042  0.0601
              Bcc     0.0295     4.167     1.487     1.390 -0.1568  0.0077  0.9876
 
              Baa    -0.0163    -2.296    -0.819    -0.766  0.9220  0.3869 -0.0169
     5 Na(23) Bbb    -0.0121    -1.711    -0.610    -0.571 -0.3835  0.9060 -0.1791
              Bcc     0.0284     4.007     1.430     1.337 -0.0539  0.1716  0.9837
 
              Baa    -0.0134    -1.896    -0.677    -0.633 -0.0612  0.9904  0.1236
     6 Na(23) Bbb    -0.0074    -1.046    -0.373    -0.349  0.9930  0.0730 -0.0933
              Bcc     0.0208     2.942     1.050     0.981  0.1014 -0.1170  0.9879
 
              Baa    -0.0063    -0.893    -0.319    -0.298  0.9267  0.3751 -0.0250
     7 Na(23) Bbb     0.0004     0.054     0.019     0.018 -0.1762  0.4922  0.8525
              Bcc     0.0059     0.839     0.299     0.280 -0.3321  0.7855 -0.5222
 

 ---------------------------------------------------------------------------------

 No NMR shielding tensors so no spin-rotation constants.
 Leave Link  601 at Fri Dec  8 04:19:17 2023, MaxMem=  1879048192 cpu:               2.3 elap:               0.2
 (Enter /home/sekinelabo/g16/l701.exe)
 ... and contract with generalized density number  0.
 Compute integral first derivatives.
 Leave Link  701 at Fri Dec  8 04:19:17 2023, MaxMem=  1879048192 cpu:               1.6 elap:               0.1
 (Enter /home/sekinelabo/g16/l702.exe)
 L702 exits ... SP integral derivatives will be done elsewhere.
 Leave Link  702 at Fri Dec  8 04:19:17 2023, MaxMem=  1879048192 cpu:               0.5 elap:               0.0
 (Enter /home/sekinelabo/g16/l703.exe)
 Integral derivatives from FoFJK, PRISM(SPDF).
 Compute integral first derivatives, UseDBF=F ICtDFT=           0.
 Calling FoFJK, ICntrl=      2127 FMM=F ISym2X=0 I1Cent= 0 IOpClX= 1 NMat=1 NMatS=1 NMatT=0.
 FoFJK:  IHMeth= 1 ICntrl=    2127 DoSepK=F KAlg= 0 I1Cent=           0 FoldK=F
 IRaf=         0 NMat=       1 IRICut=       1 DoRegI=T DoRafI=F ISym2E= 0 IDoP0=0 IntGTp=1.
 FoFCou: FMM=F IPFlag=           0 FMFlag=      100000 FMFlg1=         800
         NFxFlg=           0 DoJE=F BraDBF=F KetDBF=F FulRan=T
         wScrn=  0.000000 ICntrl=      2127 IOpCl=  1 I1Cent=           0 NGrid=           0
         NMat0=    1 NMatS0=      1 NMatT0=    0 NMatD0=    1 NMtDS0=    0 NMtDT0=    0
 Symmetry not used in FoFCou.
 Leave Link  703 at Fri Dec  8 04:19:19 2023, MaxMem=  1879048192 cpu:              33.2 elap:               2.2
 (Enter /home/sekinelabo/g16/l716.exe)
 Dipole        = 9.09166645D-02 4.66625303D-02 6.47551030D-02
 ***** Axes restored to original set *****
 -------------------------------------------------------------------
 Center     Atomic                   Forces (Hartrees/Bohr)
 Number     Number              X              Y              Z
 -------------------------------------------------------------------
      1       11          -0.001272080   -0.000658779   -0.001794627
      2       11           0.002580402    0.003545998   -0.002820161
      3       11          -0.001663213    0.004358457   -0.001039836
      4       11          -0.002059978   -0.001173682    0.003614229
      5       11           0.002655801   -0.000532547    0.001270771
      6       11           0.001684825   -0.002919032    0.000478009
      7       11          -0.001925756   -0.002620416    0.000291615
 -------------------------------------------------------------------
 Cartesian Forces:  Max     0.004358457 RMS     0.002238047
 Z-matrix is all fixed cartesians, so copy forces.
 Force constants in Cartesian coordinates: 
                1             2             3             4             5 
      1  0.988984D-01
      2  0.998721D-02  0.947543D-01
      3  0.249077D-01  0.141256D-01  0.121762D+00
      4 -0.172834D-01 -0.775319D-02  0.825395D-02  0.601696D-01
      5 -0.467840D-02 -0.136638D-01  0.873657D-02  0.742739D-02  0.583929D-01
      6 -0.159867D-01 -0.122817D-01 -0.128932D-01 -0.131646D-01 -0.129444D-01
      7 -0.147798D-01 -0.114756D-01 -0.823856D-02 -0.168633D-01  0.159956D-01
      8  0.104587D-01 -0.232040D-01  0.652745D-02 -0.101090D-01 -0.159975D-01
      9  0.267789D-02 -0.195376D-01 -0.207811D-01  0.109751D-01 -0.380837D-02
     10 -0.242148D-01  0.843397D-02  0.722741D-02 -0.166087D-01 -0.995435D-02
     11 -0.720376D-02 -0.140282D-01 -0.695635D-02  0.160856D-01 -0.181012D-01
     12 -0.182883D-01  0.579544D-02 -0.159405D-01 -0.126253D-02  0.113982D-01
     13 -0.132196D-01 -0.287137D-02 -0.145311D-01  0.147563D-02 -0.303508D-02
     14  0.285936D-02 -0.128291D-01 -0.722283D-02 -0.278169D-02  0.405897D-02
     15  0.163380D-01  0.995541D-03 -0.251383D-01  0.591133D-02  0.215247D-02
     16 -0.105566D-01  0.886347D-02 -0.939526D-02  0.557879D-02 -0.349100D-02
     17 -0.803513D-02 -0.132894D-01 -0.115255D-01 -0.340401D-02 -0.424923D-03
     18 -0.160263D-02  0.173110D-01 -0.202965D-01  0.151990D-02  0.501440D-02
     19 -0.188443D-01 -0.518450D-02 -0.822414D-02 -0.164686D-01 -0.226418D-02
     20 -0.338802D-02 -0.177397D-01 -0.368487D-02  0.534880D-03 -0.142645D-01
     21 -0.804584D-02 -0.640816D-02 -0.267128D-01 -0.122331D-01 -0.105488D-01
                6             7             8             9            10 
      6  0.519050D-01
      7  0.390332D-03  0.589518D-01
      8  0.101228D-01 -0.158437D-01  0.766580D-01
      9 -0.833828D-02 -0.246504D-02 -0.497489D-02  0.492331D-01
     10  0.981103D-02  0.803926D-03  0.601562D-02  0.904032D-03  0.957402D-01
     11 -0.287914D-02  0.583831D-02 -0.113709D-02 -0.162726D-03 -0.177824D-01
     12 -0.709913D-02  0.685287D-03  0.984942D-04  0.716736D-02 -0.175501D-01
     13  0.628976D-02 -0.111890D-01  0.131192D-01 -0.579475D-05 -0.368127D-02
     14  0.214969D-02 -0.945904D-02 -0.157938D-01  0.135950D-01  0.386087D-02
     15  0.263656D-02  0.127881D-01 -0.420007D-02 -0.111923D-01  0.542384D-02
     16  0.137840D-02  0.569689D-02  0.271133D-02 -0.249389D-03 -0.280544D-01
     17  0.453317D-02  0.258972D-02 -0.343508D-02  0.241723D-02  0.168786D-01
     18  0.358871D-02 -0.439335D-03  0.330492D-02  0.632773D-02  0.374799D-02
     19  0.112819D-01 -0.226206D-01 -0.635225D-02 -0.118368D-01 -0.239850D-01
     20  0.112996D-01  0.123547D-01 -0.170906D-01  0.124713D-01 -0.745235D-02
     21 -0.297996D-01 -0.272075D-02 -0.108787D-01 -0.224165D-01 -0.956417D-02
               11            12            13            14            15 
     11  0.810060D-01
     12 -0.110619D-02  0.614732D-01
     13  0.322748D-02  0.561280D-02  0.852479D-01
     14  0.686053D-02 -0.119574D-02 -0.161764D-02  0.638801D-01
     15 -0.762519D-03  0.284616D-02 -0.243979D-01 -0.522401D-02  0.706439D-01
     16 -0.128148D-01  0.152280D-01 -0.160003D-01  0.176566D-01  0.289928D-02
     17 -0.254412D-01 -0.134155D-02 -0.791017D-02 -0.196202D-01  0.125251D-01
     18  0.146912D-01 -0.152157D-01  0.125436D-01 -0.736448D-02 -0.134754D-01
     19  0.126496D-01  0.155749D-01 -0.426335D-01 -0.105185D-01 -0.189626D-01
     20 -0.291588D-01 -0.136486D-01 -0.912459D-03 -0.265565D-01 -0.548651D-02
     21 -0.282432D-02 -0.332314D-01  0.144886D-01  0.526236D-02 -0.263206D-01
               16            17            18            19            20 
     16  0.573594D-01
     17 -0.581786D-03  0.866066D-01
     18 -0.818718D-02 -0.162324D-01  0.564930D-01
     19 -0.140239D-01  0.462736D-03 -0.758238D-02  0.138576D+00
     20 -0.123438D-01 -0.243958D-01 -0.167246D-01  0.112071D-01  0.129206D+00
     21 -0.167382D-02  0.962401D-02 -0.174219D-01  0.197490D-01  0.157737D-01
               21 
     21  0.155903D+00
 Leave Link  716 at Fri Dec  8 04:19:20 2023, MaxMem=  1879048192 cpu:               0.4 elap:               0.0
 (Enter /home/sekinelabo/g16/l103.exe)

 GradGradGradGradGradGradGradGradGradGradGradGradGradGradGradGradGradGrad
 Berny optimization.
 Search for a local minimum.
 Step number   1 out of a maximum of    2
 All quantities printed in internal units (Hartrees-Bohrs-Radians)
 Second derivative matrix not updated -- first step.
 ITU=  0
     Eigenvalues ---    0.05415   0.05460   0.06040   0.07846   0.08059
     Eigenvalues ---    0.08906   0.10219   0.11276   0.11838   0.13488
     Eigenvalues ---    0.14510   0.15738   0.16822   0.17044   0.21195
 Angle between quadratic step and forces=  23.81 degrees.
 Linear search not attempted -- first point.
 B after Tr=     0.000000    0.000000   -0.000000
         Rot=    1.000000    0.000000   -0.000000   -0.000000 Ang=   0.00 deg.
 Variable       Old X    -DE/DX   Delta X   Delta X   Delta X     New X
                                 (Linear)    (Quad)   (Total)
    X1       24.50861  -0.00127   0.00000  -0.01793  -0.01793  24.49069
    Y1       23.44923  -0.00066   0.00000  -0.00814  -0.00814  23.44110
    Z1       25.52623  -0.00179   0.00000  -0.02110  -0.02110  25.50513
    X2       18.74941   0.00258   0.00000   0.03298   0.03298  18.78239
    Y2       18.55783   0.00355   0.00000   0.05300   0.05300  18.61083
    Z2       25.93479  -0.00282   0.00000  -0.04273  -0.04273  25.89206
    X3       25.26035  -0.00166   0.00000  -0.02704  -0.02704  25.23331
    Y3       16.98594   0.00436   0.00000   0.06452   0.06452  17.05046
    Z3       23.17352  -0.00104   0.00000  -0.02184  -0.02184  23.15168
    X4       18.08245  -0.00206   0.00000  -0.00137  -0.00137  18.08108
    Y4       25.38960  -0.00117   0.00000  -0.03021  -0.03021  25.35939
    Z4       23.38479   0.00361   0.00000   0.03772   0.03772  23.42252
    X5       26.57446   0.00266   0.00000   0.01223   0.01223  26.58670
    Y5       22.78764  -0.00053   0.00000  -0.01452  -0.01452  22.77312
    Z5       18.72031   0.00127   0.00000   0.02992   0.02992  18.75023
    X6       22.46998   0.00168   0.00000   0.00865   0.00865  22.47863
    Y6       28.17336  -0.00292   0.00000  -0.05089  -0.05089  28.12247
    Z6       19.98650   0.00048   0.00000   0.00419   0.00419  19.99069
    X7       20.95763  -0.00193   0.00000  -0.00754  -0.00754  20.95009
    Y7       21.25923  -0.00262   0.00000  -0.01377  -0.01377  21.24546
    Z7       19.87671   0.00029   0.00000   0.01384   0.01384  19.89054
         Item               Value     Threshold  Converged?
 Maximum Force            0.004358     0.000450     NO 
 RMS     Force            0.002238     0.000300     NO 
 Maximum Displacement     0.064525     0.001800     NO 
 RMS     Displacement     0.029793     0.001200     NO 
 Predicted change in Energy=-6.405561D-04
 GradGradGradGradGradGradGradGradGradGradGradGradGradGradGradGradGradGrad

 Leave Link  103 at Fri Dec  8 04:19:20 2023, MaxMem=  1879048192 cpu:               0.2 elap:               0.0
 (Enter /home/sekinelabo/g16/l9999.exe)
 1\1\GINC-SEKINELABO-XA7R-R37\Force\UB3LYP\6-311+G(d)\Na7(2)\SEKINELABO
 \08-Dec-2023\0\\#P B3LYP/6-311+g(d) force\\DPGEN\\0,2\Na,12.9694,12.40
 88,13.5079\Na,9.92176,9.82038,13.7241\Na,13.3672,8.98857,12.2629\Na,9.
 56882,13.4356,12.3747\Na,14.0626,12.0587,9.90636\Na,11.8906,14.9087,10
 .5764\Na,11.0903,11.2499,10.5183\\Version=ES64L-G16RevB.01\State=2-A\H
 F=-1136.1352561\S2=0.759679\S2-1=0.\S2A=0.750061\RMSD=4.693e-09\RMSF=2
 .238e-03\Dipole=0.0694156,-0.0693659,0.0707553\Quadrupole=-1.8648792,5
 .8650959,-4.0002167,-1.0749372,-3.6852413,-5.410538\PG=C01 [X(Na7)]\\@


 I WOULD TAKE COUNSEL OF MYSELF.
 I WOULD STOP AND LOOK WITHIN
 AND LOOKING WITHIN, LOOK BACK, ALSO
 THAT I MAY LOOK AHEAD WITH CLEARER UNDERSTANDING
 OF THE WAY I HAVE BEEN MOVING, AND IN WHAT DIRECTION.
 I NEED TO KNOW IF I AM GOING FORWARD OR RETREATING,
 WHETHER I HAVE BEEN WASTING, OR ENJOYING
 THE PRECIOUS MOMENTS OF LIFE.  THERE HAVE BEEN FRICTIONS,
 ANNOYANCES AND SOMETIMES WRATH,
 BUT WERE THEY BECAUSE I WAS RIGHT AND OTHERS WRONG.....
 HAVE I HAD MY THOUGHTS TOO SHARPLY FOCUSED
 ON THAT WHICH PLEASED ME, SERVED MY SELF-ESTEEM,
 UNDERGIRDED MY SECURITY,
 OF WHICH I DID NOT INQUIRE WHETHER IT SERVED OR HAMPERED OTHERS.....
 HAVE I BEEN TRYING TO STOP THE CLOCK
 TO HOLD THE WORLD
 IN PERPETUATION OF WHAT WAS AN IS ALREADY SLIPPING AWAY.....
 HAVE I BEEN CRITICAL OF OTHERS FOR WHAT REALLY NEEDED CHANGING IN ME...
 LET ME INDEED TAKE COUNSEL OF MYSELF
 AND SET MY DIRECTIONS STRAIGHT.

                          R.T. WESTON AS ADAPTED BY D. OSBORN 1967
 Job cpu time:       0 days  0 hours  3 minutes 49.8 seconds.
 Elapsed time:       0 days  0 hours  0 minutes 19.2 seconds.
 File lengths (MBytes):  RWF=     32 Int=      0 D2E=      0 Chk=      4 Scr=      1
 Normal termination of Gaussian 16 at Fri Dec  8 04:19:20 2023.
