 Set GAUSS_MDEF to "14GB".
 Entering Gaussian System, Link 0=g16
 Initial command:
 /home/sekinelabo/g16/l1.exe "/home/sekinelabo/g16temp/Gau-806709.inp" -scrdir="/home/sekinelabo/g16temp/"
 Entering Link 1 = /home/sekinelabo/g16/l1.exe PID=    806711.
  
 Copyright (c) 1988-2017, Gaussian, Inc.  All Rights Reserved.
  
 This is part of the Gaussian(R) 16 program.  It is based on
 the Gaussian(R) 09 system (copyright 2009, Gaussian, Inc.),
 the Gaussian(R) 03 system (copyright 2003, Gaussian, Inc.),
 the Gaussian(R) 98 system (copyright 1998, Gaussian, Inc.),
 the Gaussian(R) 94 system (copyright 1995, Gaussian, Inc.),
 the Gaussian 92(TM) system (copyright 1992, Gaussian, Inc.),
 the Gaussian 90(TM) system (copyright 1990, Gaussian, Inc.),
 the Gaussian 88(TM) system (copyright 1988, Gaussian, Inc.),
 the Gaussian 86(TM) system (copyright 1986, Carnegie Mellon
 University), and the Gaussian 82(TM) system (copyright 1983,
 Carnegie Mellon University). Gaussian is a federally registered
 trademark of Gaussian, Inc.
  
 This software contains proprietary and confidential information,
 including trade secrets, belonging to Gaussian, Inc.
  
 This software is provided under written license and may be
 used, copied, transmitted, or stored only in accord with that
 written license.
  
 The following legend is applicable only to US Government
 contracts under FAR:
  
                    RESTRICTED RIGHTS LEGEND
  
 Use, reproduction and disclosure by the US Government is
 subject to restrictions as set forth in subparagraphs (a)
 and (c) of the Commercial Computer Software - Restricted
 Rights clause in FAR 52.227-19.
  
 Gaussian, Inc.
 340 Quinnipiac St., Bldg. 40, Wallingford CT 06492
  
  
 ---------------------------------------------------------------
 Warning -- This program may not be used in any manner that
 competes with the business of Gaussian, Inc. or will provide
 assistance to any competitor of Gaussian, Inc.  The licensee
 of this program is prohibited from giving any competitor of
 Gaussian, Inc. access to this program.  By using this program,
 the user acknowledges that Gaussian, Inc. is engaged in the
 business of creating and licensing software in the field of
 computational chemistry and represents and warrants to the
 licensee that it is not a competitor of Gaussian, Inc. and that
 it will not use this program in any manner prohibited above.
 ---------------------------------------------------------------
  

 Cite this work as:
 Gaussian 16, Revision B.01,
 M. J. Frisch, G. W. Trucks, H. B. Schlegel, G. E. Scuseria, 
 M. A. Robb, J. R. Cheeseman, G. Scalmani, V. Barone, 
 G. A. Petersson, H. Nakatsuji, X. Li, M. Caricato, A. V. Marenich, 
 J. Bloino, B. G. Janesko, R. Gomperts, B. Mennucci, H. P. Hratchian, 
 J. V. Ortiz, A. F. Izmaylov, J. L. Sonnenberg, D. Williams-Young, 
 F. Ding, F. Lipparini, F. Egidi, J. Goings, B. Peng, A. Petrone, 
 T. Henderson, D. Ranasinghe, V. G. Zakrzewski, J. Gao, N. Rega, 
 G. Zheng, W. Liang, M. Hada, M. Ehara, K. Toyota, R. Fukuda, 
 J. Hasegawa, M. Ishida, T. Nakajima, Y. Honda, O. Kitao, H. Nakai, 
 T. Vreven, K. Throssell, J. A. Montgomery, Jr., J. E. Peralta, 
 F. Ogliaro, M. J. Bearpark, J. J. Heyd, E. N. Brothers, K. N. Kudin, 
 V. N. Staroverov, T. A. Keith, R. Kobayashi, J. Normand, 
 K. Raghavachari, A. P. Rendell, J. C. Burant, S. S. Iyengar, 
 J. Tomasi, M. Cossi, J. M. Millam, M. Klene, C. Adamo, R. Cammi, 
 J. W. Ochterski, R. L. Martin, K. Morokuma, O. Farkas, 
 J. B. Foresman, and D. J. Fox, Gaussian, Inc., Wallingford CT, 2016.
 
 ******************************************
 Gaussian 16:  ES64L-G16RevB.01 20-Dec-2017
                 3-Dec-2023 
 ******************************************
 %nproc=15
 Will use up to   15 processors via shared memory.
 -------------------------
 #P B3LYP/6-311+g(d) force
 -------------------------
 1/10=7,30=1,38=1/1,3;
 2/12=2,17=6,18=5,40=1/2;
 3/5=4,6=6,7=11,11=2,25=1,30=1,71=1,74=-5/1,2,3;
 4//1;
 5/5=2,38=5/2;
 6/7=2,8=2,9=2,10=2,28=1/1;
 7/29=1/1,2,3,16;
 1/10=7,30=1/3;
 99//99;
 Leave Link    1 at Sun Dec  3 20:28:20 2023, MaxMem=           0 cpu:               0.3 elap:               0.0
 (Enter /home/sekinelabo/g16/l101.exe)
 -----
 DPGEN
 -----
 Symbolic Z-matrix:
 Charge =  0 Multiplicity = 2
 Na                    15.2106   14.0461   11.3441 
 Na                    14.5151   11.5762   13.3741 
 Na                    11.6777   15.8164   10.6392 
 Na                    11.5699   9.80011   13.6913 
 Na                    9.68445   7.25599   12.5628 
 Na                    9.35298   13.0621   10.346 
 Na                    9.64033   10.0941   9.69348 
 
 ITRead=  0  0  0  0  0  0  0
 MicOpt= -1 -1 -1 -1 -1 -1 -1
 NAtoms=      7 NQM=        7 NQMF=       0 NMMI=      0 NMMIF=      0
                NMic=       0 NMicF=      0.
                    Isotopes and Nuclear Properties:
 (Nuclear quadrupole moments (NQMom) in fm**2, nuclear magnetic moments (NMagM)
  in nuclear magnetons)

  Atom         1           2           3           4           5           6           7
 IAtWgt=          23          23          23          23          23          23          23
 AtmWgt=  22.9897697  22.9897697  22.9897697  22.9897697  22.9897697  22.9897697  22.9897697
 NucSpn=           3           3           3           3           3           3           3
 AtZEff=  -0.0000000  -0.0000000  -0.0000000  -0.0000000  -0.0000000  -0.0000000  -0.0000000
 NQMom=   10.4000000  10.4000000  10.4000000  10.4000000  10.4000000  10.4000000  10.4000000
 NMagM=    2.2175200   2.2175200   2.2175200   2.2175200   2.2175200   2.2175200   2.2175200
 AtZNuc=  11.0000000  11.0000000  11.0000000  11.0000000  11.0000000  11.0000000  11.0000000
 Leave Link  101 at Sun Dec  3 20:28:21 2023, MaxMem=  1879048192 cpu:               2.5 elap:               0.2
 (Enter /home/sekinelabo/g16/l103.exe)

 GradGradGradGradGradGradGradGradGradGradGradGradGradGradGradGradGradGrad
 Berny optimization.
 Initialization pass.
 Trust Radius=3.00D-01 FncErr=1.00D-07 GrdErr=1.00D-07 EigMax=2.50D+02 EigMin=1.00D-04
 Number of steps in this run=      2 maximum allowed number of steps=      2.
 GradGradGradGradGradGradGradGradGradGradGradGradGradGradGradGradGradGrad

 Leave Link  103 at Sun Dec  3 20:28:21 2023, MaxMem=  1879048192 cpu:               0.2 elap:               0.0
 (Enter /home/sekinelabo/g16/l202.exe)
                          Input orientation:                          
 ---------------------------------------------------------------------
 Center     Atomic      Atomic             Coordinates (Angstroms)
 Number     Number       Type             X           Y           Z
 ---------------------------------------------------------------------
      1         11           0       15.210600   14.046100   11.344100
      2         11           0       14.515100   11.576200   13.374100
      3         11           0       11.677700   15.816400   10.639200
      4         11           0       11.569900    9.800110   13.691300
      5         11           0        9.684450    7.255990   12.562800
      6         11           0        9.352980   13.062100   10.346000
      7         11           0        9.640330   10.094100    9.693480
 ---------------------------------------------------------------------
                    Distance matrix (angstroms):
                    1          2          3          4          5
     1  Na   0.000000
     2  Na   3.271854   0.000000
     3  Na   4.014004   5.788766   0.000000
     4  Na   6.065680   3.453884   6.747050   0.000000
     5  Na   8.839070   6.531279   8.997439   3.361693   0.000000
     6  Na   6.022970   6.166423   3.616139   5.171687   6.223744
     7  Na   7.026433   6.285457   6.147356   4.448847   4.036064
                    6          7
     6  Na   0.000000
     7  Na   3.052438   0.000000
 Stoichiometry    Na7(2)
 Framework group  C1[X(Na7)]
 Deg. of freedom    15
 Full point group                 C1      NOp   1
 Largest Abelian subgroup         C1      NOp   1
 Largest concise Abelian subgroup C1      NOp   1
                         Standard orientation:                         
 ---------------------------------------------------------------------
 Center     Atomic      Atomic             Coordinates (Angstroms)
 Number     Number       Type             X           Y           Z
 ---------------------------------------------------------------------
      1         11           0       -3.841880   -1.623492    0.976970
      2         11           0       -1.126608   -3.128031   -0.056803
      3         11           0       -3.704627    2.012685   -0.717612
      4         11           0        1.896517   -1.739421   -0.985129
      5         11           0        4.882264   -0.569803    0.023974
      6         11           0       -0.219883    2.954887   -0.504840
      7         11           0        2.114217    2.093174    1.263439
 ---------------------------------------------------------------------
 Rotational constants (GHZ):           0.5904737           0.3330726           0.2322796
 Leave Link  202 at Sun Dec  3 20:28:21 2023, MaxMem=  1879048192 cpu:               0.0 elap:               0.0
 (Enter /home/sekinelabo/g16/l301.exe)
 Standard basis: 6-311+G(d) (5D, 7F)
 Ernie: Thresh=  0.10000D-02 Tol=  0.10000D-05 Strict=F.
 There are   217 symmetry adapted cartesian basis functions of A   symmetry.
 There are   210 symmetry adapted basis functions of A   symmetry.
   210 basis functions,   350 primitive gaussians,   217 cartesian basis functions
    39 alpha electrons       38 beta electrons
       nuclear repulsion energy       270.7197588108 Hartrees.
 IExCor=  402 DFT=T Ex+Corr=B3LYP ExCW=0 ScaHFX=  0.200000
 ScaDFX=  0.800000  0.720000  1.000000  0.810000 ScalE2=  1.000000  1.000000
 IRadAn=      5 IRanWt=     -1 IRanGd=            0 ICorTp=0 IEmpDi=  4
 NAtoms=    7 NActive=    7 NUniq=    7 SFac= 1.00D+00 NAtFMM=   60 NAOKFM=F Big=F
 Integral buffers will be    131072 words long.
 Raffenetti 2 integral format.
 Two-electron integral symmetry is turned on.
 Leave Link  301 at Sun Dec  3 20:28:21 2023, MaxMem=  1879048192 cpu:               0.5 elap:               0.0
 (Enter /home/sekinelabo/g16/l302.exe)
 NPDir=0 NMtPBC=     1 NCelOv=     1 NCel=       1 NClECP=     1 NCelD=      1
         NCelK=      1 NCelE2=     1 NClLst=     1 CellRange=     0.0.
 One-electron integrals computed using PRISM.
 One-electron integral symmetry used in STVInt
 NBasis=   210 RedAO= T EigKep=  8.11D-06  NBF=   210
 NBsUse=   210 1.00D-06 EigRej= -1.00D+00 NBFU=   210
 Precomputing XC quadrature grid using
 IXCGrd= 4 IRadAn=           5 IRanWt=          -1 IRanGd=           0 AccXCQ= 0.00D+00.
 Generated NRdTot=       0 NPtTot=           0 NUsed=           0 NTot=          32
 NSgBfM=   201   201   201   201   201 MxSgAt=     7 MxSgA2=     7.
 Leave Link  302 at Sun Dec  3 20:28:21 2023, MaxMem=  1879048192 cpu:               2.0 elap:               0.1
 (Enter /home/sekinelabo/g16/l303.exe)
 DipDrv:  MaxL=1.
 Leave Link  303 at Sun Dec  3 20:28:21 2023, MaxMem=  1879048192 cpu:               0.5 elap:               0.0
 (Enter /home/sekinelabo/g16/l401.exe)
 ExpMin= 7.60D-03 ExpMax= 3.62D+04 ExpMxC= 1.21D+03 IAcc=3 IRadAn=         5 AccDes= 0.00D+00
 Harris functional with IExCor=  402 and IRadAn=       5 diagonalized for initial guess.
 HarFok:  IExCor=  402 AccDes= 0.00D+00 IRadAn=         5 IDoV= 1 UseB2=F ITyADJ=14
 ICtDFT=  3500011 ScaDFX=  1.000000  1.000000  1.000000  1.000000
 FoFCou: FMM=F IPFlag=           0 FMFlag=      100000 FMFlg1=           0
         NFxFlg=           0 DoJE=T BraDBF=F KetDBF=T FulRan=T
         wScrn=  0.000000 ICntrl=       500 IOpCl=  0 I1Cent=   200000004 NGrid=           0
         NMat0=    1 NMatS0=      1 NMatT0=    0 NMatD0=    1 NMtDS0=    0 NMtDT0=    0
 Petite list used in FoFCou.
 Harris En= -1135.87780903059    
 JPrj=0 DoOrth=F DoCkMO=F.
 Initial guess <Sx>= 0.0000 <Sy>= 0.0000 <Sz>= 0.5000 <S**2>= 0.7500 S= 0.5000
 Leave Link  401 at Sun Dec  3 20:28:21 2023, MaxMem=  1879048192 cpu:               4.2 elap:               0.3
 (Enter /home/sekinelabo/g16/l502.exe)
 Keep R1 and R2 ints in memory in canonical form, NReq=506573279.
 FoFCou: FMM=F IPFlag=           0 FMFlag=           0 FMFlg1=           0
         NFxFlg=           0 DoJE=F BraDBF=F KetDBF=F FulRan=T
         wScrn=  0.000000 ICntrl=       600 IOpCl=  0 I1Cent=           0 NGrid=           0
         NMat0=    1 NMatS0=  22155 NMatT0=    0 NMatD0=    1 NMtDS0=    0 NMtDT0=    0
 Symmetry not used in FoFCou.
 Two-electron integral symmetry not used.
 UHF open shell SCF:
 Using DIIS extrapolation, IDIIS=  1040.
 NGot=  1879048192 LenX=  1388082621 LenY=  1388035091
 Requested convergence on RMS density matrix=1.00D-08 within 128 cycles.
 Requested convergence on MAX density matrix=1.00D-06.
 Requested convergence on             energy=1.00D-06.
 No special actions if energy rises.

 Cycle   1  Pass 1  IDiag  1:
 E= -1136.08293785447    
 DIIS: error= 9.23D-03 at cycle   1 NSaved=   1.
 NSaved= 1 IEnMin= 1 EnMin= -1136.08293785447     IErMin= 1 ErrMin= 9.23D-03
 ErrMax= 9.23D-03  0.00D+00 EMaxC= 1.00D-01 BMatC= 1.83D-01 BMatP= 1.83D-01
 IDIUse=3 WtCom= 9.08D-01 WtEn= 9.23D-02
 Coeff-Com:  0.100D+01
 Coeff-En:   0.100D+01
 Coeff:      0.100D+01
 Gap=     0.026 Goal=   None    Shift=    0.000
 Gap=     0.042 Goal=   None    Shift=    0.000
 GapD=    0.026 DampG=0.250 DampE=1.000 DampFc=0.2500 IDamp=-1.
 Damping current iteration by 2.50D-01
 RMSDP=4.25D-03 MaxDP=2.81D-01              OVMax= 1.28D-01

 Cycle   2  Pass 1  IDiag  1:
 E= -1136.09088200580     Delta-E=       -0.007944151328 Rises=F Damp=T
 DIIS: error= 6.55D-03 at cycle   2 NSaved=   2.
 NSaved= 2 IEnMin= 2 EnMin= -1136.09088200580     IErMin= 2 ErrMin= 6.55D-03
 ErrMax= 6.55D-03  0.00D+00 EMaxC= 1.00D-01 BMatC= 7.06D-02 BMatP= 1.83D-01
 IDIUse=3 WtCom= 9.34D-01 WtEn= 6.55D-02
 Coeff-Com: -0.130D+01 0.230D+01
 Coeff-En:   0.000D+00 0.100D+01
 Coeff:     -0.121D+01 0.221D+01
 Gap=     0.027 Goal=   None    Shift=    0.000
 Gap=     0.049 Goal=   None    Shift=    0.000
 RMSDP=3.29D-03 MaxDP=2.36D-01 DE=-7.94D-03 OVMax= 9.41D-02

 Cycle   3  Pass 1  IDiag  1:
 E= -1136.10679790143     Delta-E=       -0.015915895628 Rises=F Damp=F
 DIIS: error= 8.82D-04 at cycle   3 NSaved=   3.
 NSaved= 3 IEnMin= 3 EnMin= -1136.10679790143     IErMin= 3 ErrMin= 8.82D-04
 ErrMax= 8.82D-04  0.00D+00 EMaxC= 1.00D-01 BMatC= 5.11D-04 BMatP= 7.06D-02
 IDIUse=3 WtCom= 9.91D-01 WtEn= 8.82D-03
 Coeff-Com: -0.531D-01 0.917D-01 0.961D+00
 Coeff-En:   0.000D+00 0.000D+00 0.100D+01
 Coeff:     -0.527D-01 0.908D-01 0.962D+00
 Gap=     0.027 Goal=   None    Shift=    0.000
 Gap=     0.044 Goal=   None    Shift=    0.000
 RMSDP=8.67D-04 MaxDP=4.10D-02 DE=-1.59D-02 OVMax= 5.37D-02

 Cycle   4  Pass 1  IDiag  1:
 E= -1136.10652157839     Delta-E=        0.000276323040 Rises=F Damp=F
 DIIS: error= 1.23D-03 at cycle   4 NSaved=   4.
 NSaved= 4 IEnMin= 3 EnMin= -1136.10679790143     IErMin= 3 ErrMin= 8.82D-04
 ErrMax= 1.23D-03  0.00D+00 EMaxC= 1.00D-01 BMatC= 8.58D-04 BMatP= 5.11D-04
 IDIUse=3 WtCom= 2.22D-01 WtEn= 7.78D-01
 Coeff-Com: -0.347D-02 0.423D-02 0.566D+00 0.433D+00
 Coeff-En:   0.000D+00 0.000D+00 0.588D+00 0.412D+00
 Coeff:     -0.770D-03 0.938D-03 0.583D+00 0.417D+00
 Gap=     0.028 Goal=   None    Shift=    0.000
 Gap=     0.046 Goal=   None    Shift=    0.000
 RMSDP=4.97D-04 MaxDP=2.49D-02 DE= 2.76D-04 OVMax= 2.90D-02

 Cycle   5  Pass 1  IDiag  1:
 E= -1136.10744867878     Delta-E=       -0.000927100391 Rises=F Damp=F
 DIIS: error= 2.97D-04 at cycle   5 NSaved=   5.
 NSaved= 5 IEnMin= 5 EnMin= -1136.10744867878     IErMin= 5 ErrMin= 2.97D-04
 ErrMax= 2.97D-04  0.00D+00 EMaxC= 1.00D-01 BMatC= 1.56D-05 BMatP= 5.11D-04
 IDIUse=3 WtCom= 9.97D-01 WtEn= 2.97D-03
 Coeff-Com: -0.437D-03-0.143D-03 0.218D+00 0.160D+00 0.623D+00
 Coeff-En:   0.000D+00 0.000D+00 0.000D+00 0.000D+00 0.100D+01
 Coeff:     -0.435D-03-0.143D-03 0.217D+00 0.159D+00 0.625D+00
 Gap=     0.028 Goal=   None    Shift=    0.000
 Gap=     0.047 Goal=   None    Shift=    0.000
 RMSDP=1.44D-04 MaxDP=6.27D-03 DE=-9.27D-04 OVMax= 1.35D-02

 Cycle   6  Pass 1  IDiag  1:
 E= -1136.10748317420     Delta-E=       -0.000034495419 Rises=F Damp=F
 DIIS: error= 2.63D-04 at cycle   6 NSaved=   6.
 NSaved= 6 IEnMin= 6 EnMin= -1136.10748317420     IErMin= 6 ErrMin= 2.63D-04
 ErrMax= 2.63D-04  0.00D+00 EMaxC= 1.00D-01 BMatC= 1.07D-05 BMatP= 1.56D-05
 IDIUse=3 WtCom= 9.97D-01 WtEn= 2.63D-03
 Coeff-Com:  0.566D-03-0.117D-02-0.109D+00-0.908D-01 0.471D+00 0.730D+00
 Coeff-En:   0.000D+00 0.000D+00 0.000D+00 0.000D+00 0.000D+00 0.100D+01
 Coeff:      0.564D-03-0.117D-02-0.109D+00-0.905D-01 0.469D+00 0.731D+00
 Gap=     0.029 Goal=   None    Shift=    0.000
 Gap=     0.047 Goal=   None    Shift=    0.000
 RMSDP=1.57D-04 MaxDP=6.81D-03 DE=-3.45D-05 OVMax= 1.39D-02

 Cycle   7  Pass 1  IDiag  1:
 E= -1136.10753067011     Delta-E=       -0.000047495914 Rises=F Damp=F
 DIIS: error= 1.55D-04 at cycle   7 NSaved=   7.
 NSaved= 7 IEnMin= 7 EnMin= -1136.10753067011     IErMin= 7 ErrMin= 1.55D-04
 ErrMax= 1.55D-04  0.00D+00 EMaxC= 1.00D-01 BMatC= 3.03D-06 BMatP= 1.07D-05
 IDIUse=3 WtCom= 9.98D-01 WtEn= 1.55D-03
 Coeff-Com:  0.101D-02-0.137D-02-0.117D+00-0.885D-01 0.754D-01 0.349D+00
 Coeff-Com:  0.782D+00
 Coeff-En:   0.000D+00 0.000D+00 0.000D+00 0.000D+00 0.000D+00 0.000D+00
 Coeff-En:   0.100D+01
 Coeff:      0.101D-02-0.136D-02-0.117D+00-0.884D-01 0.753D-01 0.348D+00
 Coeff:      0.782D+00
 Gap=     0.029 Goal=   None    Shift=    0.000
 Gap=     0.047 Goal=   None    Shift=    0.000
 RMSDP=1.28D-04 MaxDP=6.95D-03 DE=-4.75D-05 OVMax= 1.03D-02

 Cycle   8  Pass 1  IDiag  1:
 E= -1136.10755684716     Delta-E=       -0.000026177053 Rises=F Damp=F
 DIIS: error= 8.55D-05 at cycle   8 NSaved=   8.
 NSaved= 8 IEnMin= 8 EnMin= -1136.10755684716     IErMin= 8 ErrMin= 8.55D-05
 ErrMax= 8.55D-05  0.00D+00 EMaxC= 1.00D-01 BMatC= 1.60D-06 BMatP= 3.03D-06
 IDIUse=1 WtCom= 1.00D+00 WtEn= 0.00D+00
 Coeff-Com:  0.910D-03-0.974D-03-0.212D-01-0.134D-01-0.162D+00-0.119D+00
 Coeff-Com:  0.320D+00 0.996D+00
 Coeff:      0.910D-03-0.974D-03-0.212D-01-0.134D-01-0.162D+00-0.119D+00
 Coeff:      0.320D+00 0.996D+00
 Gap=     0.029 Goal=   None    Shift=    0.000
 Gap=     0.047 Goal=   None    Shift=    0.000
 RMSDP=1.47D-04 MaxDP=6.32D-03 DE=-2.62D-05 OVMax= 1.40D-02

 Cycle   9  Pass 1  IDiag  1:
 E= -1136.10758211483     Delta-E=       -0.000025267669 Rises=F Damp=F
 DIIS: error= 9.17D-05 at cycle   9 NSaved=   9.
 NSaved= 9 IEnMin= 9 EnMin= -1136.10758211483     IErMin= 8 ErrMin= 8.55D-05
 ErrMax= 9.17D-05  0.00D+00 EMaxC= 1.00D-01 BMatC= 1.02D-06 BMatP= 1.60D-06
 IDIUse=1 WtCom= 1.00D+00 WtEn= 0.00D+00
 Coeff-Com:  0.146D-03-0.975D-04 0.328D-01 0.231D-01-0.826D-01-0.109D+00
 Coeff-Com: -0.244D+00 0.157D+00 0.122D+01
 Coeff:      0.146D-03-0.975D-04 0.328D-01 0.231D-01-0.826D-01-0.109D+00
 Coeff:     -0.244D+00 0.157D+00 0.122D+01
 Gap=     0.029 Goal=   None    Shift=    0.000
 Gap=     0.047 Goal=   None    Shift=    0.000
 RMSDP=1.53D-04 MaxDP=6.90D-03 DE=-2.53D-05 OVMax= 1.42D-02

 Cycle  10  Pass 1  IDiag  1:
 E= -1136.10760332325     Delta-E=       -0.000021208418 Rises=F Damp=F
 DIIS: error= 5.43D-05 at cycle  10 NSaved=  10.
 NSaved=10 IEnMin=10 EnMin= -1136.10760332325     IErMin=10 ErrMin= 5.43D-05
 ErrMax= 5.43D-05  0.00D+00 EMaxC= 1.00D-01 BMatC= 7.02D-07 BMatP= 1.02D-06
 IDIUse=1 WtCom= 1.00D+00 WtEn= 0.00D+00
 Coeff-Com: -0.120D-02 0.143D-02 0.409D-01 0.260D-01 0.105D+00 0.995D-01
 Coeff-Com: -0.525D+00-0.993D+00 0.921D+00 0.133D+01
 Coeff:     -0.120D-02 0.143D-02 0.409D-01 0.260D-01 0.105D+00 0.995D-01
 Coeff:     -0.525D+00-0.993D+00 0.921D+00 0.133D+01
 Gap=     0.029 Goal=   None    Shift=    0.000
 Gap=     0.048 Goal=   None    Shift=    0.000
 RMSDP=2.30D-04 MaxDP=9.24D-03 DE=-2.12D-05 OVMax= 2.44D-02

 Cycle  11  Pass 1  IDiag  1:
 E= -1136.10762622931     Delta-E=       -0.000022906065 Rises=F Damp=F
 DIIS: error= 3.77D-05 at cycle  11 NSaved=  11.
 NSaved=11 IEnMin=11 EnMin= -1136.10762622931     IErMin=11 ErrMin= 3.77D-05
 ErrMax= 3.77D-05  0.00D+00 EMaxC= 1.00D-01 BMatC= 3.26D-07 BMatP= 7.02D-07
 IDIUse=1 WtCom= 1.00D+00 WtEn= 0.00D+00
 Coeff-Com: -0.108D-02 0.129D-02-0.530D-02-0.527D-02 0.109D+00 0.144D+00
 Coeff-Com: -0.149D+00-0.563D+00-0.373D+00 0.762D+00 0.108D+01
 Coeff:     -0.108D-02 0.129D-02-0.530D-02-0.527D-02 0.109D+00 0.144D+00
 Coeff:     -0.149D+00-0.563D+00-0.373D+00 0.762D+00 0.108D+01
 Gap=     0.029 Goal=   None    Shift=    0.000
 Gap=     0.048 Goal=   None    Shift=    0.000
 RMSDP=1.76D-04 MaxDP=6.75D-03 DE=-2.29D-05 OVMax= 1.89D-02

 Cycle  12  Pass 1  IDiag  1:
 E= -1136.10763501047     Delta-E=       -0.000008781160 Rises=F Damp=F
 DIIS: error= 1.58D-05 at cycle  12 NSaved=  12.
 NSaved=12 IEnMin=12 EnMin= -1136.10763501047     IErMin=12 ErrMin= 1.58D-05
 ErrMax= 1.58D-05  0.00D+00 EMaxC= 1.00D-01 BMatC= 7.75D-08 BMatP= 3.26D-07
 IDIUse=1 WtCom= 1.00D+00 WtEn= 0.00D+00
 Coeff-Com:  0.300D-03-0.407D-03-0.165D-01-0.128D-01 0.979D-02 0.403D-01
 Coeff-Com:  0.712D-01 0.120D+00-0.314D+00-0.986D-01 0.100D+00 0.110D+01
 Coeff:      0.300D-03-0.407D-03-0.165D-01-0.128D-01 0.979D-02 0.403D-01
 Coeff:      0.712D-01 0.120D+00-0.314D+00-0.986D-01 0.100D+00 0.110D+01
 Gap=     0.029 Goal=   None    Shift=    0.000
 Gap=     0.048 Goal=   None    Shift=    0.000
 RMSDP=4.99D-05 MaxDP=1.80D-03 DE=-8.78D-06 OVMax= 6.23D-03

 Cycle  13  Pass 1  IDiag  1:
 E= -1136.10763641433     Delta-E=       -0.000001403858 Rises=F Damp=F
 DIIS: error= 1.21D-05 at cycle  13 NSaved=  13.
 NSaved=13 IEnMin=13 EnMin= -1136.10763641433     IErMin=13 ErrMin= 1.21D-05
 ErrMax= 1.21D-05  0.00D+00 EMaxC= 1.00D-01 BMatC= 2.84D-08 BMatP= 7.75D-08
 IDIUse=1 WtCom= 1.00D+00 WtEn= 0.00D+00
 Coeff-Com:  0.506D-03-0.626D-03 0.326D-02 0.385D-02-0.377D-01-0.403D-01
 Coeff-Com:  0.333D-01 0.131D+00 0.177D+00-0.164D+00-0.486D+00-0.217D+00
 Coeff-Com:  0.160D+01
 Coeff:      0.506D-03-0.626D-03 0.326D-02 0.385D-02-0.377D-01-0.403D-01
 Coeff:      0.333D-01 0.131D+00 0.177D+00-0.164D+00-0.486D+00-0.217D+00
 Coeff:      0.160D+01
 Gap=     0.029 Goal=   None    Shift=    0.000
 Gap=     0.048 Goal=   None    Shift=    0.000
 RMSDP=3.94D-05 MaxDP=1.54D-03 DE=-1.40D-06 OVMax= 5.09D-03

 Cycle  14  Pass 1  IDiag  1:
 E= -1136.10763708865     Delta-E=       -0.000000674316 Rises=F Damp=F
 DIIS: error= 7.31D-06 at cycle  14 NSaved=  14.
 NSaved=14 IEnMin=14 EnMin= -1136.10763708865     IErMin=14 ErrMin= 7.31D-06
 ErrMax= 7.31D-06  0.00D+00 EMaxC= 1.00D-01 BMatC= 6.43D-09 BMatP= 2.84D-08
 IDIUse=1 WtCom= 1.00D+00 WtEn= 0.00D+00
 Coeff-Com: -0.238D-03 0.313D-03 0.303D-02 0.213D-02 0.817D-02-0.343D-02
 Coeff-Com: -0.329D-01-0.512D-01 0.411D-01 0.745D-01 0.101D-01-0.203D+00
 Coeff-Com: -0.212D+00 0.136D+01
 Coeff:     -0.238D-03 0.313D-03 0.303D-02 0.213D-02 0.817D-02-0.343D-02
 Coeff:     -0.329D-01-0.512D-01 0.411D-01 0.745D-01 0.101D-01-0.203D+00
 Coeff:     -0.212D+00 0.136D+01
 Gap=     0.029 Goal=   None    Shift=    0.000
 Gap=     0.048 Goal=   None    Shift=    0.000
 RMSDP=2.01D-05 MaxDP=9.24D-04 DE=-6.74D-07 OVMax= 2.51D-03

 Cycle  15  Pass 1  IDiag  1:
 E= -1136.10763723501     Delta-E=       -0.000000146357 Rises=F Damp=F
 DIIS: error= 3.02D-06 at cycle  15 NSaved=  15.
 NSaved=15 IEnMin=15 EnMin= -1136.10763723501     IErMin=15 ErrMin= 3.02D-06
 ErrMax= 3.02D-06  0.00D+00 EMaxC= 1.00D-01 BMatC= 1.71D-09 BMatP= 6.43D-09
 IDIUse=1 WtCom= 1.00D+00 WtEn= 0.00D+00
 Coeff-Com: -0.222D-03 0.284D-03-0.403D-05-0.686D-03 0.139D-01 0.120D-01
 Coeff-Com: -0.227D-01-0.628D-01-0.137D-01 0.740D-01 0.997D-01-0.143D-01
 Coeff-Com: -0.437D+00 0.315D+00 0.104D+01
 Coeff:     -0.222D-03 0.284D-03-0.403D-05-0.686D-03 0.139D-01 0.120D-01
 Coeff:     -0.227D-01-0.628D-01-0.137D-01 0.740D-01 0.997D-01-0.143D-01
 Coeff:     -0.437D+00 0.315D+00 0.104D+01
 Gap=     0.029 Goal=   None    Shift=    0.000
 Gap=     0.048 Goal=   None    Shift=    0.000
 RMSDP=8.05D-06 MaxDP=3.72D-04 DE=-1.46D-07 OVMax= 1.02D-03

 Cycle  16  Pass 1  IDiag  1:
 E= -1136.10763726144     Delta-E=       -0.000000026435 Rises=F Damp=F
 DIIS: error= 1.21D-06 at cycle  16 NSaved=  16.
 NSaved=16 IEnMin=16 EnMin= -1136.10763726144     IErMin=16 ErrMin= 1.21D-06
 ErrMax= 1.21D-06  0.00D+00 EMaxC= 1.00D-01 BMatC= 3.32D-10 BMatP= 1.71D-09
 IDIUse=1 WtCom= 1.00D+00 WtEn= 0.00D+00
 Coeff-Com:  0.329D-04-0.461D-04-0.414D-03-0.330D-03 0.135D-02 0.348D-02
 Coeff-Com: -0.197D-02-0.548D-02-0.237D-02 0.922D-02 0.839D-02-0.634D-02
 Coeff-Com:  0.317D-01-0.209D+00-0.844D-02 0.118D+01
 Coeff:      0.329D-04-0.461D-04-0.414D-03-0.330D-03 0.135D-02 0.348D-02
 Coeff:     -0.197D-02-0.548D-02-0.237D-02 0.922D-02 0.839D-02-0.634D-02
 Coeff:      0.317D-01-0.209D+00-0.844D-02 0.118D+01
 Gap=     0.029 Goal=   None    Shift=    0.000
 Gap=     0.048 Goal=   None    Shift=    0.000
 RMSDP=2.15D-06 MaxDP=1.22D-04 DE=-2.64D-08 OVMax= 2.09D-04

 Cycle  17  Pass 1  IDiag  1:
 E= -1136.10763726540     Delta-E=       -0.000000003961 Rises=F Damp=F
 DIIS: error= 4.61D-07 at cycle  17 NSaved=  17.
 NSaved=17 IEnMin=17 EnMin= -1136.10763726540     IErMin=17 ErrMin= 4.61D-07
 ErrMax= 4.61D-07  0.00D+00 EMaxC= 1.00D-01 BMatC= 8.00D-11 BMatP= 3.32D-10
 IDIUse=1 WtCom= 1.00D+00 WtEn= 0.00D+00
 Coeff-Com:  0.504D-04-0.666D-04-0.137D-03 0.226D-04-0.182D-02-0.904D-03
 Coeff-Com:  0.417D-02 0.579D-02-0.458D-03-0.589D-02-0.115D-01-0.226D-02
 Coeff-Com:  0.936D-01-0.128D+00-0.236D+00 0.377D+00 0.907D+00
 Coeff:      0.504D-04-0.666D-04-0.137D-03 0.226D-04-0.182D-02-0.904D-03
 Coeff:      0.417D-02 0.579D-02-0.458D-03-0.589D-02-0.115D-01-0.226D-02
 Coeff:      0.936D-01-0.128D+00-0.236D+00 0.377D+00 0.907D+00
 Gap=     0.029 Goal=   None    Shift=    0.000
 Gap=     0.048 Goal=   None    Shift=    0.000
 RMSDP=1.00D-06 MaxDP=5.54D-05 DE=-3.96D-09 OVMax= 9.13D-05

 Cycle  18  Pass 1  IDiag  1:
 E= -1136.10763726598     Delta-E=       -0.000000000579 Rises=F Damp=F
 DIIS: error= 1.50D-07 at cycle  18 NSaved=  18.
 NSaved=18 IEnMin=18 EnMin= -1136.10763726598     IErMin=18 ErrMin= 1.50D-07
 ErrMax= 1.50D-07  0.00D+00 EMaxC= 1.00D-01 BMatC= 9.77D-12 BMatP= 8.00D-11
 IDIUse=1 WtCom= 1.00D+00 WtEn= 0.00D+00
 Coeff-Com: -0.130D-05 0.211D-05 0.187D-04 0.258D-04-0.574D-03-0.111D-02
 Coeff-Com:  0.157D-02 0.377D-02-0.280D-02-0.370D-02-0.218D-03 0.780D-02
 Coeff-Com: -0.101D-01 0.278D-01-0.162D-01-0.133D+00 0.744D-02 0.112D+01
 Coeff:     -0.130D-05 0.211D-05 0.187D-04 0.258D-04-0.574D-03-0.111D-02
 Coeff:      0.157D-02 0.377D-02-0.280D-02-0.370D-02-0.218D-03 0.780D-02
 Coeff:     -0.101D-01 0.278D-01-0.162D-01-0.133D+00 0.744D-02 0.112D+01
 Gap=     0.029 Goal=   None    Shift=    0.000
 Gap=     0.048 Goal=   None    Shift=    0.000
 RMSDP=4.95D-07 MaxDP=2.46D-05 DE=-5.79D-10 OVMax= 4.52D-05

 Cycle  19  Pass 1  IDiag  1:
 E= -1136.10763726608     Delta-E=       -0.000000000100 Rises=F Damp=F
 DIIS: error= 5.57D-08 at cycle  19 NSaved=  19.
 NSaved=19 IEnMin=19 EnMin= -1136.10763726608     IErMin=19 ErrMin= 5.57D-08
 ErrMax= 5.57D-08  0.00D+00 EMaxC= 1.00D-01 BMatC= 1.80D-12 BMatP= 9.77D-12
 IDIUse=1 WtCom= 1.00D+00 WtEn= 0.00D+00
 Coeff-Com: -0.865D-05 0.114D-04 0.365D-04 0.316D-05 0.320D-03 0.199D-03
 Coeff-Com: -0.719D-03-0.177D-02 0.630D-03 0.151D-02 0.257D-02-0.249D-02
 Coeff-Com: -0.135D-01 0.231D-01 0.311D-01-0.495D-01-0.123D+00-0.110D+00
 Coeff-Com:  0.124D+01
 Coeff:     -0.865D-05 0.114D-04 0.365D-04 0.316D-05 0.320D-03 0.199D-03
 Coeff:     -0.719D-03-0.177D-02 0.630D-03 0.151D-02 0.257D-02-0.249D-02
 Coeff:     -0.135D-01 0.231D-01 0.311D-01-0.495D-01-0.123D+00-0.110D+00
 Coeff:      0.124D+01
 Gap=     0.029 Goal=   None    Shift=    0.000
 Gap=     0.048 Goal=   None    Shift=    0.000
 RMSDP=1.29D-07 MaxDP=8.98D-06 DE=-9.98D-11 OVMax= 1.11D-05

 Cycle  20  Pass 1  IDiag  1:
 E= -1136.10763726610     Delta-E=       -0.000000000023 Rises=F Damp=F
 DIIS: error= 3.83D-08 at cycle  20 NSaved=  20.
 NSaved=20 IEnMin=20 EnMin= -1136.10763726610     IErMin=20 ErrMin= 3.83D-08
 ErrMax= 3.83D-08  0.00D+00 EMaxC= 1.00D-01 BMatC= 5.39D-13 BMatP= 1.80D-12
 IDIUse=1 WtCom= 1.00D+00 WtEn= 0.00D+00
 Coeff-Com:  0.129D-05-0.173D-05 0.304D-05-0.106D-05 0.226D-04 0.870D-04
 Coeff-Com: -0.511D-04-0.600D-03 0.754D-03 0.429D-03-0.159D-03-0.215D-02
 Coeff-Com:  0.333D-02-0.443D-02-0.440D-02 0.316D-01 0.116D-01-0.243D+00
 Coeff-Com:  0.159D-01 0.119D+01
 Coeff:      0.129D-05-0.173D-05 0.304D-05-0.106D-05 0.226D-04 0.870D-04
 Coeff:     -0.511D-04-0.600D-03 0.754D-03 0.429D-03-0.159D-03-0.215D-02
 Coeff:      0.333D-02-0.443D-02-0.440D-02 0.316D-01 0.116D-01-0.243D+00
 Coeff:      0.159D-01 0.119D+01
 Gap=     0.029 Goal=   None    Shift=    0.000
 Gap=     0.048 Goal=   None    Shift=    0.000
 RMSDP=8.52D-08 MaxDP=4.34D-06 DE=-2.27D-11 OVMax= 9.87D-06

 Cycle  21  Pass 1  IDiag  1:
 E= -1136.10763726609     Delta-E=        0.000000000012 Rises=F Damp=F
 DIIS: error= 2.12D-08 at cycle  21 NSaved=  20.
 NSaved=20 IEnMin=19 EnMin= -1136.10763726610     IErMin=20 ErrMin= 2.12D-08
 ErrMax= 2.12D-08  0.00D+00 EMaxC= 1.00D-01 BMatC= 1.62D-13 BMatP= 5.39D-13
 IDIUse=1 WtCom= 1.00D+00 WtEn= 0.00D+00
 Coeff-Com:  0.293D-07-0.398D-05 0.167D-06-0.913D-05-0.127D-04 0.520D-04
 Coeff-Com:  0.382D-04-0.278D-03 0.123D-03 0.320D-03 0.246D-03 0.738D-04
 Coeff-Com: -0.250D-02-0.138D-02 0.127D-01 0.603D-02 0.466D-02-0.284D+00
 Coeff-Com:  0.209D+00 0.106D+01
 Coeff:      0.293D-07-0.398D-05 0.167D-06-0.913D-05-0.127D-04 0.520D-04
 Coeff:      0.382D-04-0.278D-03 0.123D-03 0.320D-03 0.246D-03 0.738D-04
 Coeff:     -0.250D-02-0.138D-02 0.127D-01 0.603D-02 0.466D-02-0.284D+00
 Coeff:      0.209D+00 0.106D+01
 Gap=     0.029 Goal=   None    Shift=    0.000
 Gap=     0.048 Goal=   None    Shift=    0.000
 RMSDP=4.48D-08 MaxDP=2.76D-06 DE= 1.21D-11 OVMax= 4.68D-06

 Cycle  22  Pass 1  IDiag  1:
 E= -1136.10763726611     Delta-E=       -0.000000000018 Rises=F Damp=F
 DIIS: error= 1.30D-08 at cycle  22 NSaved=  20.
 NSaved=20 IEnMin=20 EnMin= -1136.10763726611     IErMin=20 ErrMin= 1.30D-08
 ErrMax= 1.30D-08  0.00D+00 EMaxC= 1.00D-01 BMatC= 3.86D-14 BMatP= 1.62D-13
 IDIUse=1 WtCom= 1.00D+00 WtEn= 0.00D+00
 Coeff-Com: -0.240D-05-0.123D-05-0.489D-04-0.576D-04 0.880D-04 0.388D-03
 Coeff-Com: -0.176D-03-0.460D-03-0.832D-04 0.827D-03-0.614D-03 0.942D-03
 Coeff-Com:  0.861D-03-0.104D-01-0.872D-03 0.653D-01 0.263D-01-0.409D+00
 Coeff-Com: -0.896D-01 0.142D+01
 Coeff:     -0.240D-05-0.123D-05-0.489D-04-0.576D-04 0.880D-04 0.388D-03
 Coeff:     -0.176D-03-0.460D-03-0.832D-04 0.827D-03-0.614D-03 0.942D-03
 Coeff:      0.861D-03-0.104D-01-0.872D-03 0.653D-01 0.263D-01-0.409D+00
 Coeff:     -0.896D-01 0.142D+01
 Gap=     0.029 Goal=   None    Shift=    0.000
 Gap=     0.048 Goal=   None    Shift=    0.000
 RMSDP=3.34D-08 MaxDP=2.39D-06 DE=-1.77D-11 OVMax= 3.86D-06

 Cycle  23  Pass 1  IDiag  1:
 E= -1136.10763726610     Delta-E=        0.000000000012 Rises=F Damp=F
 DIIS: error= 4.24D-09 at cycle  23 NSaved=  20.
 NSaved=20 IEnMin=19 EnMin= -1136.10763726611     IErMin=20 ErrMin= 4.24D-09
 ErrMax= 4.24D-09  0.00D+00 EMaxC= 1.00D-01 BMatC= 6.06D-15 BMatP= 3.86D-14
 IDIUse=1 WtCom= 1.00D+00 WtEn= 0.00D+00
 Large coefficients: NSaved= 20 BigCof=    0.00 CofMax=   10.00 Det=-5.06D-15
 Inversion failed.  Reducing to 19 matrices.
 Large coefficients: NSaved= 19 BigCof=    0.00 CofMax=   10.00 Det=-5.11D-15
 Inversion failed.  Reducing to 18 matrices.
 Large coefficients: NSaved= 18 BigCof=    0.00 CofMax=   10.00 Det=-7.48D-15
 Inversion failed.  Reducing to 17 matrices.
 Large coefficients: NSaved= 17 BigCof=    0.00 CofMax=   10.00 Det=-7.49D-15
 Inversion failed.  Reducing to 16 matrices.
 Large coefficients: NSaved= 16 BigCof=    0.00 CofMax=   10.00 Det=-7.60D-15
 Inversion failed.  Reducing to 15 matrices.
 Coeff-Com:  0.638D-04-0.537D-04-0.444D-04-0.921D-04 0.189D-03 0.144D-03
 Coeff-Com:  0.114D-03-0.114D-02-0.875D-03-0.726D-03 0.464D-01-0.646D-01
 Coeff-Com: -0.172D+00 0.445D-01 0.115D+01
 Coeff:      0.638D-04-0.537D-04-0.444D-04-0.921D-04 0.189D-03 0.144D-03
 Coeff:      0.114D-03-0.114D-02-0.875D-03-0.726D-03 0.464D-01-0.646D-01
 Coeff:     -0.172D+00 0.445D-01 0.115D+01
 Gap=     0.029 Goal=   None    Shift=    0.000
 Gap=     0.048 Goal=   None    Shift=    0.000
 RMSDP=1.35D-08 MaxDP=9.47D-07 DE= 1.18D-11 OVMax= 1.79D-06

 Cycle  24  Pass 1  IDiag  1:
 E= -1136.10763726609     Delta-E=        0.000000000003 Rises=F Damp=F
 DIIS: error= 2.03D-09 at cycle  24 NSaved=  16.
 NSaved=16 IEnMin=14 EnMin= -1136.10763726611     IErMin=16 ErrMin= 2.03D-09
 ErrMax= 2.03D-09  0.00D+00 EMaxC= 1.00D-01 BMatC= 1.22D-15 BMatP= 6.06D-15
 IDIUse=1 WtCom= 1.00D+00 WtEn= 0.00D+00
 Large coefficients: NSaved= 16 BigCof=    0.00 CofMax=   10.00 Det=-2.58D-15
 Inversion failed.  Reducing to 15 matrices.
 Coeff-Com:  0.658D-05-0.171D-05-0.521D-04-0.181D-04 0.765D-04-0.471D-05
 Coeff-Com:  0.429D-03-0.129D-02-0.385D-02 0.101D-01 0.360D-01-0.251D-01
 Coeff-Com: -0.161D+00 0.214D+00 0.931D+00
 Coeff:      0.658D-05-0.171D-05-0.521D-04-0.181D-04 0.765D-04-0.471D-05
 Coeff:      0.429D-03-0.129D-02-0.385D-02 0.101D-01 0.360D-01-0.251D-01
 Coeff:     -0.161D+00 0.214D+00 0.931D+00
 Gap=     0.029 Goal=   None    Shift=    0.000
 Gap=     0.048 Goal=   None    Shift=    0.000
 RMSDP=6.13D-09 MaxDP=2.34D-07 DE= 2.96D-12 OVMax= 6.41D-07

 SCF Done:  E(UB3LYP) =  -1136.10763727     A.U. after   24 cycles
            NFock= 24  Conv=0.61D-08     -V/T= 2.0029
 <Sx>= 0.0000 <Sy>= 0.0000 <Sz>= 0.5000 <S**2>= 0.8314 S= 0.5399
 <L.S>= 0.000000000000E+00
 KE= 1.132826182611D+03 PE=-3.270338190609D+03 EE= 7.306846119210D+02
 Annihilation of the first spin contaminant:
 S**2 before annihilation     0.8314,   after     0.7540
 Leave Link  502 at Sun Dec  3 20:28:40 2023, MaxMem=  1879048192 cpu:             208.4 elap:              19.0
 (Enter /home/sekinelabo/g16/l601.exe)
 Copying SCF densities to generalized density rwf, IOpCl= 1 IROHF=0.

 **********************************************************************

            Population analysis using the SCF Density.

 **********************************************************************

 Orbital symmetries:
 Alpha Orbitals:
       Occupied  (A) (A) (A) (A) (A) (A) (A) (A) (A) (A) (A) (A)
                 (A) (A) (A) (A) (A) (A) (A) (A) (A) (A) (A) (A)
                 (A) (A) (A) (A) (A) (A) (A) (A) (A) (A) (A) (A)
                 (A) (A) (A)
       Virtual   (A) (A) (A) (A) (A) (A) (A) (A) (A) (A) (A) (A)
                 (A) (A) (A) (A) (A) (A) (A) (A) (A) (A) (A) (A)
                 (A) (A) (A) (A) (A) (A) (A) (A) (A) (A) (A) (A)
                 (A) (A) (A) (A) (A) (A) (A) (A) (A) (A) (A) (A)
                 (A) (A) (A) (A) (A) (A) (A) (A) (A) (A) (A) (A)
                 (A) (A) (A) (A) (A) (A) (A) (A) (A) (A) (A) (A)
                 (A) (A) (A) (A) (A) (A) (A) (A) (A) (A) (A) (A)
                 (A) (A) (A) (A) (A) (A) (A) (A) (A) (A) (A) (A)
                 (A) (A) (A) (A) (A) (A) (A) (A) (A) (A) (A) (A)
                 (A) (A) (A) (A) (A) (A) (A) (A) (A) (A) (A) (A)
                 (A) (A) (A) (A) (A) (A) (A) (A) (A) (A) (A) (A)
                 (A) (A) (A) (A) (A) (A) (A) (A) (A) (A) (A) (A)
                 (A) (A) (A) (A) (A) (A) (A) (A) (A) (A) (A) (A)
                 (A) (A) (A) (A) (A) (A) (A) (A) (A) (A) (A) (A)
                 (A) (A) (A)
 Beta  Orbitals:
       Occupied  (A) (A) (A) (A) (A) (A) (A) (A) (A) (A) (A) (A)
                 (A) (A) (A) (A) (A) (A) (A) (A) (A) (A) (A) (A)
                 (A) (A) (A) (A) (A) (A) (A) (A) (A) (A) (A) (A)
                 (A) (A)
       Virtual   (A) (A) (A) (A) (A) (A) (A) (A) (A) (A) (A) (A)
                 (A) (A) (A) (A) (A) (A) (A) (A) (A) (A) (A) (A)
                 (A) (A) (A) (A) (A) (A) (A) (A) (A) (A) (A) (A)
                 (A) (A) (A) (A) (A) (A) (A) (A) (A) (A) (A) (A)
                 (A) (A) (A) (A) (A) (A) (A) (A) (A) (A) (A) (A)
                 (A) (A) (A) (A) (A) (A) (A) (A) (A) (A) (A) (A)
                 (A) (A) (A) (A) (A) (A) (A) (A) (A) (A) (A) (A)
                 (A) (A) (A) (A) (A) (A) (A) (A) (A) (A) (A) (A)
                 (A) (A) (A) (A) (A) (A) (A) (A) (A) (A) (A) (A)
                 (A) (A) (A) (A) (A) (A) (A) (A) (A) (A) (A) (A)
                 (A) (A) (A) (A) (A) (A) (A) (A) (A) (A) (A) (A)
                 (A) (A) (A) (A) (A) (A) (A) (A) (A) (A) (A) (A)
                 (A) (A) (A) (A) (A) (A) (A) (A) (A) (A) (A) (A)
                 (A) (A) (A) (A) (A) (A) (A) (A) (A) (A) (A) (A)
                 (A) (A) (A) (A)
 The electronic state is 2-A.
 Alpha  occ. eigenvalues --  -38.45372 -38.45040 -38.44930 -38.44441 -38.44184
 Alpha  occ. eigenvalues --  -38.43667 -38.43610  -2.21117  -2.20852  -2.20710
 Alpha  occ. eigenvalues --   -2.20206  -2.19993  -2.19483  -2.19425  -1.14802
 Alpha  occ. eigenvalues --   -1.14793  -1.14759  -1.14547  -1.14508  -1.14458
 Alpha  occ. eigenvalues --   -1.14396  -1.14385  -1.14349  -1.13872  -1.13851
 Alpha  occ. eigenvalues --   -1.13830  -1.13640  -1.13638  -1.13609  -1.13168
 Alpha  occ. eigenvalues --   -1.13144  -1.13123  -1.13080  -1.13079  -1.13067
 Alpha  occ. eigenvalues --   -0.15908  -0.13709  -0.13138  -0.10672
 Alpha virt. eigenvalues --   -0.07732  -0.04840  -0.04533  -0.03629  -0.03416
 Alpha virt. eigenvalues --   -0.02581  -0.01886  -0.01407  -0.01117  -0.00971
 Alpha virt. eigenvalues --   -0.00725  -0.00517   0.00273   0.00442   0.00502
 Alpha virt. eigenvalues --    0.00632   0.01015   0.01051   0.01147   0.01274
 Alpha virt. eigenvalues --    0.01395   0.01530   0.01631   0.01700   0.01824
 Alpha virt. eigenvalues --    0.01930   0.02016   0.02044   0.02107   0.02177
 Alpha virt. eigenvalues --    0.02564   0.02636   0.02691   0.02816   0.02911
 Alpha virt. eigenvalues --    0.02978   0.03120   0.03168   0.03328   0.03352
 Alpha virt. eigenvalues --    0.03441   0.03778   0.03943   0.03958   0.04142
 Alpha virt. eigenvalues --    0.04583   0.04650   0.04883   0.05238   0.05716
 Alpha virt. eigenvalues --    0.05907   0.06437   0.06641   0.06955   0.07095
 Alpha virt. eigenvalues --    0.07194   0.07558   0.07696   0.07845   0.07923
 Alpha virt. eigenvalues --    0.08120   0.08628   0.09061   0.09344   0.09370
 Alpha virt. eigenvalues --    0.10098   0.10331   0.10659   0.11088   0.11505
 Alpha virt. eigenvalues --    0.11893   0.12065   0.12293   0.12971   0.13201
 Alpha virt. eigenvalues --    0.14232   0.15205   0.15626   0.16340   0.16590
 Alpha virt. eigenvalues --    0.27378   0.27794   0.29090   0.29648   0.29944
 Alpha virt. eigenvalues --    0.31006   0.31246   0.31777   0.32189   0.32504
 Alpha virt. eigenvalues --    0.33259   0.33534   0.33864   0.34321   0.35355
 Alpha virt. eigenvalues --    0.36030   0.37167   0.37978   0.38108   0.38840
 Alpha virt. eigenvalues --    0.39115   0.40211   0.40782   0.41210   0.41900
 Alpha virt. eigenvalues --    0.42545   0.42740   0.43420   0.43915   0.43941
 Alpha virt. eigenvalues --    0.44092   0.44260   0.44516   0.44614   0.45008
 Alpha virt. eigenvalues --    0.45135   0.45740   0.46169   0.46667   0.47650
 Alpha virt. eigenvalues --    0.48106   0.48350   0.49199   0.49869   0.50167
 Alpha virt. eigenvalues --    0.50754   0.51180   0.51597   0.52364   0.52439
 Alpha virt. eigenvalues --    0.53353   0.57871   0.58603   0.62468   0.64273
 Alpha virt. eigenvalues --    0.70107   2.02670   2.05599   2.07470   2.10811
 Alpha virt. eigenvalues --    2.13361   2.16464   2.17532   4.41910   4.42236
 Alpha virt. eigenvalues --    4.42476   4.43677   4.44060   4.44538   4.44680
 Alpha virt. eigenvalues --    4.44735   4.45129   4.45481   4.45946   4.46667
 Alpha virt. eigenvalues --    4.46786   4.47162   4.48288   4.49065   4.49854
 Alpha virt. eigenvalues --    4.50247   4.53996   4.57308   4.63704  96.21979
 Alpha virt. eigenvalues --   96.25488  96.28111  96.31768  96.35180  96.38916
 Alpha virt. eigenvalues --   96.40115
  Beta  occ. eigenvalues --  -38.45390 -38.44989 -38.44920 -38.44384 -38.44111
  Beta  occ. eigenvalues --  -38.43658 -38.43574  -2.21151  -2.20764  -2.20697
  Beta  occ. eigenvalues --   -2.20099  -2.19856  -2.19471  -2.19357  -1.14828
  Beta  occ. eigenvalues --   -1.14816  -1.14767  -1.14474  -1.14450  -1.14394
  Beta  occ. eigenvalues --   -1.14391  -1.14374  -1.14305  -1.13799  -1.13782
  Beta  occ. eigenvalues --   -1.13757  -1.13546  -1.13542  -1.13523  -1.13146
  Beta  occ. eigenvalues --   -1.13140  -1.13100  -1.13035  -1.13030  -1.13028
  Beta  occ. eigenvalues --   -0.15388  -0.13212  -0.12464
  Beta virt. eigenvalues --   -0.07675  -0.07434  -0.04380  -0.04179  -0.03453
  Beta virt. eigenvalues --   -0.03085  -0.02332  -0.01638  -0.01142  -0.00839
  Beta virt. eigenvalues --   -0.00751  -0.00566  -0.00237   0.00351   0.00516
  Beta virt. eigenvalues --    0.00631   0.00738   0.01059   0.01144   0.01241
  Beta virt. eigenvalues --    0.01334   0.01497   0.01618   0.01725   0.01740
  Beta virt. eigenvalues --    0.01898   0.02028   0.02093   0.02155   0.02226
  Beta virt. eigenvalues --    0.02243   0.02623   0.02690   0.02724   0.02890
  Beta virt. eigenvalues --    0.02976   0.03049   0.03192   0.03217   0.03351
  Beta virt. eigenvalues --    0.03453   0.03499   0.03883   0.03986   0.04034
  Beta virt. eigenvalues --    0.04160   0.04667   0.04742   0.04957   0.05357
  Beta virt. eigenvalues --    0.05811   0.05975   0.06493   0.06666   0.07059
  Beta virt. eigenvalues --    0.07230   0.07272   0.07670   0.07798   0.08001
  Beta virt. eigenvalues --    0.08080   0.08251   0.08697   0.09153   0.09537
  Beta virt. eigenvalues --    0.09612   0.10262   0.10352   0.10842   0.11230
  Beta virt. eigenvalues --    0.11756   0.12041   0.12295   0.12530   0.13153
  Beta virt. eigenvalues --    0.13328   0.14334   0.15307   0.15741   0.16475
  Beta virt. eigenvalues --    0.16749   0.27693   0.28133   0.29406   0.29939
  Beta virt. eigenvalues --    0.30150   0.31242   0.31575   0.32025   0.32473
  Beta virt. eigenvalues --    0.32666   0.33515   0.33828   0.34110   0.34620
  Beta virt. eigenvalues --    0.35528   0.36290   0.37337   0.38390   0.38549
  Beta virt. eigenvalues --    0.39130   0.39337   0.40458   0.40940   0.41500
  Beta virt. eigenvalues --    0.42120   0.42776   0.42929   0.43568   0.43981
  Beta virt. eigenvalues --    0.44113   0.44246   0.44283   0.44523   0.44812
  Beta virt. eigenvalues --    0.45142   0.45195   0.45833   0.46261   0.46770
  Beta virt. eigenvalues --    0.47836   0.48262   0.48429   0.49280   0.50074
  Beta virt. eigenvalues --    0.50307   0.50883   0.51248   0.51656   0.52404
  Beta virt. eigenvalues --    0.52526   0.53593   0.58043   0.58792   0.62657
  Beta virt. eigenvalues --    0.64349   0.70214   2.02778   2.05741   2.07586
  Beta virt. eigenvalues --    2.10990   2.13497   2.16544   2.17615   4.41933
  Beta virt. eigenvalues --    4.42315   4.42524   4.43704   4.44072   4.44591
  Beta virt. eigenvalues --    4.44701   4.44781   4.45226   4.45550   4.46009
  Beta virt. eigenvalues --    4.46717   4.46805   4.47225   4.48349   4.49077
  Beta virt. eigenvalues --    4.49913   4.50286   4.54060   4.57332   4.63781
  Beta virt. eigenvalues --   96.22017  96.25536  96.28151  96.31827  96.35227
  Beta virt. eigenvalues --   96.38952  96.40145
          Condensed to atoms (all electrons):
               1          2          3          4          5          6
     1  Na  10.678351   0.264720   0.178560  -0.066504  -0.043874  -0.017857
     2  Na   0.264720  10.923417  -0.075834   0.203257  -0.198732  -0.119211
     3  Na   0.178560  -0.075834  10.874547  -0.091996   0.020195   0.051559
     4  Na  -0.066504   0.203257  -0.091996  11.684724  -0.155206  -0.326084
     5  Na  -0.043874  -0.198732   0.020195  -0.155206  10.816121   0.053083
     6  Na  -0.017857  -0.119211   0.051559  -0.326084   0.053083  11.531428
     7  Na  -0.018573  -0.014505  -0.066705   0.222887  -0.030704   0.172857
               7
     1  Na  -0.018573
     2  Na  -0.014505
     3  Na  -0.066705
     4  Na   0.222887
     5  Na  -0.030704
     6  Na   0.172857
     7  Na  10.608744
          Atomic-Atomic Spin Densities.
               1          2          3          4          5          6
     1  Na  -0.042562  -0.100762   0.109783   0.034258  -0.002764  -0.030007
     2  Na  -0.100762   0.075683  -0.078371   0.064728   0.015152   0.060721
     3  Na   0.109783  -0.078371   0.494031   0.012942  -0.004549  -0.158149
     4  Na   0.034258   0.064728   0.012942   0.007406   0.076216   0.076866
     5  Na  -0.002764   0.015152  -0.004549   0.076216   0.283626  -0.062976
     6  Na  -0.030007   0.060721  -0.158149   0.076866  -0.062976  -0.128433
     7  Na   0.010690  -0.000207   0.003704  -0.113657   0.011502   0.197024
               7
     1  Na   0.010690
     2  Na  -0.000207
     3  Na   0.003704
     4  Na  -0.113657
     5  Na   0.011502
     6  Na   0.197024
     7  Na   0.065961
 Mulliken charges and spin densities:
               1          2
     1  Na   0.025177  -0.021364
     2  Na   0.016887   0.036943
     3  Na   0.109674   0.379390
     4  Na  -0.471078   0.158759
     5  Na   0.539117   0.316208
     6  Na  -0.345776  -0.044954
     7  Na   0.125999   0.175018
 Sum of Mulliken charges =  -0.00000   1.00000
 Mulliken charges and spin densities with hydrogens summed into heavy atoms:
               1          2
     1  Na   0.025177  -0.021364
     2  Na   0.016887   0.036943
     3  Na   0.109674   0.379390
     4  Na  -0.471078   0.158759
     5  Na   0.539117   0.316208
     6  Na  -0.345776  -0.044954
     7  Na   0.125999   0.175018
 Electronic spatial extent (au):  <R**2>=           4035.9662
 Charge=             -0.0000 electrons
 Dipole moment (field-independent basis, Debye):
    X=              0.2359    Y=             -0.0505    Z=              0.5487  Tot=              0.5994
 Quadrupole moment (field-independent basis, Debye-Ang):
   XX=            -60.9115   YY=            -73.2797   ZZ=            -67.1112
   XY=              4.7899   XZ=              0.5590   YZ=             -0.4248
 Traceless Quadrupole moment (field-independent basis, Debye-Ang):
   XX=              6.1893   YY=             -6.1789   ZZ=             -0.0104
   XY=              4.7899   XZ=              0.5590   YZ=             -0.4248
 Octapole moment (field-independent basis, Debye-Ang**2):
  XXX=             10.1339  YYY=             -5.3196  ZZZ=              7.7439  XYY=             -7.2001
  XXY=              1.3680  XXZ=             30.3180  XZZ=              1.8660  YZZ=              3.1486
  YYZ=             -4.7175  XYZ=             22.7574
 Hexadecapole moment (field-independent basis, Debye-Ang**3):
 XXXX=          -3711.7667 YYYY=          -2413.8087 ZZZZ=           -488.9519 XXXY=            139.8816
 XXXZ=             -9.4994 YYYX=             22.6865 YYYZ=            -15.2501 ZZZX=             -0.2088
 ZZZY=              9.8841 XXYY=          -1045.9968 XXZZ=           -733.5986 YYZZ=           -467.3855
 XXYZ=            -36.4764 YYXZ=             13.6798 ZZXY=             32.4742
 N-N= 2.707197588108D+02 E-N=-3.270338190414D+03  KE= 1.132826182611D+03
                          Isotropic Fermi Contact Couplings
        Atom                 a.u.       MegaHertz       Gauss      10(-4) cm-1
     1  Na(23)            -0.10019    -118.52913     -42.29414     -39.53706
     2  Na(23)             0.16470     194.84998      69.52732      64.99496
     3  Na(23)             0.25155     297.58841     106.18694      99.26481
     4  Na(23)            -0.02149     -25.41745      -9.06958      -8.47835
     5  Na(23)             0.31867     376.99632     134.52166     125.75244
     6  Na(23)            -0.00561      -6.63630      -2.36800      -2.21363
     7  Na(23)             0.18289     216.36151      77.20317      72.17043
 --------------------------------------------------------
       Center         ----  Spin Dipole Couplings  ----
                      3XX-RR        3YY-RR        3ZZ-RR
 --------------------------------------------------------
     1   Atom       -0.001797      0.010344     -0.008547
     2   Atom       -0.004764      0.002897      0.001867
     3   Atom       -0.005186      0.002332      0.002854
     4   Atom        0.043285     -0.018285     -0.025000
     5   Atom       -0.006620      0.004522      0.002097
     6   Atom        0.022314     -0.017971     -0.004342
     7   Atom        0.011444     -0.001595     -0.009849
 --------------------------------------------------------
                        XY            XZ            YZ
 --------------------------------------------------------
     1   Atom       -0.010848      0.002113     -0.005914
     2   Atom        0.005619      0.003468     -0.002402
     3   Atom       -0.002157     -0.000854     -0.000974
     4   Atom        0.018447     -0.001517     -0.001375
     5   Atom        0.000907     -0.000003      0.001644
     6   Atom       -0.002173      0.023970     -0.001853
     7   Atom       -0.016739      0.007509     -0.006961
 --------------------------------------------------------


 ---------------------------------------------------------------------------------
              Anisotropic Spin Dipole Couplings in Principal Axis System
 ---------------------------------------------------------------------------------

       Atom             a.u.   MegaHertz   Gauss  10(-4) cm-1        Axes

              Baa    -0.0105    -1.486    -0.530    -0.496  0.2738  0.3913  0.8786
     1 Na(23) Bbb    -0.0076    -1.075    -0.384    -0.359  0.8311  0.3635 -0.4209
              Bcc     0.0181     2.561     0.914     0.854 -0.4841  0.8454 -0.2257
 
              Baa    -0.0093    -1.314    -0.469    -0.438  0.8222 -0.4477 -0.3515
     2 Na(23) Bbb     0.0033     0.473     0.169     0.158  0.3931  0.0000  0.9195
              Bcc     0.0060     0.841     0.300     0.281  0.4117  0.8942 -0.1760
 
              Baa    -0.0059    -0.832    -0.297    -0.278  0.9563  0.2653  0.1229
     3 Na(23) Bbb     0.0022     0.315     0.112     0.105 -0.2757  0.6780  0.6814
              Bcc     0.0037     0.517     0.185     0.173  0.0975 -0.6855  0.7215
 
              Baa    -0.0255    -3.595    -1.283    -1.199 -0.0867  0.3981  0.9132
     4 Na(23) Bbb    -0.0230    -3.245    -1.158    -1.082 -0.2536  0.8777 -0.4067
              Bcc     0.0484     6.840     2.441     2.281  0.9634  0.2669 -0.0249
 
              Baa    -0.0067    -0.945    -0.337    -0.315  0.9964 -0.0828  0.0158
     5 Na(23) Bbb     0.0013     0.182     0.065     0.061 -0.0509 -0.4411  0.8960
              Bcc     0.0054     0.764     0.272     0.255  0.0673  0.8936  0.4438
 
              Baa    -0.0188    -2.655    -0.947    -0.886 -0.3848  0.5861  0.7131
     6 Na(23) Bbb    -0.0178    -2.508    -0.895    -0.836  0.3337  0.8086 -0.4845
              Bcc     0.0366     5.162     1.842     1.722  0.8606 -0.0515  0.5067
 
              Baa    -0.0143    -2.026    -0.723    -0.676  0.2752  0.7133  0.6446
     7 Na(23) Bbb    -0.0114    -1.614    -0.576    -0.538 -0.5509 -0.4325  0.7138
              Bcc     0.0258     3.639     1.299     1.214  0.7879 -0.5516  0.2739
 

 ---------------------------------------------------------------------------------

 No NMR shielding tensors so no spin-rotation constants.
 Leave Link  601 at Sun Dec  3 20:28:41 2023, MaxMem=  1879048192 cpu:               2.3 elap:               0.2
 (Enter /home/sekinelabo/g16/l701.exe)
 ... and contract with generalized density number  0.
 Compute integral first derivatives.
 Leave Link  701 at Sun Dec  3 20:28:41 2023, MaxMem=  1879048192 cpu:               1.6 elap:               0.1
 (Enter /home/sekinelabo/g16/l702.exe)
 L702 exits ... SP integral derivatives will be done elsewhere.
 Leave Link  702 at Sun Dec  3 20:28:41 2023, MaxMem=  1879048192 cpu:               0.4 elap:               0.0
 (Enter /home/sekinelabo/g16/l703.exe)
 Integral derivatives from FoFJK, PRISM(SPDF).
 Compute integral first derivatives, UseDBF=F ICtDFT=           0.
 Calling FoFJK, ICntrl=      2127 FMM=F ISym2X=0 I1Cent= 0 IOpClX= 1 NMat=1 NMatS=1 NMatT=0.
 FoFJK:  IHMeth= 1 ICntrl=    2127 DoSepK=F KAlg= 0 I1Cent=           0 FoldK=F
 IRaf=         0 NMat=       1 IRICut=       1 DoRegI=T DoRafI=F ISym2E= 0 IDoP0=0 IntGTp=1.
 FoFCou: FMM=F IPFlag=           0 FMFlag=      100000 FMFlg1=         800
         NFxFlg=           0 DoJE=F BraDBF=F KetDBF=F FulRan=T
         wScrn=  0.000000 ICntrl=      2127 IOpCl=  1 I1Cent=           0 NGrid=           0
         NMat0=    1 NMatS0=      1 NMatT0=    0 NMatD0=    1 NMtDS0=    0 NMtDT0=    0
 Symmetry not used in FoFCou.
 Leave Link  703 at Sun Dec  3 20:28:43 2023, MaxMem=  1879048192 cpu:              28.8 elap:               1.9
 (Enter /home/sekinelabo/g16/l716.exe)
 Dipole        = 9.28294934D-02-1.98629573D-02 2.15860807D-01
 ***** Axes restored to original set *****
 -------------------------------------------------------------------
 Center     Atomic                   Forces (Hartrees/Bohr)
 Number     Number              X              Y              Z
 -------------------------------------------------------------------
      1       11          -0.004337264    0.001394643   -0.000258624
      2       11           0.000158050   -0.000282976    0.000356142
      3       11           0.002319875   -0.002570223    0.000111318
      4       11          -0.000767362   -0.000892717   -0.002983782
      5       11           0.000518001    0.001194217   -0.000013439
      6       11           0.001041947    0.004402570    0.000169204
      7       11           0.001066753   -0.003245512    0.002619181
 -------------------------------------------------------------------
 Cartesian Forces:  Max     0.004402570 RMS     0.002000805
 Z-matrix is all fixed cartesians, so copy forces.
 Force constants in Cartesian coordinates: 
                1             2             3             4             5 
      1  0.271996D-01
      2  0.448612D-02  0.203925D-01
      3 -0.341558D-02 -0.128370D-01  0.125734D-01
      4 -0.175254D-01 -0.614437D-02  0.307147D-02  0.333576D-01
      5  0.116377D-02 -0.137869D-01  0.117597D-01  0.563677D-02  0.238573D-01
      6 -0.329132D-02  0.110786D-01 -0.123944D-01  0.318600D-02 -0.131079D-01
      7 -0.104683D-01  0.482699D-02 -0.399088D-03  0.232057D-02 -0.614631D-03
      8 -0.381399D-02 -0.934726D-02  0.212838D-02  0.340515D-02 -0.858946D-03
      9  0.291487D-02  0.213284D-02 -0.201990D-02 -0.307874D-02  0.923304D-03
     10  0.240302D-02  0.234250D-04  0.851801D-03 -0.194099D-01 -0.354335D-02
     11 -0.324111D-02  0.000000D+00 -0.111045D-02 -0.241092D-02 -0.101881D-01
     12  0.416415D-02  0.217442D-03  0.169124D-02 -0.216870D-02 -0.176086D-02
     13 -0.194179D-04  0.396210D-04  0.415541D-04  0.128714D-02 -0.269257D-02
     14  0.270875D-04 -0.552705D-04 -0.579671D-04 -0.502320D-03  0.100052D-02
     15 -0.286243D-04  0.584062D-04  0.612558D-04 -0.101806D-02  0.224303D-02
     16 -0.159100D-02 -0.323140D-02 -0.141432D-03  0.148037D-05  0.612232D-05
     17  0.138079D-02  0.279629D-02  0.102261D-03  0.000000D+00 -0.150000D-05
     18 -0.356348D-03 -0.647138D-03  0.160753D-03 -0.833039D-05 -0.344517D-04
     19  0.154940D-05  0.000000D+00 -0.871884D-05 -0.314527D-04  0.438759D-04
     20 -0.267618D-05  0.000000D+00  0.150595D-04  0.160522D-04 -0.223926D-04
     21  0.128550D-04 -0.314953D-05 -0.723379D-04  0.163613D-04 -0.228236D-04
                6             7             8             9            10 
      6  0.207722D-01
      7  0.472306D-04  0.192268D-01
      8  0.121560D-03 -0.625472D-04  0.265932D-01
      9  0.685735D-04  0.599861D-03 -0.178054D-02  0.274083D-02
     10  0.322180D-02  0.288055D-05  0.119130D-04  0.154814D-04  0.284990D-01
     11  0.947920D-03 -0.587760D-05 -0.243078D-04 -0.315890D-04  0.108073D-01
     12 -0.115323D-01 -0.616436D-05 -0.254937D-04 -0.331302D-04 -0.291964D-02
     13 -0.312531D-02  0.847978D-05 -0.146466D-04  0.703544D-04 -0.110131D-01
     14  0.938130D-03  0.000000D+00 -0.120541D-05  0.579015D-05 -0.674445D-02
     15  0.310670D-02  0.000000D+00  0.000000D+00  0.464536D-05 -0.628044D-03
     16  0.795621D-05 -0.158225D-01  0.431206D-02  0.944538D-03 -0.622367D-04
     17 -0.194931D-05 -0.470276D-02 -0.159141D-01 -0.102740D-02 -0.512206D-05
     18 -0.447714D-04  0.212397D-03 -0.787854D-03 -0.112687D-02 -0.410936D-05
     19 -0.463651D-04  0.473208D-02 -0.383794D-02 -0.146636D-02 -0.419593D-03
     20  0.236629D-04  0.558129D-03 -0.447405D-03 -0.222399D-03 -0.549723D-03
     21  0.241185D-04 -0.454796D-03  0.344918D-03  0.365845D-03 -0.537292D-03
               11            12            13            14            15 
     11  0.257665D-01
     12  0.622211D-02  0.229825D-01
     13 -0.660560D-02  0.340821D-02  0.108589D-01
     14 -0.171049D-01 -0.208404D-02  0.978378D-02  0.262732D-01
     15 -0.753953D-02 -0.106052D-01  0.333148D-03  0.118417D-02  0.135416D-01
     16  0.317632D-04  0.323747D-04  0.136273D-03 -0.205128D-03 -0.204993D-03
     17  0.261410D-05  0.266442D-05  0.166711D-03 -0.877285D-03 -0.870306D-03
     18  0.209726D-05  0.213763D-05 -0.698277D-03  0.390001D-02  0.386833D-02
     19  0.142443D-02 -0.251023D-02 -0.125820D-02 -0.235966D-02  0.154601D-02
     20  0.154819D-02 -0.257182D-02 -0.677297D-03 -0.923505D-02  0.492519D-02
     21  0.150945D-02 -0.250525D-02 -0.296804D-04 -0.388610D-02 -0.997738D-02
               16            17            18            19            20 
     16  0.299329D-01
     17 -0.270779D-02  0.455016D-01
     18 -0.299589D-02  0.665511D-02  0.102628D-01
     19 -0.125949D-01  0.586853D-02  0.385056D-02  0.957049D-02
     20  0.179437D-02 -0.315076D-01 -0.908778D-02 -0.113886D-02  0.396636D-01
     21  0.235745D-02 -0.486038D-02 -0.131224D-01 -0.136490D-02  0.691809D-02
               21 
     21  0.252874D-01
 Leave Link  716 at Sun Dec  3 20:28:43 2023, MaxMem=  1879048192 cpu:               0.4 elap:               0.0
 (Enter /home/sekinelabo/g16/l103.exe)

 GradGradGradGradGradGradGradGradGradGradGradGradGradGradGradGradGradGrad
 Berny optimization.
 Search for a local minimum.
 Step number   1 out of a maximum of    2
 All quantities printed in internal units (Hartrees-Bohrs-Radians)
 Second derivative matrix not updated -- first step.
 ITU=  0
     Eigenvalues ---    0.00046   0.00294   0.00458   0.00672   0.01171
     Eigenvalues ---    0.01351   0.02069   0.02962   0.03582   0.04031
     Eigenvalues ---    0.04583   0.05163   0.05639   0.07122   0.08342
 Quadratic step=5.255D-01 exceeds max=3.000D-01 adjusted using Lamda=-6.282D-03.
 Angle between NR and scaled steps=  16.59 degrees.
 Angle between quadratic step and forces=  35.76 degrees.
 Linear search not attempted -- first point.
 B after Tr=    -0.000000    0.000000    0.000000
         Rot=    1.000000   -0.000000   -0.000000    0.000000 Ang=   0.00 deg.
 Variable       Old X    -DE/DX   Delta X   Delta X   Delta X     New X
                                 (Linear)    (Quad)   (Total)
    X1       28.74387  -0.00434   0.00000  -0.14237  -0.14237  28.60150
    Y1       26.54328   0.00139   0.00000   0.05092   0.05092  26.59421
    Z1       21.43724  -0.00026   0.00000  -0.00972  -0.00972  21.42753
    X2       27.42956   0.00016   0.00000  -0.07412  -0.07412  27.35544
    Y2       21.87585  -0.00028   0.00000  -0.00312  -0.00312  21.87273
    Z2       25.27339   0.00036   0.00000  -0.05961  -0.05961  25.21377
    X3       22.06765   0.00232   0.00000   0.08948   0.08948  22.15713
    Y3       29.88866  -0.00257   0.00000  -0.05329  -0.05329  29.83537
    Z3       20.10517   0.00011   0.00000   0.00895   0.00895  20.11412
    X4       21.86394  -0.00077   0.00000  -0.04763  -0.04763  21.81632
    Y4       18.51952  -0.00089   0.00000  -0.00701  -0.00701  18.51251
    Z4       25.87281  -0.00298   0.00000  -0.10087  -0.10087  25.77194
    X5       18.30096   0.00052   0.00000   0.00531   0.00531  18.30627
    Y5       13.71183   0.00119   0.00000   0.01612   0.01612  13.72795
    Z5       23.74025  -0.00001   0.00000   0.00450   0.00450  23.74475
    X6       17.67457   0.00104   0.00000   0.09926   0.09926  17.77383
    Y6       24.68379   0.00440   0.00000   0.04868   0.04868  24.73247
    Z6       19.55111   0.00017   0.00000   0.04407   0.04407  19.59518
    X7       18.21758   0.00107   0.00000   0.07006   0.07006  18.28765
    Y7       19.07508  -0.00325   0.00000  -0.05230  -0.05230  19.02279
    Z7       18.31802   0.00262   0.00000   0.11268   0.11268  18.43070
         Item               Value     Threshold  Converged?
 Maximum Force            0.004403     0.000450     NO 
 RMS     Force            0.002001     0.000300     NO 
 Maximum Displacement     0.142370     0.001800     NO 
 RMS     Displacement     0.065555     0.001200     NO 
 Predicted change in Energy=-1.400999D-03
 GradGradGradGradGradGradGradGradGradGradGradGradGradGradGradGradGradGrad

 Leave Link  103 at Sun Dec  3 20:28:43 2023, MaxMem=  1879048192 cpu:               0.2 elap:               0.0
 (Enter /home/sekinelabo/g16/l9999.exe)
 1\1\GINC-SEKINELABO-XA7R-R37\Force\UB3LYP\6-311+G(d)\Na7(2)\SEKINELABO
 \03-Dec-2023\0\\#P B3LYP/6-311+g(d) force\\DPGEN\\0,2\Na,15.2106,14.04
 61,11.3441\Na,14.5151,11.5762,13.3741\Na,11.6777,15.8164,10.6392\Na,11
 .5699,9.80011,13.6913\Na,9.68445,7.25599,12.5628\Na,9.35298,13.0621,10
 .346\Na,9.64033,10.0941,9.69348\\Version=ES64L-G16RevB.01\State=2-A\HF
 =-1136.1076373\S2=0.831354\S2-1=0.\S2A=0.754025\RMSD=6.133e-09\RMSF=2.
 001e-03\Dipole=0.0667635,-0.1675023,-0.151965\Quadrupole=1.233599,1.09
 55962,-2.3291952,4.5782061,-1.4562538,2.6342799\PG=C01 [X(Na7)]\\@


 The hours that make us happy make us wise.
                         -- John Masefield
 Job cpu time:       0 days  0 hours  4 minutes 13.2 seconds.
 Elapsed time:       0 days  0 hours  0 minutes 22.0 seconds.
 File lengths (MBytes):  RWF=     32 Int=      0 D2E=      0 Chk=      4 Scr=      1
 Normal termination of Gaussian 16 at Sun Dec  3 20:28:43 2023.
