1.630349999999999966e+01 1.681099999999999994e+01 1.201810000000000045e+01 1.492929999999999957e+01 1.302979999999999983e+01 1.318709999999999916e+01 1.351440000000000019e+01 1.314269999999999960e+01 1.620609999999999928e+01 1.624490000000000123e+01 1.542530000000000001e+01 1.536619999999999919e+01 1.322150000000000070e+01 1.625390000000000157e+01 1.361309999999999931e+01 1.098470000000000013e+01 1.411170000000000080e+01 1.402120000000000033e+01 1.644320000000000093e+01 1.286730000000000018e+01 1.722970000000000113e+01
1.764539999999999864e+01 1.514569999999999972e+01 1.312969999999999970e+01 1.440820000000000078e+01 1.369289999999999985e+01 1.333309999999999995e+01 1.340220000000000056e+01 1.280269999999999975e+01 1.671049999999999969e+01 1.495739999999999981e+01 1.606820000000000093e+01 1.592800000000000082e+01 1.291910000000000025e+01 1.670730000000000004e+01 1.284699999999999953e+01 1.126479999999999926e+01 1.449200000000000088e+01 1.481489999999999974e+01 1.704439999999999955e+01 1.273279999999999923e+01 1.487839999999999918e+01
1.699480000000000146e+01 1.559769999999999968e+01 1.341249999999999964e+01 1.387139999999999951e+01 1.337950000000000017e+01 1.292830000000000013e+01 1.412480000000000047e+01 1.259789999999999921e+01 1.661120000000000019e+01 1.474859999999999971e+01 1.571219999999999928e+01 1.550380000000000003e+01 1.363209999999999944e+01 1.712239999999999895e+01 1.274729999999999919e+01 1.147020000000000017e+01 1.484179999999999922e+01 1.516920000000000002e+01 1.679960000000000164e+01 1.239010000000000034e+01 1.526929999999999943e+01
1.684740000000000038e+01 1.560759999999999970e+01 1.342639999999999922e+01 1.389029999999999987e+01 1.332820000000000071e+01 1.290160000000000018e+01 1.417220000000000013e+01 1.258140000000000036e+01 1.658970000000000056e+01 1.475089999999999968e+01 1.563289999999999935e+01 1.558210000000000051e+01 1.370880000000000010e+01 1.713070000000000093e+01 1.270509999999999984e+01 1.150489999999999924e+01 1.493069999999999986e+01 1.518449999999999989e+01 1.676699999999999946e+01 1.243009999999999948e+01 1.525210000000000043e+01
1.671719999999999828e+01 1.560410000000000075e+01 1.341220000000000034e+01 1.391900000000000048e+01 1.329570000000000007e+01 1.289620000000000033e+01 1.414990000000000059e+01 1.256170000000000009e+01 1.658770000000000167e+01 1.473900000000000077e+01 1.556670000000000087e+01 1.569009999999999927e+01 1.377870000000000061e+01 1.711830000000000140e+01 1.267019999999999946e+01 1.155579999999999963e+01 1.501479999999999926e+01 1.518849999999999945e+01 1.678190000000000026e+01 1.248029999999999973e+01 1.519669999999999987e+01
1.661420000000000030e+01 1.558960000000000079e+01 1.336950000000000038e+01 1.395330000000000048e+01 1.328609999999999935e+01 1.292060000000000031e+01 1.406329999999999991e+01 1.252870000000000061e+01 1.660399999999999920e+01 1.472059999999999924e+01 1.551909999999999989e+01 1.581840000000000046e+01 1.383530000000000015e+01 1.708820000000000050e+01 1.264450000000000074e+01 1.161739999999999995e+01 1.509079999999999977e+01 1.517709999999999937e+01 1.683759999999999835e+01 1.253899999999999970e+01 1.510749999999999993e+01
1.681609999999999872e+01 1.554710000000000036e+01 1.280450000000000088e+01 1.402289999999999992e+01 1.336899999999999977e+01 1.354589999999999961e+01 1.313649999999999984e+01 1.221909999999999918e+01 1.649690000000000012e+01 1.507469999999999999e+01 1.540980000000000061e+01 1.657519999999999882e+01 1.355579999999999963e+01 1.685249999999999915e+01 1.266869999999999941e+01 1.185880000000000045e+01 1.537809999999999988e+01 1.487459999999999916e+01 1.717680000000000007e+01 1.286589999999999989e+01 1.467570000000000086e+01
1.686779999999999902e+01 1.560410000000000075e+01 1.272240000000000038e+01 1.403880000000000017e+01 1.336580000000000013e+01 1.362930000000000064e+01 1.305819999999999936e+01 1.225019999999999953e+01 1.644350000000000023e+01 1.513770000000000060e+01 1.532990000000000030e+01 1.656299999999999883e+01 1.352640000000000065e+01 1.684939999999999927e+01 1.266099999999999959e+01 1.183999999999999986e+01 1.537550000000000061e+01 1.490789999999999971e+01 1.717269999999999897e+01 1.286660000000000004e+01 1.471460000000000079e+01
1.712780000000000058e+01 1.517379999999999995e+01 1.332569999999999943e+01 1.428650000000000020e+01 1.314830000000000076e+01 1.217409999999999926e+01 1.354819999999999958e+01 1.249610000000000021e+01 1.627199999999999847e+01 1.495630000000000059e+01 1.552560000000000073e+01 1.559650000000000070e+01 1.340920000000000023e+01 1.688879999999999981e+01 1.330059999999999931e+01 1.160219999999999985e+01 1.581840000000000046e+01 1.598850000000000016e+01 1.671130000000000138e+01 1.259060000000000024e+01 1.498399999999999999e+01
1.276040000000000063e+01 1.495129999999999981e+01 1.502860000000000085e+01 1.526789999999999914e+01 1.733149999999999835e+01 1.430250000000000021e+01 1.362470000000000070e+01 1.259699999999999953e+01 1.277890000000000015e+01 1.404390000000000072e+01 1.209099999999999930e+01 1.657529999999999859e+01 1.416140000000000043e+01 1.559200000000000053e+01 1.156160000000000032e+01 1.550569999999999915e+01 1.501539999999999964e+01 1.717640000000000100e+01 1.627759999999999962e+01 1.406339999999999968e+01 1.421829999999999927e+01
1.198220000000000063e+01 1.546410000000000018e+01 1.341660000000000075e+01 1.451660000000000039e+01 1.098140000000000072e+01 1.018200000000000038e+01 1.457080000000000020e+01 1.365520000000000067e+01 1.209890000000000043e+01 1.474750000000000050e+01 1.677149999999999963e+01 1.547330000000000005e+01 1.241119999999999912e+01 1.406240000000000023e+01 1.676300000000000168e+01 1.267530000000000001e+01 1.178979999999999961e+01 1.321320000000000050e+01 1.526609999999999978e+01 1.344529999999999959e+01 1.502270000000000039e+01
1.089300000000000068e+01 1.351849999999999952e+01 1.483239999999999981e+01 1.457670000000000066e+01 1.224949999999999939e+01 1.011229999999999940e+01 1.368350000000000044e+01 1.513770000000000060e+01 1.254229999999999912e+01 1.693299999999999983e+01 1.590349999999999930e+01 1.575719999999999921e+01 1.326629999999999932e+01 1.568740000000000023e+01 1.631370000000000076e+01 1.497349999999999959e+01 1.232150000000000034e+01 1.458319999999999972e+01 1.184370000000000012e+01 1.135159999999999947e+01 1.202870000000000061e+01
1.106639999999999979e+01 1.364520000000000088e+01 1.484440000000000026e+01 1.461909999999999954e+01 1.226449999999999996e+01 1.029599999999999937e+01 1.376350000000000051e+01 1.478040000000000020e+01 1.272630000000000017e+01 1.694229999999999947e+01 1.605799999999999983e+01 1.575050000000000061e+01 1.332489999999999952e+01 1.536950000000000038e+01 1.631090000000000018e+01 1.479250000000000043e+01 1.270930000000000071e+01 1.421909999999999918e+01 1.166099999999999959e+01 1.134290000000000020e+01 1.202239999999999931e+01
1.250229999999999997e+01 1.415639999999999965e+01 1.482920000000000016e+01 1.518069999999999986e+01 1.321349999999999980e+01 1.232390000000000008e+01 1.236930000000000085e+01 1.559539999999999971e+01 1.160689999999999955e+01 1.467629999999999946e+01 1.666669999999999874e+01 1.386200000000000010e+01 1.553930000000000078e+01 1.349399999999999977e+01 1.665619999999999834e+01 1.387710000000000043e+01 1.098329999999999984e+01 1.463979999999999926e+01 1.202459999999999951e+01 1.206060000000000088e+01 1.225159999999999982e+01
1.079139999999999944e+01 1.276110000000000078e+01 1.197780000000000022e+01 1.351379999999999981e+01 1.161960000000000015e+01 1.264569999999999972e+01 1.257089999999999996e+01 1.227130000000000010e+01 1.601620000000000132e+01 1.086899999999999977e+01 8.961019999999999541e+00 1.237250000000000050e+01 1.259089999999999954e+01 1.068890000000000029e+01 9.547090000000000742e+00 1.352749999999999986e+01 1.511459999999999937e+01 1.336880000000000024e+01 1.232450000000000045e+01 1.477139999999999986e+01 1.025990000000000002e+01
1.079819999999999958e+01 1.299220000000000041e+01 1.207349999999999923e+01 1.426329999999999920e+01 1.166399999999999970e+01 1.236159999999999926e+01 1.206119999999999948e+01 1.147029999999999994e+01 1.540220000000000056e+01 1.120989999999999931e+01 9.808279999999999887e+00 1.290210000000000079e+01 1.184839999999999982e+01 1.114719999999999978e+01 9.448100000000000165e+00 1.255990000000000073e+01 1.497049999999999947e+01 1.369299999999999962e+01 1.344720000000000049e+01 1.413550000000000040e+01 1.030760000000000076e+01
1.086079999999999934e+01 1.299409999999999954e+01 1.202340000000000053e+01 1.427759999999999962e+01 1.161209999999999987e+01 1.237340000000000018e+01 1.200450000000000017e+01 1.148129999999999917e+01 1.543239999999999945e+01 1.121410000000000018e+01 9.694919999999999760e+00 1.286710000000000065e+01 1.177379999999999960e+01 1.112659999999999982e+01 9.489349999999999952e+00 1.258890000000000065e+01 1.502079999999999949e+01 1.369699999999999918e+01 1.346829999999999927e+01 1.425830000000000020e+01 1.030540000000000056e+01
1.094989999999999952e+01 1.297000000000000064e+01 1.215610000000000035e+01 1.384360000000000035e+01 1.146739999999999959e+01 1.251309999999999967e+01 1.179190000000000005e+01 1.197630000000000017e+01 1.510529999999999973e+01 1.131060000000000088e+01 8.996140000000000470e+00 1.245480000000000054e+01 1.168440000000000012e+01 1.085660000000000025e+01 9.703540000000000276e+00 1.307590000000000074e+01 1.506589999999999918e+01 1.387190000000000012e+01 1.353170000000000073e+01 1.485570000000000057e+01 1.038320000000000043e+01
1.182049999999999912e+01 1.119319999999999915e+01 1.391769999999999996e+01 1.368839999999999968e+01 1.192570000000000086e+01 1.050120000000000076e+01 1.034529999999999994e+01 1.106199999999999939e+01 1.076229999999999976e+01 8.384510000000000574e+00 1.322320000000000029e+01 1.256499999999999950e+01 1.569560000000000066e+01 1.068640000000000079e+01 1.302820000000000000e+01 1.160200000000000031e+01 1.446119999999999983e+01 1.219769999999999932e+01 1.465169999999999995e+01 1.363620000000000054e+01 1.321599999999999930e+01
1.190719999999999956e+01 1.118820000000000014e+01 1.391220000000000034e+01 1.381700000000000017e+01 1.187620000000000076e+01 1.057240000000000002e+01 1.022480000000000011e+01 1.108960000000000079e+01 1.067890000000000050e+01 8.405979999999999563e+00 1.323980000000000068e+01 1.261129999999999995e+01 1.569630000000000081e+01 1.067360000000000042e+01 1.297369999999999912e+01 1.153839999999999932e+01 1.450680000000000014e+01 1.212759999999999927e+01 1.459830000000000005e+01 1.361389999999999922e+01 1.331199999999999939e+01
1.206709999999999994e+01 1.510699999999999932e+01 1.107709999999999972e+01 1.500939999999999941e+01 1.284329999999999927e+01 1.128950000000000031e+01 1.355700000000000038e+01 1.440310000000000024e+01 1.343929999999999936e+01 9.513379999999999725e+00 1.245250000000000057e+01 1.252009999999999934e+01 1.086790000000000056e+01 8.642189999999999372e+00 1.323049999999999926e+01 1.279579999999999984e+01 1.131760000000000055e+01 1.416810000000000080e+01 1.237739999999999974e+01 1.142239999999999966e+01 1.046349999999999980e+01
1.490649999999999942e+01 1.000849999999999973e+01 1.200070000000000014e+01 1.104959999999999987e+01 1.203079999999999927e+01 1.093290000000000006e+01 1.216740000000000066e+01 1.011829999999999963e+01 1.443099999999999916e+01 1.390869999999999962e+01 1.303659999999999997e+01 1.308409999999999940e+01 9.971379999999999910e+00 1.296850000000000058e+01 1.455320000000000036e+01 1.395149999999999935e+01 1.344740000000000002e+01 1.017670000000000030e+01 1.149070000000000036e+01 1.583569999999999922e+01 1.226720000000000077e+01
1.124959999999999916e+01 1.589029999999999987e+01 1.330569999999999986e+01 1.241169999999999973e+01 1.329349999999999987e+01 1.006189999999999962e+01 1.074600000000000044e+01 1.228480000000000061e+01 1.301709999999999923e+01 1.106479999999999997e+01 1.342300000000000004e+01 1.615330000000000155e+01 1.254930000000000057e+01 9.720760000000000289e+00 1.401709999999999923e+01 1.311919999999999931e+01 1.045640000000000036e+01 1.100500000000000078e+01 1.632730000000000103e+01 1.239920000000000044e+01 9.907690000000000552e+00
1.172150000000000070e+01 1.384619999999999962e+01 1.377110000000000056e+01 1.472949999999999982e+01 1.446560000000000024e+01 1.214760000000000062e+01 1.362989999999999924e+01 1.144810000000000016e+01 1.159859999999999935e+01 1.175699999999999967e+01 1.422100000000000009e+01 1.037669999999999959e+01 1.115090000000000003e+01 1.026239999999999952e+01 1.394319999999999915e+01 1.446410000000000018e+01 1.214589999999999925e+01 1.461100000000000065e+01 1.001490000000000080e+01 1.107869999999999955e+01 1.101960000000000051e+01
1.147269999999999968e+01 1.355030000000000001e+01 1.333249999999999957e+01 1.463380000000000081e+01 1.440310000000000024e+01 1.193319999999999936e+01 1.357429999999999914e+01 1.102800000000000047e+01 1.153250000000000064e+01 1.167609999999999992e+01 1.450380000000000003e+01 1.020219999999999949e+01 1.180180000000000007e+01 1.014000000000000057e+01 1.419480000000000075e+01 1.438230000000000075e+01 1.212340000000000018e+01 1.510330000000000084e+01 9.926899999999999835e+00 1.171920000000000073e+01 1.116939999999999955e+01
1.109619999999999962e+01 1.359779999999999944e+01 1.067570000000000086e+01 1.497499999999999964e+01 1.244040000000000035e+01 1.539520000000000088e+01 1.193790000000000084e+01 1.240990000000000038e+01 1.371059999999999945e+01 1.198920000000000030e+01 1.005039999999999978e+01 1.080940000000000012e+01 1.379850000000000065e+01 1.538429999999999964e+01 1.348320000000000007e+01 1.494849999999999923e+01 1.280729999999999968e+01 1.148600000000000065e+01 8.722509999999999764e+00 1.077769999999999939e+01 1.190789999999999971e+01
1.046020000000000039e+01 1.441939999999999955e+01 1.213550000000000040e+01 1.449189999999999934e+01 1.057929999999999993e+01 1.107549999999999990e+01 1.361159999999999926e+01 1.357440000000000069e+01 1.214259999999999984e+01 1.432319999999999993e+01 1.157089999999999996e+01 1.421119999999999983e+01 1.147910000000000075e+01 1.257600000000000051e+01 9.807980000000000587e+00 1.135309999999999953e+01 1.074300000000000033e+01 1.294619999999999926e+01 1.174869999999999948e+01 1.400479999999999947e+01 1.514899999999999913e+01
1.039819999999999922e+01 1.440399999999999991e+01 1.215370000000000061e+01 1.447000000000000064e+01 1.051759999999999984e+01 1.107119999999999926e+01 1.359960000000000058e+01 1.349039999999999928e+01 1.211469999999999914e+01 1.443369999999999997e+01 1.156240000000000023e+01 1.416980000000000040e+01 1.145839999999999925e+01 1.260880000000000045e+01 9.785199999999999676e+00 1.135120000000000040e+01 1.077050000000000018e+01 1.301210000000000022e+01 1.175689999999999991e+01 1.411420000000000030e+01 1.516109999999999935e+01
1.031380000000000052e+01 1.440189999999999948e+01 1.218849999999999945e+01 1.443779999999999930e+01 1.043820000000000014e+01 1.103969999999999985e+01 1.358849999999999980e+01 1.346509999999999962e+01 1.207230000000000025e+01 1.455419999999999980e+01 1.153589999999999982e+01 1.419260000000000055e+01 1.144749999999999979e+01 1.260560000000000080e+01 9.739810000000000301e+00 1.134880000000000067e+01 1.081930000000000014e+01 1.306349999999999945e+01 1.177720000000000056e+01 1.420190000000000019e+01 1.517149999999999999e+01
1.021860000000000035e+01 1.440450000000000053e+01 1.223380000000000045e+01 1.439150000000000063e+01 1.035200000000000031e+01 1.099419999999999931e+01 1.357540000000000013e+01 1.348700000000000010e+01 1.202340000000000053e+01 1.467709999999999937e+01 1.149649999999999928e+01 1.425980000000000025e+01 1.144289999999999985e+01 1.257349999999999923e+01 9.682410000000000849e+00 1.135110000000000063e+01 1.088799999999999990e+01 1.310100000000000087e+01 1.181119999999999948e+01 1.426640000000000086e+01 1.517319999999999958e+01
1.012449999999999939e+01 1.440230000000000032e+01 1.228129999999999988e+01 1.432850000000000001e+01 1.027449999999999974e+01 1.095040000000000013e+01 1.356010000000000026e+01 1.353480000000000061e+01 1.197889999999999944e+01 1.479139999999999944e+01 1.145330000000000048e+01 1.434450000000000003e+01 1.144190000000000040e+01 1.252210000000000001e+01 9.627729999999999677e+00 1.136170000000000080e+01 1.097480000000000011e+01 1.312519999999999953e+01 1.185970000000000013e+01 1.430610000000000070e+01 1.515970000000000084e+01
9.912990000000000634e+00 1.408319999999999972e+01 1.228909999999999947e+01 1.370790000000000042e+01 1.028200000000000003e+01 1.125549999999999962e+01 1.371030000000000015e+01 1.395250000000000057e+01 1.171359999999999957e+01 1.462790000000000035e+01 1.154940000000000033e+01 1.416370000000000040e+01 1.131540000000000035e+01 1.205569999999999986e+01 9.842800000000000438e+00 1.151019999999999932e+01 1.146369999999999933e+01 1.326839999999999975e+01 1.268319999999999936e+01 1.408130000000000059e+01 1.493479999999999919e+01
1.227669999999999995e+01 1.031090000000000018e+01 1.179889999999999972e+01 1.426629999999999932e+01 1.637569999999999837e+01 1.131869999999999976e+01 1.408489999999999931e+01 1.394500000000000028e+01 1.392609999999999992e+01 1.513000000000000078e+01 1.279690000000000083e+01 1.113579999999999970e+01 1.168060000000000009e+01 1.430829999999999913e+01 1.115109999999999957e+01 1.101409999999999911e+01 1.176260000000000083e+01 1.458099999999999952e+01 9.500669999999999504e+00 8.454050000000000509e+00 1.404180000000000028e+01
1.232990000000000030e+01 1.037940000000000040e+01 1.176239999999999952e+01 1.428599999999999959e+01 1.638100000000000023e+01 1.128470000000000084e+01 1.405429999999999957e+01 1.391610000000000014e+01 1.398499999999999943e+01 1.508890000000000065e+01 1.280690000000000062e+01 1.115840000000000032e+01 1.169860000000000078e+01 1.428240000000000087e+01 1.114090000000000025e+01 1.104439999999999955e+01 1.177480000000000082e+01 1.447320000000000029e+01 9.451280000000000570e+00 8.412710000000000576e+00 1.414869999999999983e+01
1.329149999999999920e+01 1.540249999999999986e+01 1.186299999999999955e+01 1.504119999999999990e+01 1.277870000000000061e+01 1.367629999999999946e+01 1.274029999999999951e+01 1.224319999999999986e+01 1.148199999999999932e+01 1.386780000000000079e+01 8.639670000000000627e+00 1.242479999999999940e+01 1.113899999999999935e+01 1.058919999999999995e+01 1.393810000000000038e+01 1.037270000000000003e+01 1.449009999999999998e+01 1.059019999999999939e+01 1.150079999999999991e+01 1.380990000000000073e+01 1.397899999999999920e+01
1.264610000000000056e+01 9.489570000000000505e+00 1.222930000000000028e+01 1.467779999999999951e+01 1.265049999999999919e+01 1.049579999999999913e+01 1.105279999999999951e+01 1.270219999999999949e+01 1.144040000000000035e+01 1.298170000000000002e+01 1.533859999999999957e+01 1.134810000000000052e+01 1.073949999999999960e+01 1.108050000000000068e+01 1.478270000000000017e+01 1.185609999999999964e+01 1.449810000000000088e+01 1.404630000000000045e+01 1.399939999999999962e+01 1.219389999999999930e+01 1.361069999999999958e+01
1.297170000000000023e+01 1.060139999999999993e+01 1.476260000000000083e+01 1.445570000000000022e+01 1.050229999999999997e+01 1.156830000000000069e+01 1.135740000000000016e+01 1.162149999999999928e+01 1.231310000000000038e+01 1.347940000000000005e+01 1.300600000000000023e+01 9.960679999999999978e+00 1.096250000000000036e+01 1.382980000000000054e+01 1.461209999999999987e+01 1.079069999999999929e+01 1.467140000000000022e+01 1.143149999999999977e+01 1.393590000000000018e+01 1.372090000000000032e+01 1.330509999999999948e+01
1.302139999999999986e+01 1.067660000000000053e+01 1.475029999999999930e+01 1.440920000000000023e+01 1.046219999999999928e+01 1.158590000000000053e+01 1.139739999999999931e+01 1.158249999999999957e+01 1.238519999999999932e+01 1.340049999999999919e+01 1.299150000000000027e+01 1.006290000000000084e+01 1.089300000000000068e+01 1.382830000000000048e+01 1.446490000000000009e+01 1.087410000000000032e+01 1.467370000000000019e+01 1.143640000000000079e+01 1.395780000000000065e+01 1.373859999999999992e+01 1.326769999999999960e+01
1.318570000000000064e+01 1.081980000000000075e+01 1.484660000000000046e+01 1.439680000000000071e+01 1.030380000000000074e+01 1.166610000000000014e+01 1.135580000000000034e+01 1.140569999999999951e+01 1.237390000000000079e+01 1.324280000000000079e+01 1.301909999999999989e+01 1.014170000000000016e+01 1.070519999999999960e+01 1.385769999999999946e+01 1.437250000000000050e+01 1.102389999999999937e+01 1.478079999999999927e+01 1.135169999999999924e+01 1.404320000000000057e+01 1.376629999999999932e+01 1.320090000000000074e+01
1.344740000000000002e+01 1.534040000000000070e+01 1.386700000000000088e+01 1.318069999999999986e+01 1.211960000000000015e+01 1.404690000000000083e+01 1.051820000000000022e+01 1.055949999999999989e+01 1.237160000000000082e+01 1.309500000000000064e+01 9.640990000000000393e+00 1.061849999999999916e+01 1.011829999999999963e+01 1.365290000000000070e+01 1.424109999999999943e+01 1.196659999999999968e+01 1.388519999999999932e+01 1.103090000000000082e+01 1.562710000000000043e+01 1.275479999999999947e+01 1.177740000000000009e+01
1.237429999999999986e+01 1.572760000000000069e+01 1.141709999999999958e+01 1.395790000000000042e+01 1.308990000000000009e+01 1.397400000000000020e+01 1.076280000000000037e+01 1.214990000000000059e+01 1.399390000000000001e+01 1.333689999999999998e+01 1.004599999999999937e+01 1.402439999999999998e+01 9.411569999999999325e+00 1.418979999999999997e+01 1.103769999999999918e+01 1.238199999999999967e+01 1.177180000000000071e+01 1.147930000000000028e+01 1.572789999999999999e+01 1.097840000000000060e+01 1.202699999999999925e+01
1.196470000000000056e+01 1.306170000000000009e+01 1.064150000000000063e+01 9.920339999999999492e+00 1.445270000000000010e+01 1.373109999999999964e+01 1.322680000000000078e+01 1.486509999999999998e+01 1.283370000000000033e+01 1.259019999999999939e+01 1.123690000000000033e+01 1.377180000000000071e+01 1.456540000000000035e+01 1.072719999999999985e+01 1.109370000000000012e+01 1.233789999999999942e+01 8.647669999999999746e+00 1.050489999999999924e+01 9.602299999999999613e+00 1.121630000000000038e+01 1.163069999999999915e+01
9.955399999999999139e+00 1.423320000000000007e+01 1.239949999999999974e+01 1.275050000000000061e+01 9.813280000000000669e+00 1.001600000000000001e+01 1.228170000000000073e+01 1.303979999999999961e+01 1.504770000000000074e+01 1.099770000000000003e+01 1.101529999999999987e+01 1.291409999999999947e+01 1.031530000000000058e+01 1.176980000000000004e+01 9.315500000000000114e+00 1.346860000000000035e+01 1.320800000000000018e+01 1.106000000000000050e+01 1.443839999999999968e+01 1.112819999999999965e+01 1.345470000000000077e+01
1.014310000000000045e+01 1.436839999999999939e+01 1.253529999999999944e+01 1.311529999999999951e+01 1.003800000000000026e+01 1.010019999999999918e+01 1.288020000000000032e+01 1.276629999999999932e+01 1.477669999999999995e+01 1.073659999999999926e+01 1.098889999999999922e+01 1.249130000000000074e+01 9.959070000000000533e+00 1.236819999999999986e+01 9.641629999999999256e+00 1.342719999999999914e+01 1.317430000000000057e+01 1.103889999999999993e+01 1.394599999999999973e+01 1.050350000000000072e+01 1.362359999999999971e+01
1.214329999999999998e+01 1.430790000000000006e+01 1.236120000000000019e+01 1.196969999999999956e+01 1.259859999999999935e+01 9.462339999999999307e+00 1.270620000000000083e+01 1.266890000000000072e+01 1.472940000000000005e+01 1.062599999999999945e+01 1.106450000000000067e+01 1.236359999999999992e+01 8.660069999999999268e+00 1.251750000000000007e+01 9.290839999999999321e+00 1.468900000000000006e+01 1.191130000000000067e+01 1.250849999999999973e+01 1.341329999999999956e+01 9.138669999999999405e+00 1.349169999999999980e+01
1.445330000000000048e+01 1.086769999999999925e+01 1.509859999999999935e+01 1.356109999999999971e+01 1.252030000000000065e+01 1.221129999999999960e+01 1.422819999999999929e+01 1.630969999999999942e+01 1.394800000000000040e+01 1.675720000000000098e+01 1.320289999999999964e+01 1.344219999999999970e+01 1.530589999999999939e+01 1.449709999999999965e+01 1.613100000000000023e+01 1.152539999999999942e+01 1.400539999999999985e+01 1.488359999999999950e+01 1.172480000000000011e+01 1.615279999999999916e+01 1.184110000000000085e+01
1.577169999999999916e+01 1.455690000000000062e+01 1.777370000000000161e+01 1.332230000000000025e+01 1.637659999999999982e+01 1.189729999999999954e+01 1.352009999999999934e+01 1.307639999999999958e+01 1.185410000000000075e+01 1.587560000000000038e+01 1.377919999999999945e+01 1.385560000000000080e+01 1.370860000000000056e+01 1.128589999999999982e+01 1.482530000000000037e+01 1.572729999999999961e+01 1.660849999999999937e+01 1.510229999999999961e+01 1.255259999999999998e+01 1.479460000000000086e+01 1.516980000000000040e+01
1.328580000000000005e+01 1.099789999999999957e+01 1.569420000000000037e+01 1.066360000000000063e+01 1.195700000000000074e+01 1.402740000000000009e+01 1.122470000000000034e+01 1.408179999999999943e+01 1.031750000000000078e+01 1.345170000000000066e+01 1.177759999999999962e+01 1.215049999999999919e+01 1.233479999999999954e+01 1.487899999999999956e+01 1.389300000000000068e+01 1.563940000000000019e+01 1.345030000000000037e+01 1.455180000000000007e+01 1.490859999999999985e+01 1.436490000000000045e+01 1.087429999999999986e+01
1.250810000000000066e+01 1.078020000000000067e+01 1.361350000000000016e+01 9.524760000000000559e+00 1.276839999999999975e+01 1.260529999999999973e+01 1.323709999999999987e+01 1.358189999999999920e+01 1.159009999999999962e+01 1.317430000000000057e+01 1.687059999999999960e+01 1.383220000000000027e+01 1.530180000000000007e+01 1.294710000000000072e+01 1.389939999999999998e+01 1.230119999999999969e+01 1.380840000000000067e+01 1.465179999999999971e+01 1.546149999999999913e+01 1.075200000000000067e+01 1.131630000000000003e+01
1.252399999999999913e+01 1.086069999999999958e+01 1.364199999999999946e+01 9.554389999999999716e+00 1.281349999999999945e+01 1.259960000000000058e+01 1.322949999999999982e+01 1.353170000000000073e+01 1.146189999999999998e+01 1.315549999999999997e+01 1.689440000000000097e+01 1.384769999999999968e+01 1.533869999999999933e+01 1.293019999999999925e+01 1.389230000000000054e+01 1.223450000000000060e+01 1.373090000000000011e+01 1.474799999999999933e+01 1.547199999999999953e+01 1.074709999999999965e+01 1.131719999999999970e+01
1.396209999999999951e+01 1.398189999999999955e+01 1.139179999999999993e+01 1.456010000000000026e+01 1.424959999999999916e+01 1.434800000000000075e+01 1.144699999999999918e+01 9.895070000000000476e+00 1.297560000000000002e+01 1.364939999999999998e+01 1.159900000000000020e+01 1.322049999999999947e+01 1.592149999999999999e+01 1.278240000000000087e+01 1.265530000000000044e+01 1.196080000000000076e+01 1.385219999999999985e+01 1.336200000000000010e+01 9.276960000000000761e+00 1.441769999999999996e+01 1.282460000000000022e+01
1.382440000000000069e+01 1.407450000000000045e+01 1.127580000000000027e+01 1.457990000000000030e+01 1.425169999999999959e+01 1.454609999999999914e+01 1.144710000000000072e+01 9.827220000000000510e+00 1.288749999999999929e+01 1.364799999999999969e+01 1.150500000000000078e+01 1.328899999999999970e+01 1.602499999999999858e+01 1.278350000000000009e+01 1.256109999999999971e+01 1.188010000000000055e+01 1.389809999999999945e+01 1.333419999999999916e+01 9.373490000000000322e+00 1.443769999999999953e+01 1.288429999999999964e+01
1.367769999999999975e+01 1.422150000000000070e+01 1.103359999999999985e+01 1.462400000000000055e+01 1.433799999999999919e+01 1.484900000000000020e+01 1.138310000000000066e+01 9.725749999999999673e+00 1.279100000000000037e+01 1.365680000000000049e+01 1.132629999999999981e+01 1.338979999999999926e+01 1.629560000000000031e+01 1.274670000000000059e+01 1.243140000000000001e+01 1.179340000000000011e+01 1.393960000000000043e+01 1.336640000000000050e+01 9.347450000000000259e+00 1.448010000000000019e+01 1.291670000000000051e+01
1.101890000000000036e+01 1.592680000000000007e+01 1.409070000000000000e+01 1.457569999999999943e+01 1.308280000000000065e+01 1.424660000000000082e+01 1.499559999999999960e+01 1.185210000000000008e+01 1.064160000000000039e+01 1.344400000000000084e+01 1.494929999999999914e+01 1.172489999999999988e+01 1.343200000000000038e+01 1.017009999999999970e+01 1.340850000000000009e+01 1.118790000000000084e+01 1.223879999999999946e+01 1.161500000000000021e+01 1.212369999999999948e+01 1.255790000000000006e+01 1.505059999999999931e+01
1.550050000000000061e+01 1.293270000000000053e+01 1.406789999999999985e+01 1.481349999999999945e+01 1.631390000000000029e+01 1.534319999999999951e+01 1.255209999999999937e+01 1.413010000000000055e+01 1.673209999999999908e+01 1.231400000000000006e+01 1.489959999999999951e+01 1.336710000000000065e+01 1.489559999999999995e+01 1.589649999999999963e+01 1.181170000000000009e+01 1.793900000000000006e+01 1.607079999999999842e+01 1.507600000000000051e+01 1.609299999999999997e+01 1.386400000000000077e+01 1.770959999999999823e+01
1.570979999999999954e+01 1.297519999999999918e+01 1.421950000000000003e+01 1.467239999999999966e+01 1.634260000000000090e+01 1.540380000000000038e+01 1.256509999999999927e+01 1.412899999999999956e+01 1.663040000000000163e+01 1.225050000000000061e+01 1.487940000000000040e+01 1.334479999999999933e+01 1.484740000000000038e+01 1.592730000000000068e+01 1.183929999999999971e+01 1.796460000000000079e+01 1.601960000000000051e+01 1.497259999999999991e+01 1.609789999999999921e+01 1.383450000000000024e+01 1.769719999999999871e+01
1.594660000000000011e+01 1.419759999999999955e+01 1.432060000000000066e+01 1.301960000000000051e+01 1.633050000000000068e+01 1.504909999999999926e+01 1.475639999999999930e+01 1.188189999999999991e+01 1.682349999999999923e+01 1.310769999999999946e+01 1.306589999999999918e+01 1.338189999999999991e+01 1.475750000000000028e+01 1.580990000000000073e+01 1.171770000000000067e+01 1.647400000000000020e+01 1.785200000000000031e+01 1.492130000000000045e+01 1.604570000000000007e+01 1.496969999999999956e+01 1.789349999999999952e+01