-3.091570758365292204e+04
-3.091567801385583152e+04
-3.091579142438296913e+04
-3.091575764171906121e+04
-3.091577585157873546e+04
-3.091582885010727114e+04
-3.091582073812091403e+04
-3.091580626846628002e+04
-3.091569698536220676e+04
-3.091592526766793162e+04
-3.091504118442294566e+04
-3.091530458819277919e+04
-3.091527282896755423e+04
-3.091587123891630836e+04
-3.091551144153183850e+04
-3.091587225226833471e+04
-3.091588778071800698e+04
-3.091572830104183959e+04
-3.091538530042975253e+04
-3.091536708077397998e+04
-3.091534632284009058e+04
-3.091565731469854290e+04
-3.091543058561874568e+04
-3.091590991554803622e+04
-3.091590094313765076e+04
-3.091539982069757025e+04
-3.091583894335465811e+04
-3.091581074365086170e+04
-3.091584301608283567e+04
-3.091588052697878084e+04
-3.091588833038801386e+04
-3.091592688538484072e+04
-3.091503051075668918e+04
-3.091504084155947930e+04
-3.091551469329249448e+04
-3.091577855829532200e+04
-3.091588007091594409e+04
-3.091579652869479833e+04
-3.091583428095573981e+04
-3.091577103189800255e+04
-3.091540384471736616e+04
-3.091543182155990507e+04
-3.091584282832427198e+04
-3.091576002815763422e+04
-3.091542759345471131e+04
-3.091563796005584663e+04
-3.091569326230033766e+04
-3.091579039606468359e+04
-3.091563746644129787e+04
-3.091565205582603448e+04
-3.091358675079435852e+04
-3.091426596168920514e+04
-3.091485952392950639e+04
-3.091549143626489604e+04
-3.091579550173708412e+04
-3.091580599499184973e+04
-3.091571346484982860e+04
-3.091566777666021153e+04
-3.091585193896850251e+04
-3.091579410796988304e+04
-3.091568652993127034e+04
-3.091572148894341080e+04
-3.091545595506625250e+04
-3.091522135509298823e+04
-3.091567629083085558e+04
-3.091515830032455415e+04
-3.091549035678920336e+04
-3.091571385805435784e+04
-3.091584147673471671e+04
-3.091547046390529067e+04
-3.091544220732969552e+04
-3.091554381301325702e+04
-3.091548278494886472e+04
-3.091573247173101117e+04
-3.091507516681843481e+04
-3.091587038121341538e+04
-3.091568727661170487e+04
-3.091552713651519298e+04
-3.091564581843207998e+04
-3.091565555466607475e+04
-3.091566981833052341e+04
-3.091573117973439366e+04
-3.091563957940544060e+04
-3.091550892611128802e+04
-3.091596017388997643e+04
-3.091572985562833492e+04
-3.091589931725732094e+04
-3.091523579590355439e+04
-3.091571731063504922e+04
-3.091525917864775693e+04
-3.091396764815984716e+04
-3.091576718148685177e+04
-3.091541963711748758e+04
-3.091508888462246614e+04
-3.091573920654910398e+04
-3.091585665959978360e+04
-3.091582422090624095e+04
-3.091588338444644978e+04
-3.091553623872389289e+04
-3.091577163599077903e+04
-3.091571391465404304e+04
-3.091570333786032643e+04
-3.091520140724207158e+04
-3.091581454208826835e+04
-3.091592483800013724e+04
-3.091543276252964642e+04
-3.091571894603936016e+04
-3.091593267379092504e+04
-3.091548373081664977e+04
-3.091525657805557421e+04
-3.091588406854069763e+04
-3.091575638155976412e+04
-3.091587865184215480e+04
-3.091474376206647503e+04
-3.091538871600295533e+04
-3.091578133004712799e+04
-3.091570566715498717e+04
-3.091581709750955270e+04
-3.091578489800409443e+04
-3.091580527552279818e+04
-3.091549781270903622e+04
-3.091551608297798521e+04
-3.091539009017796343e+04
-3.091569558125467665e+04
-3.091584718105761567e+04
-3.091580919695566990e+04
-3.091543340988852287e+04
-3.091534957024692994e+04
-3.091556179892321961e+04
-3.091566159232845530e+04
-3.091571411520196125e+04
-3.091573395964960946e+04
-3.091567888189904625e+04
-3.091566866048603333e+04
-3.091579761170797792e+04
-3.091574789487262024e+04
-3.091587525694960277e+04
-3.091545863674836801e+04
-3.091527691176394364e+04
-3.091578653857856989e+04
-3.091577631036270759e+04
-3.091565649073776149e+04
-3.091564516726360671e+04
-3.091564645218526493e+04
-3.091567182952407529e+04
-3.091520084832020075e+04
-3.091524586493281095e+04
-3.091540233502965566e+04
-3.091533790581410358e+04
-3.091561415988897716e+04
-3.091544600304596315e+04
-3.091562718788436905e+04
-3.091565706979606330e+04
-3.091559274561645725e+04
-3.091568635251303203e+04
-3.091553567327128985e+04
-3.091554234550319234e+04
-3.091579100315071264e+04
-3.091587514483869018e+04
-3.091531468987570042e+04
-3.091583717624723431e+04
-3.091586979671283916e+04
-3.091588911434805050e+04
-3.091587642486230106e+04
-3.091589678795897271e+04
-3.091585925175643933e+04
-3.091518370433052041e+04
-3.091524808347713042e+04
-3.091586375660143312e+04
-3.091594501088921970e+04
-3.091593018884713092e+04
-3.091570560810627649e+04
-3.091552620153196040e+04
-3.091582852819657273e+04
-3.091579253215850258e+04
-3.091578543352417546e+04
-3.091580623526838826e+04
-3.091553640525757874e+04
-3.091577375684622530e+04
-3.091571097201473822e+04
-3.091557846508095827e+04
-3.091557027799117714e+04
-3.091580380638005590e+04
-3.091589649462022498e+04
-3.091565318890815979e+04
-3.091571848970441351e+04
-3.091596426593824435e+04
-3.091585374417186540e+04
-3.091565002177490896e+04
-3.091591669880239715e+04
-3.091586029095928097e+04
-3.091553696662847869e+04
-3.091548819212343005e+04
-3.091548711373618789e+04
-3.091548445654432362e+04
-3.091581224490303794e+04
-3.091576362359809718e+04
-3.091572839981917059e+04
-3.091527276148331293e+04
-3.091538495294035238e+04
-3.091591125380400990e+04
-3.091588721689808153e+04
-3.091559783849950691e+04
-3.091585208971957763e+04
-3.091583413347002352e+04
-3.091590855062490300e+04
-3.091592655204535913e+04
-3.091597518069737998e+04
-3.091584217824425286e+04
-3.091584994818348423e+04
-3.091573189321693644e+04
-3.091582567263370220e+04
-3.091533461378059656e+04
-3.091549687255564277e+04
-3.091591529224584519e+04
-3.091590287705086666e+04
-3.091585242006581029e+04
-3.091585944985532842e+04
-3.091589438573779262e+04
-3.091534333040395359e+04
-3.091532521197453389e+04
-3.091542916001422054e+04
-3.091593760667102106e+04
-3.091586158921451715e+04
-3.091585740791290664e+04
-3.091579465900045398e+04
-3.091569091722307348e+04
-3.091577879721129648e+04
-3.091580571362611590e+04
-3.091558320802558228e+04
-3.091584401093111592e+04
-3.091581501583850695e+04
-3.091571893542692123e+04
-3.091592908705810260e+04
-3.091592957359769207e+04
-3.091574082753138282e+04
-3.091572355455973593e+04
-3.091590491164621926e+04
-3.091514786611849559e+04
-3.091595080936351587e+04
-3.091531970411783914e+04
-3.091593621916243865e+04
-3.091595107630721395e+04
-3.091590920233760335e+04
-3.091593772449632525e+04
-3.091592265238159962e+04
-3.091586445049178292e+04
-3.091544877262085720e+04
-3.091563884796337516e+04
-3.091560120808546344e+04
-3.091581206340309654e+04
-3.091539258818321468e+04
-3.091503611031575201e+04
-3.091535504381727515e+04
-3.091548815756496697e+04
-3.091532595266846693e+04
-3.091590354400194337e+04
-3.091559101606074910e+04
-3.091549401780910557e+04
-3.091573454768766533e+04
-3.091564025179879536e+04
-3.091585091092232688e+04
-3.091552704045900100e+04
-3.091526595509927574e+04
-3.091533101616321437e+04
-3.091581802269668333e+04
-3.091574002996565468e+04
-3.091570301023523643e+04
-3.091507253085144475e+04
-3.091585737607558622e+04
-3.091498456378678384e+04
-3.091501491319009438e+04
-3.091493952132335835e+04
-3.091580662956137530e+04
-3.091586525594881823e+04
-3.091585817636245702e+04
-3.091523736844956511e+04
-3.091516266693569924e+04
-3.091507339889466675e+04
-3.091506221828028356e+04
-3.091510876934296539e+04
-3.091579668080644842e+04
-3.091587102938863609e+04
-3.091579401273002804e+04
-3.091582110493040091e+04
-3.091587306942626310e+04
-3.091560203776062917e+04
-3.091583794741791644e+04
-3.091556544797011520e+04
-3.091581301716218150e+04
-3.091570367500940119e+04
-3.091593197228138888e+04
-3.091592316939793454e+04
-3.091583634412304309e+04
-3.091555445048836555e+04
-3.091546365507222436e+04
-3.091503465668349600e+04
-3.091564802282648088e+04
-3.091582085023182663e+04
-3.091590606813013437e+04
-3.091572700033757792e+04
-3.091580540940281935e+04
-3.091537551684794016e+04
-3.091510630997787666e+04
-3.091556168436328517e+04
-3.091529363724249924e+04
-3.091563612818532420e+04
-3.091560375561544788e+04
-3.091564215441892156e+04
-3.091568003811085509e+04
-3.091570328370966308e+04
-3.091572389306938203e+04
-3.091553205578960115e+04
-3.091567975375186870e+04
-3.091543783337147033e+04
-3.091567180911553442e+04
-3.091585474663933564e+04
-3.091582715973595987e+04
-3.091545213105014409e+04
-3.091586468178856376e+04
-3.091572293903817990e+04
-3.091570016610114180e+04
-3.091585552842246034e+04
-3.091584269798173045e+04
-3.091591862754545582e+04
-3.091569832252972265e+04
-3.091580078265081102e+04
-3.091580905083052494e+04
-3.091564793030776127e+04
-3.091581643899400297e+04
-3.091556664445476781e+04
-3.091581763493442850e+04
-3.091573469735028993e+04
-3.091548858723275407e+04
-3.091589835070888148e+04
-3.091589763123982993e+04
-3.091590132572974107e+04
-3.091591313193389215e+04
-3.091586279440681392e+04
-3.091592049016484816e+04
-3.091585184726613079e+04
-3.091566987411386071e+04
-3.091584415705626088e+04
-3.091529436433074079e+04
-3.091572200895299466e+04
-3.091578776717266010e+04
-3.091580493211510111e+04
-3.091587594485344744e+04
-3.091590093905594040e+04
-3.091591959627080723e+04
-3.091591942402272980e+04
-3.091590042040691696e+04
-3.091591402936541272e+04
-3.091591247205777472e+04
-3.091551158792909337e+04
-3.091578361362665964e+04
-3.091567069780252496e+04
-3.091584331785711038e+04
-3.091550079480485510e+04
-3.091583034836619845e+04
-3.091575859547814616e+04
-3.091546281532883950e+04
-3.091571702028956133e+04
-3.091594866755530165e+04
-3.091567536101778023e+04
-3.091583700889720785e+04
-3.091547483895197001e+04
-3.091571436037655076e+04
-3.091567904081354573e+04
-3.091561491010689861e+04
-3.091522149142203125e+04
-3.091588220809821723e+04
-3.091563627158933014e+04
-3.091582412811541872e+04
-3.091584979797662891e+04
-3.091554713361871472e+04
-3.091547952883438847e+04
-3.091588389574839675e+04
-3.091590703658336861e+04
-3.091574160142321125e+04
-3.091535805203601922e+04
-3.091532797801194101e+04
-3.091542392889732946e+04
-3.091551734912378743e+04
-3.091560548462692896e+04
-3.091580228308665028e+04
-3.091578204216910308e+04
-3.091545300235872855e+04
-3.091545454225108551e+04
-3.091538708059864439e+04
-3.091584713751939853e+04
-3.091573702065844554e+04
-3.091573064394219546e+04
-3.091570494414845234e+04
-3.091591490611627160e+04
-3.091578720117582270e+04
-3.091575983876638566e+04
-3.091587069468858681e+04
-3.091588082167808898e+04
-3.091586985331252436e+04
-3.091583516423733454e+04
-3.091513149983023686e+04
-3.091585086520719778e+04
-3.091589444478650330e+04
-3.091591062277196397e+04
-3.091578516875738205e+04
-3.091583875069803980e+04
-3.091574323846020707e+04
-3.091572392055288219e+04
-3.091531116300792564e+04
-3.091485707299994465e+04
-3.091574604340989754e+04
-3.091571705267110883e+04
-3.091542223117893809e+04
-3.091569085871859352e+04
-3.091562557506551093e+04
-3.091568567603796691e+04
-3.091571009063793463e+04
-3.091569466096559336e+04
-3.091550474317699991e+04
-3.091563677309517516e+04
-3.091559319079473789e+04
-3.091574304226611275e+04
-3.091495342035522481e+04
-3.091561841085173728e+04
-3.091584111400694019e+04
-3.091574615198333049e+04
-3.091520738367882950e+04
-3.091555222405274253e+04
-3.091572811192270456e+04
-3.091593168792240249e+04
-3.091546770031690176e+04
-3.091591429249951034e+04
-3.091543191108536848e+04
-3.091527543990006598e+04
-3.091529400405198612e+04
-3.091568770491892428e+04
-3.091564437622861078e+04
-3.091559794462391073e+04
-3.091566238118654655e+04
-3.091577387167827328e+04
-3.091564433051347442e+04
-3.091561968679363781e+04
-3.091546981709063402e+04
-3.091585744355982388e+04
-3.091585872739302795e+04
-3.091562355489219408e+04
-3.091567930694090319e+04
-3.091570129183619429e+04
-3.091550853426732647e+04
-3.091561250979051692e+04
-3.091580421074125479e+04
-3.091594470911494500e+04
-3.091593850165351614e+04
-3.091586349510001310e+04
-3.091584058066376747e+04
-3.091580767311803720e+04
-3.091572656930921585e+04
-3.091581007397864960e+04
-3.091516879820524991e+04
-3.091586593949883900e+04
-3.091587463272040259e+04
-3.091511222328421718e+04
-3.091552304990920675e+04
-3.091594330664009976e+04
-3.091595211387737436e+04
-3.091581922299093276e+04
-3.091581437092864871e+04
-3.091505547393820234e+04
-3.091495534937039702e+04
-3.091582518527777211e+04
-3.091584965239571466e+04
-3.091583168635006223e+04
-3.091537050070099940e+04
-3.091568929025428952e+04
-3.091555015408258987e+04
-3.091539333105405967e+04
-3.091561640945427644e+04
-3.091584711139646606e+04
-3.091532553687848485e+04
-3.091571109800345585e+04
-3.091560396514312015e+04
-3.091563847162990351e+04
-3.091561608999260352e+04
-3.091577666002901969e+04
-3.091532070005458081e+04
-3.091568993461991340e+04
-3.091591380623204168e+04
-3.091552963724159054e+04
-3.091553524795731937e+04
-3.091585235475848094e+04
-3.091570909415697315e+04
-3.091581690947887182e+04
-3.091594741229405190e+04
-3.091553189850778654e+04
-3.091547766376597428e+04
-3.091545150600460329e+04
-3.091590924342679500e+04
-3.091591222144090352e+04
-3.091588563210695429e+04
-3.091575644033635399e+04
-3.091570977770699392e+04
-3.091570166953023363e+04
-3.091574027323544942e+04
-3.091576357189646296e+04
-3.091580746576727688e+04
-3.091588817365042632e+04
-3.091593518159227824e+04
-3.091588906074161787e+04
-3.091591428732935310e+04
-3.091594661608889874e+04
-3.091582359150687989e+04
-3.091591465713209254e+04
-3.091574022969722500e+04
-3.091568905650847955e+04
-3.091559330263353331e+04
-3.091547283918719404e+04
-3.091553909374253635e+04
-3.091510001217464014e+04
-3.091584045304236497e+04
-3.091575251373332139e+04
-3.091568116493435809e+04
-3.091576722883466573e+04
-3.091589084472009927e+04
-3.091593113226589412e+04
-3.091572139860160314e+04
-3.091573731372507609e+04
-3.091580231029804054e+04
-3.091584868611939237e+04
-3.091584620008714046e+04
-3.091591393739092018e+04
-3.091588191013353935e+04
-3.091569777503663863e+04
-3.091565764967070209e+04
-3.091589461757880417e+04
-3.091539886693847802e+04
-3.091542878313652182e+04
-3.091592917005283016e+04
-3.091589226515445989e+04
-3.091585026927784202e+04
-3.091577517564790105e+04
-3.091531410918471374e+04
-3.091545729114531787e+04
-3.091561470248402111e+04
-3.091571752587711671e+04
-3.091566678752631924e+04
-3.091580092251734095e+04
-3.091579435368869963e+04
-3.091572764279840703e+04
-3.091566263534089376e+04
-3.091595285946935473e+04
-3.091586072525300187e+04
-3.091578006771091896e+04
-3.091513065818206087e+04
-3.091269683261182217e+04
-3.091452368535428104e+04
-3.091593769048208924e+04
-3.091585168971219900e+04
-3.091544029654615224e+04
-3.091579126220311082e+04
-3.091559341311176468e+04
-3.091554400049970354e+04
-3.091577677077936096e+04
-3.091573562988449703e+04
-3.091565467220082064e+04
-3.091582692571804000e+04
-3.091564446983577727e+04
-3.091538644385220323e+04
-3.091537071458249920e+04
-3.091554753280975638e+04
-3.091543745867067992e+04
-3.091576397979514149e+04
-3.091581625069120855e+04
-3.091576257623184210e+04
-3.091576552893936241e+04
-3.091578779166290769e+04
-3.091586560316610485e+04
-3.091586348856928089e+04
-3.091582277298838380e+04
-3.091581193169998733e+04
-3.091581982272988535e+04
-3.091584297254462217e+04
-3.091572695571090662e+04
-3.091539128258090568e+04
-3.091528252166333186e+04
-3.091531817293313725e+04
-3.091575716225443102e+04
-3.091567365812923526e+04
-3.091583265752443549e+04
-3.091549616914130092e+04
-3.091576158356047017e+04
-3.091581219565043284e+04
-3.091583902825418409e+04
-3.091533166107307261e+04
-3.091571794221132222e+04
-3.091580860048207978e+04
-3.091580312908865017e+04
-3.091581651110417442e+04
-3.091574132930934866e+04
-3.091570132938790630e+04
-3.091571375111361704e+04
-3.091588122930465397e+04
-3.091580298486830361e+04
-3.091522695846164424e+04
-3.091536697682648082e+04
-3.091560780820720174e+04
-3.091559359651650448e+04
-3.091589980025942350e+04
-3.091587584934147890e+04
-3.091583479416248520e+04
-3.091580460884383137e+04
-3.091579066899489044e+04
-3.091582010817732589e+04
-3.091577705622680514e+04
-3.091572327128920369e+04
-3.091555389401552020e+04
-3.091578682375389690e+04
-3.091557052180519895e+04
-3.091578578046934854e+04
-3.091561573651669823e+04
-3.091587510293315790e+04
-3.091511486387714467e+04
-3.091566358338558712e+04
-3.091527266733191937e+04
-3.091530211086817872e+04
-3.091503957949538380e+04
-3.091575358994364433e+04
-3.091565386783224312e+04
-3.091589404042529713e+04
-3.091582986781311411e+04
-3.091577607634478409e+04
-3.091573765903756794e+04
-3.091574071786949935e+04
-3.091576599915211773e+04
-3.091575889507550892e+04
-3.091578208597943740e+04
-3.091582675591898442e+04
-3.091585473493843892e+04
-3.091548335502740883e+04
-3.091547811710766837e+04
-3.091577360500668510e+04
-3.091583484858525480e+04
-3.091578197713389090e+04
-3.091576822368294233e+04
-3.091573752461332333e+04
-3.091574490760663684e+04
-3.091542144830735924e+04
-3.091540424173148858e+04
-3.091588058221789106e+04
-3.091589268312135755e+04
-3.091564666933212720e+04
-3.091567781466848101e+04
-3.091569089327705296e+04
-3.091582235774262881e+04
-3.091593926928672226e+04
-3.091520584950087505e+04
-3.091547765750735198e+04
-3.091566265874268356e+04
-3.091585476949690201e+04
-3.091583260038052322e+04
-3.091577563007804929e+04
-3.091584432957644822e+04
-3.091573358930264294e+04
-3.091576804816950244e+04
-3.091569754673310308e+04
-3.091558396450211876e+04
-3.091558270434282167e+04
-3.091570484156152816e+04
-3.091581635545504469e+04
-3.091592481895217134e+04
-3.091568299707699043e+04
-3.091587346453559076e+04
-3.091586286080260106e+04
-3.091590017060639730e+04
-3.091590975391240499e+04
-3.091575511350915986e+04
-3.091573165049137242e+04
-3.091571999503830011e+04
-3.091545649412381681e+04
-3.091575278530295691e+04
-3.091575169249368264e+04
-3.091531001795279008e+04
-3.091532130795694684e+04
-3.091518909300133964e+04
-3.091570290465505241e+04
-3.091573428863526715e+04
-3.091591914075220120e+04
-3.091558440641502966e+04
-3.091564623041246887e+04
-3.091579293325433900e+04
-3.091578246013600074e+04
-3.091576207418176637e+04
-3.091573937988563557e+04
-3.091573405869905400e+04
-3.091581302641405273e+04
-3.091563665173239133e+04
-3.091581251157462611e+04
-3.091587026121120289e+04
-3.091537376416255211e+04
-3.091596010558939452e+04
-3.091588451834491207e+04
-3.091589703857583663e+04
-3.091571272415589556e+04
-3.091573685085939724e+04
-3.091545623207816607e+04
-3.091549571770440889e+04
-3.091561866827145059e+04
-3.091551907786315496e+04
-3.091586324148988933e+04
-3.091581813235857408e+04
-3.091570470142288832e+04
-3.091583793898238946e+04
-3.091578892120754608e+04
-3.091569536084244464e+04
-3.091597117681400414e+04
-3.091579401082523327e+04
-3.091588047310023467e+04
-3.091578531080082030e+04
-3.091576022788920818e+04
-3.091582717551856331e+04
-3.091587155783375420e+04
-3.091548095498314433e+04
-3.091526970428407003e+04
-3.091572188242004995e+04
-3.091584176626386761e+04
-3.091574925136022648e+04
-3.091567557353871234e+04
-3.091564967646242076e+04
-3.091582035389614612e+04
-3.091570513435604153e+04
-3.091558143819701945e+04
-3.091556891089112833e+04
-3.091400696670817342e+04
-3.091566178688987202e+04
-3.091593497015981120e+04
-3.091595274109982711e+04
-3.091588354744264871e+04
-3.091583441891746406e+04
-3.091592537814615935e+04
-3.091594183151084871e+04
-3.091540210917514923e+04
-3.091521082129325805e+04
-3.091583180744072888e+04
-3.091375297154724103e+04
-3.091451507866492466e+04
-3.091525667139062352e+04
-3.091574435766452007e+04
-3.091545638854363642e+04
-3.091547349226046208e+04
-3.091545111116738917e+04
-3.091566632411641331e+04
-3.091582629495810033e+04
-3.091577111189948118e+04
-3.091583639310353828e+04
-3.091519629884853566e+04
-3.091584718595566301e+04
-3.091588338254164773e+04
-3.091572942922591756e+04
-3.091557438310090583e+04
-3.091557760901074653e+04
-3.091566518259876102e+04
-3.091571027785227488e+04
-3.091580670575326076e+04
-3.091583071626414312e+04
-3.091575660823060753e+04
-3.091573420536842605e+04
-3.091576448755960882e+04
-3.091577956783775517e+04
-3.091527781327716730e+04
-3.091549791529596041e+04
-3.091583459252610919e+04
-3.091585374743723150e+04
-3.091586012877941903e+04
-3.091534228494249328e+04
-3.091548835267060349e+04
-3.091596060682312964e+04
-3.091571646572150712e+04
-3.091555259086222941e+04
-3.091531839062422659e+04
-3.091579119335830183e+04
-3.091576767999944786e+04
-3.091593388932354355e+04
-3.091542601573853972e+04
-3.091536596265811750e+04
-3.091581778514128018e+04
-3.091567892979108728e+04
-3.091575690646740259e+04
-3.091533666034895577e+04
-3.091530524153816441e+04
-3.091557400948857321e+04
-3.091580578927376700e+04
-3.091500651004190877e+04
-3.091510206282471336e+04
-3.091573371964518446e+04
-3.091561883534936351e+04
-3.091563284431523061e+04
-3.091555634140759867e+04
-3.091538872117311985e+04
-3.091575673204241684e+04
-3.091582111118902321e+04
-3.091549785515879557e+04
-3.091551510200751000e+04
-3.091537038341992593e+04
-3.091585521930110917e+04
-3.091543548203558748e+04
-3.091580134238902610e+04
-3.091566323263082086e+04
-3.091560757500561886e+04
-3.091560523727542750e+04
-3.091546241504934733e+04
-3.091526503508230235e+04
-3.091524960513784390e+04
-3.091576353951491546e+04
-3.091572699598375766e+04
-3.091572924364425853e+04
-3.091566644983301740e+04
-3.091588734560794182e+04
-3.091578732580397264e+04
-3.091498272184805319e+04
-3.091502984081235991e+04
-3.091559845238838170e+04
-3.091559851306977362e+04
-3.091572826049687501e+04
-3.091556380168124815e+04
-3.091543699036272665e+04
-3.091541825804443579e+04
-3.091541429144066205e+04
-3.091588268701862035e+04
-3.091590904641635643e+04
-3.091580195573367746e+04
-3.091518250213147985e+04
-3.091574737132554947e+04
-3.091561211685809758e+04
-3.091560071828051150e+04
-3.091566031965192451e+04
-3.091540419873750216e+04
-3.091538267942902894e+04
-3.091537705456338153e+04
-3.091550571952153405e+04
-3.091558476696589423e+04
-3.091590307025171569e+04
-3.091563648928041948e+04
-3.091559456932356261e+04
-3.091507917668830487e+04
-3.091550450562159676e+04
-3.091540626870765482e+04
-3.091550099127106296e+04
-3.091581777670575320e+04
-3.091593904833026318e+04
-3.091581966408750304e+04
-3.091573662854237409e+04
-3.091555496478356508e+04
-3.091571389587818703e+04
-3.091569136621094367e+04
-3.091586855451305746e+04
-3.091579054137348794e+04
-3.091545755917747374e+04
-3.091546297614813375e+04
-3.091521667010861711e+04
-3.091552534355695389e+04
-3.091542351936596606e+04
-3.091582449383644780e+04
-3.091584588144181180e+04
-3.091586429892436354e+04
-3.091587970764393685e+04
-3.091577806250386857e+04
-3.091576109783722495e+04
-3.091581596088994775e+04
-3.091578132787021605e+04
-3.091573290711318987e+04
-3.091578274939303446e+04
-3.091584388467028839e+04
-3.091576140097206735e+04
-3.091564965714233767e+04
-3.091570645846210027e+04
-3.091571863256418874e+04
-3.091583294188342188e+04
-3.091589950855336792e+04
-3.091588410908565857e+04
-3.091584580280090086e+04
-3.091587142694698559e+04
-3.091588424487047814e+04
-3.091509656802948666e+04
-3.091587311459716511e+04
-3.091578368083878377e+04
-3.091532227450538630e+04
-3.091569518995494218e+04
-3.091574294539357652e+04
-3.091544960664984319e+04
-3.091566626207445006e+04
-3.091567499311984648e+04
-3.091560719268564571e+04
-3.091546240089942876e+04
-3.091503237092705604e+04
-3.091588659729481878e+04
-3.091588276565952401e+04
-3.091553105087310541e+04
-3.091522916040701602e+04
-3.091537437152069833e+04
-3.091565390864932488e+04
-3.091559728284299854e+04
-3.091583154920467132e+04
-3.091575010879100228e+04
-3.091588143284582475e+04
-3.091565686462220765e+04
-3.091580239438121862e+04
-3.091572752687790125e+04
-3.091528488742125410e+04
-3.091585044207014289e+04
-3.091546552721559783e+04
-3.091587176300760984e+04
-3.091539132176530256e+04
-3.091547415458560499e+04
-3.091556739821017254e+04
-3.091545433490031792e+04
-3.091496029884944073e+04
-3.091583801027622394e+04
-3.091564818391788504e+04
-3.091574507114707376e+04
-3.091533801438753289e+04
-3.091541228051922008e+04
-3.091542225757398410e+04
-3.091540467248773712e+04
-3.091534325285149680e+04
-3.091589033831620327e+04
-3.091586825083398799e+04
-3.091585811731374997e+04
-3.091584378208335693e+04
-3.091578463786323846e+04
-3.091580536831362770e+04
-3.091593817783801569e+04
-3.091581004078075784e+04
-3.091599664748787472e+04
-3.091581173496166593e+04
-3.091569024999987960e+04
-3.091568250046918911e+04
-3.091574854277572376e+04
-3.091582749253120710e+04
-3.091518493210827000e+04
-3.091513546534555644e+04
-3.091582910943178285e+04
-3.091551101159193422e+04
-3.091556568579763552e+04
-3.091561176120528035e+04
-3.091572217603090758e+04
-3.091539920816926679e+04
-3.091538494015099786e+04
-3.091559912015580267e+04
-3.091594278363725607e+04
-3.091575246148745646e+04
-3.091562055973490715e+04
-3.091557487399431557e+04
-3.091552801680353878e+04
-3.091550513175559536e+04
-3.091556040053008473e+04
-3.091567842121028298e+04
-3.091569582370812714e+04
-3.091562853675278893e+04
-3.091567593708282948e+04
-3.091586266134313701e+04
-3.091587982438078689e+04
-3.091577601267013961e+04
-3.091580014209478395e+04
-3.091565442103972964e+04
-3.091581466998178075e+04
-3.091574713404226350e+04
-3.091589215358777437e+04
-3.091522469393007850e+04
-3.091485029627631593e+04
-3.091562216520669608e+04
-3.091543873733372311e+04
-3.091544260298325025e+04
-3.091543140658626726e+04
-3.091519760771621077e+04
-3.091595632538362042e+04
-3.091577299166204102e+04
-3.091533765982316982e+04
-3.091552220853314429e+04
-3.091586709489429995e+04
-3.091585192645126153e+04
-3.091564763451999897e+04
-3.091567820025382389e+04
-3.091567945361027887e+04
-3.091569345060313208e+04
-3.091556876503810054e+04
-3.091553008105929621e+04
-3.091544402368972806e+04
-3.091564219904559286e+04
-3.091568242454942811e+04
-3.091574116685736954e+04
-3.091557812711553925e+04
-3.091589383307453681e+04
-3.091539297431278465e+04
-3.091542476483111022e+04
-3.091565084845682577e+04
-3.091575325116188833e+04
-3.091577297179773086e+04
-3.091578794948894210e+04
-3.091580383848948986e+04
-3.091582251937826004e+04
-3.091590742897156088e+04
-3.091579430198706177e+04
-3.091526124589676692e+04
-3.091588747050820530e+04
-3.091579135499393306e+04
-3.091590730978568899e+04
-3.091587129796501904e+04
-3.091590733563650429e+04
-3.091591779542126824e+04
-3.091590198669431265e+04
-3.091576149321866978e+04
-3.091553260954130747e+04
-3.091555631283564071e+04
-3.091558849628638200e+04
-3.091561869303381536e+04
-3.091558710578454338e+04
-3.091558780947099513e+04
-3.091531901458131688e+04
-3.091550986435989034e+04
-3.091542263254688805e+04
-3.091551445764188611e+04
-3.091524567091562494e+04
-3.091572294366411370e+04
-3.091541488546521941e+04
-3.091551914589161970e+04
-3.091524171111470059e+04
-3.091591646151911118e+04
-3.091590092354544686e+04
-3.091526186277889428e+04
-3.091544577882414160e+04
-3.091576353652165926e+04
-3.091557590204048756e+04
-3.091570062161974784e+04
-3.091468152663288129e+04
-3.091568289068046943e+04
-3.091597946132054494e+04
-3.091585850888559435e+04
-3.091575696932570281e+04
-3.091594560028784326e+04
-3.091582417410265771e+04
-3.091528948015902279e+04
-3.091545383992520146e+04
-3.091547594645538993e+04
-3.091551154411875905e+04
-3.091589885194262024e+04
-3.091579488920878066e+04
-3.091557836412671168e+04
-3.091565497288664119e+04
-3.091574312852620278e+04
-3.091576849253144246e+04
-3.091574430378597754e+04
-3.091542159116713447e+04
-3.091569974922270558e+04
-3.091567355690287877e+04
-3.091564679668141616e+04
-3.091549454298886485e+04
-3.091552503552406051e+04
-3.091581706322320315e+04
-3.091587332085947492e+04
-3.091584104951595509e+04
-3.091584918435987129e+04
-3.091589918011193004e+04
-3.091576972956105601e+04
-3.091565876969136298e+04
-3.091576603507114487e+04
-3.091498785745297937e+04
-3.091545347257148751e+04
-3.091581497692621997e+04
-3.091552093041433545e+04
-3.091538189329208035e+04
-3.091591749527967841e+04
-3.091580678929221176e+04
-3.091586422218825464e+04
-3.091572687489308737e+04
-3.091567380561494792e+04
-3.091566678235615473e+04
-3.091564139712604447e+04
-3.091539463012564374e+04
-3.091547147616885559e+04
-3.091580854415451176e+04
-3.091576566826165799e+04
-3.091574470705871863e+04
-3.091571487086216075e+04
-3.091545505572993716e+04
-3.091586528941882352e+04
-3.091592533841753539e+04
-3.091523812084439487e+04
-3.091529858318406332e+04
-3.091540169583419629e+04
-3.091551393491115959e+04
-3.091530001586355138e+04
-3.091549763937250100e+04
-3.091565588283539546e+04
-3.091573773468522631e+04
-3.091586964759444163e+04
-3.091551362932728807e+04
-3.091533305810564343e+04
-3.091583267521183734e+04
-3.091586191221367335e+04
-3.091574343274950297e+04
-3.091572582344511829e+04
-3.091565697020239168e+04
-3.091570932681432168e+04
-3.091572615188655618e+04
-3.091569843817811852e+04
-3.091536360805686490e+04
-3.091509726491308902e+04
-3.091583846443425864e+04
-3.091575516738770966e+04
-3.091585117949870983e+04
-3.091588129297929845e+04
-3.091587103673570891e+04
-3.091584618185551153e+04
-3.091591449168686086e+04
-3.091590664310672946e+04
-3.091575736144178154e+04
-3.091551598175162871e+04
-3.091540854874970682e+04
-3.091549799774646090e+04
-3.091568467683586277e+04
-3.091581262858358605e+04
-3.091570538334022785e+04
-3.091539669029969446e+04
-3.091564870011787934e+04
-3.091558244828367242e+04
-3.091546974933428282e+04
-3.091542388046106134e+04
-3.091575329388376485e+04
-3.091548648787430648e+04
-3.091540100874668860e+04
-3.091530384641038836e+04
-3.091520876193554432e+04
-3.091513091641811843e+04
-3.091576315964396053e+04
-3.091570637764428466e+04
-3.091588652246350466e+04
-3.091588095555811014e+04
-3.091588278960554453e+04
-3.091579840138240252e+04
-3.091576116994739641e+04
-3.091570130190440614e+04
-3.091558166024192906e+04
-3.091528437339816446e+04
-3.091543882468227093e+04
-3.091516168787002607e+04
-3.091540720042551402e+04
-3.091537222644711801e+04
-3.091532309084697408e+04
-3.091584314397635535e+04
-3.091516530344691637e+04
-3.091588618531443353e+04
-3.091579224535049070e+04
-3.091533066758536370e+04