-6.574553010565413469e-02 -1.323732057788646055e-01 1.550604676832172124e-01 1.134334813080517188e-02 -8.487726457642362715e-04 -1.154044891544192958e-01 -2.122607300377229445e-01 9.348943243735868824e-02 -6.080736612176759065e-02 1.857303370763922074e-02 1.797856375437240639e-01 -1.154935521752882832e-01 1.336763952349171447e-01 9.554708646742388067e-02 5.440351894860333791e-03 -5.384049873180504070e-02 -1.309581219039836208e-01 3.073795221051365059e-02 1.682540332238880720e-01 -1.046421075419616542e-01 1.004666356628839824e-01
-1.348736552319684534e-01 2.251558933208286928e-01 -1.100398305428841039e-01 -1.369457588629944822e-01 1.471915543855849273e-02 -5.305214701532549176e-02 1.604818448351787719e-01 -5.265851108879420622e-02 2.161032954519588947e-02 -2.042613075328357855e-02 -5.334854381225903608e-02 -5.625111383302772855e-02 9.527321253604496831e-02 5.760670237583863373e-02 -2.230385896924909697e-02 1.140452496448175618e-01 1.671309752702051024e-02 -5.447304158383133033e-02 -7.755476216779480514e-02 -2.081878451832605559e-01 2.745096109770543968e-01
6.490704187338515452e-02 -2.955868993707906969e-02 -1.682746534729460675e-01 4.433924332420429576e-02 2.836214984897244065e-02 4.734722858329946243e-02 -3.706620380228095590e-01 3.035310945752082643e-02 8.966008249446417999e-02 -6.209451189276751076e-02 2.736672146676571993e-02 2.400872676318620003e-01 5.014849713113979368e-02 -1.512185193337909905e-01 3.409159660718467932e-02 8.264858074993218506e-02 -2.925020895428858889e-02 -2.639299319703401411e-02 1.907131868369156547e-01 1.239454888739671135e-01 -2.165185800688977091e-01
1.677645465635809185e-01 -2.265337476188568344e-02 -2.282603978005769141e-01 2.216039140099014884e-02 5.354749579132493664e-02 6.766758414378422348e-02 -4.678641437319589480e-01 -1.986640154880377207e-03 1.393521573546840919e-01 -9.931843231820509932e-02 8.940091527438348562e-02 2.237752622311568185e-01 2.988115772222310965e-02 -1.643440020571231841e-01 7.925138186210871349e-02 5.977378256549343433e-02 -5.365306529585384121e-02 -3.250574004621478719e-02 2.876027492199439983e-01 9.968861978196716378e-02 -2.492802477449421739e-01
2.352523077374004401e-01 -2.530809041741849050e-02 -2.336618746124251578e-01 6.814041005422905029e-03 6.284897646678015704e-02 7.587017523727036805e-02 -4.247735310502148698e-01 -4.292919881193596465e-02 1.195739446516022320e-01 -6.456081709306704663e-02 1.418407797322683850e-01 1.863094009782430838e-01 -1.983102316638005874e-02 -1.485628266589761326e-01 9.944220523462062034e-02 1.844314156519401976e-02 -7.082505335303307392e-02 -3.595199558641067744e-02 2.486558810016445964e-01 8.293536162024765790e-02 -2.115818044808329967e-01
2.749863963866949201e-01 -3.486555014477085712e-02 -1.827336646721418323e-01 -8.120521473793917630e-03 5.201599235567751917e-02 7.010622427178152261e-02 -2.843283976513214517e-01 -6.016479596658341755e-02 4.278403431545029639e-02 2.487054004526242923e-02 1.647836607340457671e-01 1.339879101196887468e-01 -9.287432166620689100e-02 -1.076296782402687141e-01 9.795348495911350428e-02 -3.052902435035733872e-02 -7.861194845304059209e-02 -4.146516112881748484e-02 1.159953801317897409e-01 6.447231971494028768e-02 -1.206328278650747321e-01
-6.778672907412688908e-02 3.894450280319546476e-03 4.402186632374040925e-02 7.582924327155921018e-02 -9.840383942607116782e-03 -1.331518901466586247e-01 7.084551933588864592e-02 9.985754127362690691e-02 -1.992605114707630617e-02 -4.679202452075756531e-03 -6.032153042825126599e-02 -1.212726212286151795e-01 9.506844986335423464e-02 4.637020930124926416e-02 -7.153863738340204836e-02 -1.087687284569368168e-01 -6.006200325369824566e-02 1.973848915595640963e-01 -6.050850106559518826e-02 -1.989828323063909041e-02 1.044823906003801844e-01
-1.115695342061698569e-01 -5.309894109672894796e-02 8.640768814865402991e-02 9.326446089214977808e-02 2.380183521690194814e-02 -2.179169517718488880e-01 5.789605434952792284e-02 4.971650034227118042e-02 4.384667133984856968e-02 -1.168936722285336856e-02 -2.596798980934217696e-02 -1.007131016322980188e-01 1.092901482211467712e-01 2.716329576782937349e-02 -6.084706395785931948e-02 -9.451751383241287219e-02 -3.450137906290352136e-02 1.774209937708252083e-01 -4.267424820138833452e-02 1.288667864197214248e-02 7.180176410267841147e-02
3.198082358141644821e-02 2.472560180587365652e-01 -2.882527241528446971e-01 1.871896953513703041e-02 1.057611031523139761e-01 1.539384381708837624e-01 -7.083266381901957842e-02 9.388486813625165212e-03 -1.462109355588113967e-02 9.588004435433309866e-03 -7.087323583025839646e-02 2.410854213836449433e-01 1.978834285037470858e-02 2.036874372597999999e-02 -2.176696630493552553e-01 7.812307885754316006e-02 -1.157053596712232790e-01 -1.112927806390122745e-03 -8.736655544088509084e-02 -1.961957562491740692e-01 1.266325490099425299e-01
-2.836060718694814742e-02 5.163552047842018267e-02 -1.657801175576020108e-02 2.175909358640490052e-02 3.578430822437037029e-02 1.087650774901459810e-01 -6.427681301439529260e-02 -2.076630829846646265e-01 1.836719117153148492e-02 -2.215391222048813252e-02 -1.113339182929933349e-02 -1.703164180841610642e-01 9.284922769727844971e-03 8.656390838964711206e-04 7.470428270137963178e-02 1.974998198803737046e-02 1.805668930148918716e-01 8.969124426735482214e-02 6.399738549972894264e-02 -5.005593740968240779e-02 -1.046333657904906650e-01
-7.932542963927460833e-02 -1.178632353107998271e-01 9.371342696328556487e-02 3.594160832878045414e-02 6.038323690922285658e-02 1.139589119935248002e-01 2.911340568597456935e-01 4.269620028199397899e-01 -4.366901838113135814e-01 1.440198926857126360e-01 -7.827677941722989419e-02 -1.494520170497767586e-01 -4.775140603366338082e-02 -1.750685370279182473e-01 -2.699599921350189780e-01 -4.867358882295682032e-01 -1.862089736804618256e-01 3.064615867786166237e-01 1.427171660282673948e-01 7.007223428517965480e-02 3.419682672606823015e-01
1.034735924806296226e-01 1.254595602287400698e-02 -3.069727735513987782e-02 -1.078948104201766546e-02 1.348132343026837432e-01 1.689143439923515566e-01 -3.842277450658065918e-02 -1.137150171274846078e-01 6.262534189532560636e-02 -2.104191001131258121e-01 -2.102038473386699247e-01 -1.184338145715171375e-01 6.812904577731677958e-02 -1.189862418424152968e-01 -2.280183541289658444e-01 -8.575215963246583806e-02 1.326659001869398835e-01 -3.181478172553539596e-02 1.737808770362435640e-01 1.628800157960721695e-01 1.774245418934810858e-01
-1.496480379709965169e-01 -1.614930083700332475e-01 -1.119378190534352918e-01 -2.201934066990258662e-02 5.270242553441899236e-02 2.271644392764539944e-01 -1.306426989420838292e-01 3.588061661454678419e-01 -2.755276136468832182e-01 -1.538260809534479912e-01 -1.388785086911596411e-01 -2.277982162580996853e-02 2.601007362936480494e-01 4.400386860012369533e-02 -3.631508680486100760e-02 1.810698522568778002e-01 -1.885939805920812951e-01 1.548803361808476220e-01 1.496562140797252395e-02 3.345303737326366100e-02 6.451561709575535930e-02
3.334458823295609331e-02 4.788227519539062921e-02 8.646384104633818291e-02 3.969372232632553676e-02 1.037676238624592601e-01 5.610929177092802145e-02 3.800111355327479012e-02 -6.727703354130153135e-02 4.806148110054563050e-02 5.364041546725465542e-02 -1.202990472250859005e-01 5.874678103385624905e-02 -1.076996636741039959e-01 7.109414503213669356e-02 -2.010404863364561034e-01 1.051100997780637092e-01 -1.544785755676551103e-02 1.312781214298887889e-01 -1.620902756837707681e-01 -1.972010576683362257e-02 -1.796189786230332763e-01
-3.671929510846541622e-01 -1.077500058781633158e-01 1.500834800383860357e-01 2.627633195255046905e-01 -1.103884721603736047e-01 1.286962194219024580e-01 3.505678881371531580e-02 4.738790343867323174e-02 -2.633272139174501203e-01 6.185359950664091194e-02 2.801285002901925392e-01 -1.684072709849675133e-04 6.767915410896640713e-03 4.034508565504815042e-02 5.984577345996029002e-02 -1.027274068594806605e-01 -2.066593242275267805e-01 1.081884818475339349e-01 1.034787346873772551e-01 5.693631288214977271e-02 -1.833182821572801602e-01
-1.587058294686814475e-01 -4.505946080127772035e-02 -1.495775383164864823e-02 -7.939330676834335798e-02 -2.301790579822535904e-02 6.872358772147806050e-02 7.607642914991791239e-02 2.022791925198932916e-01 -7.367188185265743927e-03 -1.864759570547989270e-02 -1.799590841773217043e-01 -2.075817846959845947e-01 2.456077351078504376e-02 -7.364287980660078059e-02 7.017852369865323903e-02 1.493587374193746931e-01 3.794305803909401448e-02 8.755244621481200751e-02 6.750791862427024670e-03 8.145697718030327217e-02 3.452169077955666819e-03
-1.527958912536272751e-01 -5.229120326081082570e-02 4.866147378385939776e-02 -9.947614379915499516e-02 1.553126415021210960e-02 3.816561274713155261e-02 6.427773861160987479e-02 1.763935808626481971e-01 -7.694762181710182447e-02 7.976025464185442990e-03 -6.881409056023639337e-02 -1.525152296093414961e-01 5.862989867448256676e-02 -5.874858080621792045e-02 3.220019012127045555e-02 1.185234946571958325e-01 -3.310706970328293908e-03 7.962352336443488665e-02 2.864877645308547965e-03 -8.760263415266889356e-03 3.081210283181451404e-02
-2.125350153456416480e-01 1.123525894496993499e-01 -1.023306856089007955e-01 1.842916504725395366e-01 1.309298397668716418e-02 -4.369266224775697482e-02 -1.972236833780258158e-02 -5.754350465491022554e-02 1.666458594856334297e-01 6.729487699871582185e-02 2.122376929514935839e-01 8.541159127957012598e-02 5.176597826360761906e-02 1.034878878153880355e-01 -9.633723795626510100e-02 -1.531210329862800826e-02 -1.691299567212797839e-01 -5.377128462898190381e-02 -5.578301875279072924e-02 -2.144976928170781172e-01 4.407441967670121946e-02
5.905608476972635384e-02 3.456349692041491700e-02 -1.886112584067533571e-01 -1.156737350997253388e-01 -8.319843691745652803e-02 -5.285628036030816379e-02 6.897632718312421418e-02 -1.235218224600296844e-01 -4.072895138875892718e-02 1.887183705733065375e-01 -5.294632040045921251e-02 1.076572918905035064e-01 -1.280680988676791421e-01 -2.496048752569202112e-01 4.247390782650057456e-02 5.154702310029343065e-03 1.329375629694173055e-01 1.566208188987188582e-02 -7.816365086878197810e-02 3.417704465671008718e-01 1.164032085489444951e-01
3.268427746449258792e-02 5.914447930371816153e-02 -1.912551240060486601e-01 -2.260243606184363652e-01 -5.079250710421329140e-02 -1.356972310646692714e-01 1.346107856230294719e-01 -9.231628938995380118e-02 -1.186775037492874413e-02 1.711405081375366455e-01 -8.044324254207499414e-02 9.169660205479659987e-02 -8.518872803912773406e-02 -2.703429322715151795e-01 8.776425371074698945e-02 9.273116263035278972e-02 7.929236524988733659e-02 3.844853696238630103e-02 -1.199535937757799375e-01 3.554581267541517264e-01 1.209106098735818341e-01
-4.483420643469766542e-01 -7.145872749054384132e-02 -3.390439971274386011e-01 3.376743189381391508e-01 -1.349103705881465332e-01 -3.471118109820692937e-02 9.206298428556541902e-02 7.162651769671909974e-02 5.316384088809081865e-01 1.619756558953660275e-01 6.059391311967336768e-02 -1.064561752383914733e-01 5.315843642879906211e-02 2.671997583970247558e-01 -7.204128809298314395e-02 7.266246666809715593e-02 -1.452421952296248930e-01 -6.555583409873395884e-02 -2.691917978689901680e-01 -4.780889590510191411e-02 8.616996393071098270e-02
-1.217251354224068438e-01 1.265986618674756481e-01 1.318420672439016283e-02 -3.162919948401333309e-02 -1.130781548217903165e-02 1.463819139331701824e-01 -1.251448571757849543e-02 1.104293012819497904e-01 -9.943274357420496534e-02 -1.352666226716225384e-01 1.371477961661089762e-02 3.881248178715674402e-01 1.794003834141914278e-01 -1.832955021813881605e-02 -1.585480665656640586e-01 1.004607221251242050e-02 6.839500071030434059e-02 -3.114533839788809488e-01 1.116889876689173555e-01 -2.895003777760228325e-01 2.174325558962219088e-02
-8.649808814327740805e-03 -2.549417659520181734e-01 -7.810909205518959918e-03 5.300936385518519034e-02 3.107049357867630590e-01 -1.609382156840311745e-02 3.234622879290321995e-02 9.366935825145836225e-02 -5.114870776562181059e-02 4.280732851201706629e-02 2.941691929704683822e-02 -1.112821876931121556e-01 -6.015970518190326410e-02 -5.451788162667067783e-02 2.498882108487147369e-01 1.446126862795797108e-01 -1.032461526761818404e-01 -7.122239166842264657e-02 -2.039660934434542050e-01 -2.108536165833007833e-02 7.669858474431397698e-03
-1.074400336554160174e-01 -2.876689294207860140e-02 -6.937659655635993079e-03 2.088527839377969306e-02 1.125795150334723688e-01 -4.126379231258019142e-02 -1.344952402374101630e-01 -1.338493276478400495e-01 -1.436781416252649601e-01 -2.925607106998088722e-02 -1.170021727909087428e-02 -6.783722554438863239e-02 1.456195303607661917e-01 4.035768406157985017e-02 1.065346453133603627e-01 2.387156354039984829e-02 -1.089659320857085112e-01 2.030199274018897881e-01 8.081497266786134837e-02 1.303451708596658210e-01 -4.983775357738035039e-02
9.158151946778457508e-02 2.803417990260843179e-02 1.844307471650629970e-01 3.349103828112866971e-02 -4.128574953539258102e-02 7.804075212751357404e-02 1.550169646141322201e-03 9.225499428552201564e-02 -4.656036810677671722e-02 5.317093199119579672e-02 -2.343221339588211563e-02 -3.178773371804284598e-02 -1.293259854822850219e-01 -5.940791455539937323e-04 -3.556946682645428792e-02 -3.471848303178856621e-02 1.013148940879734644e-01 -1.605642744093433161e-01 -1.574919087217678190e-02 -1.562920261992752080e-01 1.201029234597311875e-02
2.221687339990614518e-01 5.336124506292568015e-02 -1.184404480182215703e-02 -8.347873860726999495e-02 1.002622329446655781e-02 1.882459046173340497e-03 1.734147519158121473e-02 -9.125524644964727594e-02 3.315982874451364748e-02 5.604475707624523295e-02 1.684217720079958236e-01 6.380028471509219257e-02 -1.156812427215768851e-01 -1.615896304348212742e-01 -9.586945140843297630e-02 -2.814536983911249401e-01 -4.092008721356842765e-02 -7.560478594702504940e-02 1.850586620310164243e-01 6.195567231058142499e-02 8.447570965150098810e-02
-1.757827895451644085e-01 8.874415262857586473e-02 4.844632385353844772e-02 -6.180505707494327039e-02 -4.156569127073370118e-02 -9.533409626393693492e-02 4.517510903103197362e-02 3.077156681602292165e-01 -1.420170545795772232e-01 1.178534651179793113e-01 -1.496982773309208925e-01 3.816304164375773911e-01 3.981163312704875251e-02 -1.684827585800227345e-01 -1.870733272126713920e-01 -6.169830486286241589e-02 7.078406996525445083e-02 -3.524735899578258086e-02 9.644594420691005032e-02 -1.074972149944497107e-01 2.959514818291978516e-02
-1.279100274322569064e-01 6.269044223275065109e-02 5.112942449031818853e-02 -7.348372850776156706e-02 -4.706096193365875285e-02 -1.084827189176334750e-01 -1.396057709914773478e-03 3.608665455451092741e-01 -1.413658455170570261e-01 1.023226123443070207e-01 -1.405470005145640078e-01 4.097639437745501101e-01 3.027299387639270992e-02 -1.738441261792394721e-01 -1.805480725381955476e-01 -5.309750127883960946e-02 7.101387518480614669e-02 -3.186455828685247349e-02 1.232917087080731278e-01 -1.331188257572713529e-01 1.367878416937746804e-03
-6.456323393023843948e-02 1.235610574975141117e-02 2.154543489604076462e-02 -9.792689975022825233e-02 5.838975761936813060e-04 -5.364869442011834660e-02 -8.162481880854600275e-03 2.995806456634070303e-01 -8.447257290538494334e-02 4.803736415089922968e-02 -8.683027469917448116e-02 2.953830622953145246e-01 1.658284543010297638e-02 -1.474371461798518745e-01 -1.240902419939129836e-01 -2.843285519175238821e-02 7.069480125611554699e-02 -2.658613448247509198e-02 1.344652097500039778e-01 -1.489480293664412758e-01 -2.813085338946392719e-02
-3.931371324767548268e-03 -3.821441228916658273e-02 -1.593559586677846182e-02 -1.205324005672934740e-01 7.133968540433614780e-02 2.575607946927224029e-02 1.417526423086139589e-02 1.904234749087540257e-01 -1.243817536944362770e-02 -3.094523456451072144e-02 -1.913584823616760675e-02 1.261181226469093586e-01 7.660448236083230479e-03 -1.124828415466168768e-01 -4.963797884523482584e-02 -1.330957372489744795e-03 6.517957883100967964e-02 -2.163629768927143385e-02 1.349042513621168671e-01 -1.571096884942162486e-01 -5.222620576752073918e-02
4.123175636454243925e-02 -7.316177494329229036e-02 -4.254049940388241607e-02 -1.318239666761499840e-01 1.289936446601855358e-01 8.895853122788466294e-02 3.976699877247930059e-02 1.010966074115364627e-01 3.473858906017181225e-02 -1.048290781793055765e-01 3.476933945652265628e-02 -1.378198825880245365e-02 8.068430919440400251e-03 -8.291011338511677931e-02 1.457332245519563432e-02 1.810977230174500019e-02 4.977455585645194913e-02 -1.540687416898687753e-02 1.294760350751809341e-01 -1.585622590562875134e-01 -6.654108091158036919e-02
3.936086728355127351e-02 1.108269481297442377e-01 2.029130209236065102e-02 1.564814650958580022e-01 -1.317633914806628503e-01 -1.428159478198894050e-01 -3.669920964890916598e-02 -1.917616313706904663e-02 -5.473555123829796504e-02 1.910343690703728003e-01 -4.350270913049942428e-02 8.240957098030221584e-02 -5.031582453870776100e-02 5.307096749202182967e-02 -3.377679071009460909e-02 -1.897602845045118503e-01 -1.228925706203218837e-01 7.182608674059470788e-02 -1.101013827576532711e-01 1.534369187467871654e-01 5.680132995502441828e-02
1.795924962582829687e-01 6.715891705230842001e-02 4.338366704429173076e-02 -1.117145958585205739e-01 1.609756509491539200e-01 -4.945748738839292336e-02 -2.639469012526073355e-01 -8.927467409872912041e-02 9.551206803947250024e-02 -1.801503228462661699e-01 -2.981578484784045413e-01 -1.451626967133065049e-01 2.539311680599059540e-01 1.663910117192207716e-02 1.045429143737998112e-01 3.120126503847535024e-02 -6.314578464025351334e-02 3.257382286355344023e-03 9.108689060072978905e-02 2.058046894660702508e-01 -5.207584764221996620e-02
1.555600844908171798e-01 5.578831522574079216e-02 4.789554208879952084e-03 -9.866917729424901085e-02 1.350702417959304402e-01 -1.913039749701511694e-02 -2.033940229427800839e-01 -3.946674532048503187e-02 9.278803543698160849e-02 -2.084368308339809017e-01 -2.451061642616863545e-01 -1.382020513935085793e-01 2.641360830388527203e-01 -2.055257761720786364e-02 4.926115793476831123e-02 -4.350204064362223760e-03 -1.153665910906892383e-01 5.779670691516365644e-02 9.515401618363483749e-02 2.296335212683972560e-01 -4.730300560526982251e-02
3.082427957739290458e-01 1.163618652066935183e-01 -1.076233019039016421e-02 5.506722357352027142e-02 7.317499041463369769e-02 5.832398879506590222e-02 3.446306962263365886e-02 -2.946712266152397564e-01 -1.736545844385217197e-01 -1.132328838228265633e-01 2.595008978765367402e-01 1.623955170763102460e-02 2.240356635808569193e-03 -1.760857169446674586e-01 -4.082356799291536609e-02 -1.847292522667630943e-01 -4.657183522782393920e-02 -1.934102228539814894e-02 -1.020513609383693898e-01 6.829102528986720488e-02 1.700180158265959252e-01
1.905974357630264501e-02 8.471276538256684863e-02 -9.467743646226424448e-02 3.784201367650303054e-03 -1.997503066634750690e-01 -9.815269404851678647e-02 -5.645752201187769631e-02 -1.851541013882524733e-01 -4.539385850607625950e-02 1.017469937209770359e-01 1.625900467575731867e-01 -1.752396182464119878e-01 8.120403203038722983e-02 1.155086702631263340e-01 -1.083906219947833732e-01 -2.559939642967187234e-01 8.968491935305525353e-02 4.148276804472137980e-01 1.066565156132792402e-01 -6.759199370459403888e-02 1.070265488108388952e-01
6.563307004408340528e-02 -8.280238415375387392e-03 1.715574896827021800e-01 8.503117082438027552e-02 -1.270263906247437180e-01 1.163598083239944792e-01 -1.866279092641914550e-01 -1.869745968431168748e-01 -2.135281811568794375e-01 -3.609196645408123405e-02 1.668651746034199579e-01 -1.837087299156279219e-01 -6.915671579583115847e-02 6.695667406092402959e-04 2.411798322995314658e-01 3.103887414938511120e-03 1.307589128145803248e-01 -1.097850341985389111e-01 1.381084632307016669e-01 2.398757172462643791e-02 -2.207518503518187541e-02
9.488872973752447704e-02 -3.380101050387596118e-02 2.720314787012352853e-01 1.250052976846542097e-01 -1.453002507438056756e-01 8.062342546651203590e-02 -2.714217672471684883e-01 -2.103815620038680945e-01 -2.979864587275059540e-01 2.630166760519606073e-02 1.467129177815152952e-01 -2.948000903163354169e-01 -7.832953845846060692e-02 2.681784231852341743e-02 3.901797465320563929e-01 -4.394555597560554500e-02 1.697620367746988101e-01 -1.813763277790367279e-01 1.475011666538598998e-01 4.619002637681222240e-02 3.132817470100691948e-02
1.567478314053853683e-02 3.990789523736443245e-02 1.921286306662690069e-01 7.978128626745224772e-02 -2.008808208169421058e-02 3.493203887801774651e-03 -2.163560349136049998e-01 -8.400411787067560421e-02 -1.489094628158340317e-01 1.899719891563118879e-01 -6.544486527712005397e-02 -3.605666520475873660e-01 1.167388918054299528e-02 -5.031654444765241985e-02 2.852175880421221055e-01 -1.173513286290729929e-01 1.577893339600508760e-01 -5.255186172084831686e-02 3.660541579783234412e-02 2.215632905765951843e-02 8.118855398807685309e-02
2.601303554045144087e-02 -5.017935037162558204e-02 -1.032304175235340682e-01 1.609906661928570126e-02 -1.764106015669828775e-01 -7.886293956439253267e-03 -7.627121594151822781e-02 9.952751444456384156e-02 5.018490395491303352e-02 1.086028922893256532e-01 2.204039286432739331e-01 9.019410066520582026e-02 5.509997943050268937e-02 -2.321279543396063613e-02 -6.666577942521045852e-02 3.127017060889362293e-02 -1.007575817206650404e-01 2.586931086185511111e-02 -1.608139799690083416e-01 3.062888600539636491e-02 1.153417542320981856e-02
9.011321375306555193e-02 -1.629501554961098886e-01 7.169321211823588558e-02 1.382991362569039040e-01 4.332308156439111935e-01 8.232374754968423136e-02 -3.768287266207729913e-01 3.610101673795707011e-02 2.744825629695618607e-01 -1.555923775491923067e-01 -3.017207806897042044e-01 1.480227921063397567e-01 1.475557768895197630e-01 -1.299616650804273632e-01 3.928717946085770463e-02 -3.648267132276635655e-02 8.196513005110434014e-02 -4.146606101499832331e-01 1.929356485932424703e-01 4.333558741120136643e-02 -2.011488840546961920e-01
1.772570087976432134e-03 -1.160827462244320291e-02 -1.938656166835518169e-01 8.687655455990317410e-02 -3.274113484450116296e-01 -1.575193681058001671e-01 2.175158596455335769e-01 -4.455691293583158297e-02 8.362518865544256441e-02 -8.100945092705681694e-02 7.444362424134214062e-02 2.219582120548133867e-03 2.123806462990777688e-01 2.642657694930279910e-01 7.005325954228090735e-02 -2.698086055683686646e-01 1.552166879242102837e-01 1.130732697253800517e-01 -1.677276255191328946e-01 -1.103495456552940207e-01 8.241368474570032188e-02
6.346629838683344460e-02 -5.187792410450359215e-02 -5.498998762817083191e-02 1.429163751176706909e-01 -3.146701428319299831e-02 1.358284601808688596e-01 -6.307569636228328724e-02 1.277991614547779320e-01 -3.377982461207570952e-02 -7.023765907625099947e-02 -7.764860744093909917e-02 -1.403593613903428849e-01 -4.160127534142731703e-02 1.558162178089167460e-01 1.767183626408286856e-01 -1.258525790904616304e-01 2.748967163010161696e-02 -8.493537151267188667e-03 9.438453636591910556e-02 -1.501115564872280983e-01 -7.492416346190840237e-02
8.838980316159648909e-02 -2.806780993473794936e-02 1.161562797809231710e-02 -5.071691666502309986e-02 -4.225423275424170649e-02 -3.582467454733928580e-02 -3.270513425506098582e-01 5.661186020520113660e-01 1.826759691124333895e-01 -3.071080135888614934e-03 -5.080402564732799248e-02 8.064455993624480845e-02 1.188091442420268207e-01 3.631837781717949659e-03 2.013153372871170910e-02 -6.906487598331843836e-02 5.053457401375205382e-02 7.227494996759556423e-02 2.427053193532841546e-01 -4.991589455111737905e-01 -3.315180690198734070e-01
-4.215092582068177135e-02 3.814460169036072990e-01 -2.294414084243057150e-01 9.638963704302347391e-02 -1.937809759604857893e-02 -4.778498464372542102e-03 -1.479161427383938465e-01 -1.499451546768747201e-01 4.078814847283767642e-01 -1.053406763286275291e-02 -4.426606972218548319e-02 -3.100622113653764278e-02 1.177562774104490562e-01 -8.007578044788916938e-02 1.610485160187678788e-01 8.840816083968554284e-02 4.898707831511949634e-02 -3.326698719092756606e-01 -1.019529905232871986e-01 -1.367679927757288194e-01 2.896599918734693233e-02
-1.016861099930850693e-01 1.533272868989276339e-01 -1.298271963739767720e-01 -1.063068455544402269e-01 4.128461824990811019e-02 6.373127630053895820e-02 6.719954048561471716e-02 7.797030389507099424e-02 -8.743808353674464851e-02 -6.092630536384032597e-02 5.089010618828337246e-02 2.416142973476389372e-02 4.585876541812972801e-02 -8.190198375224340410e-02 2.002410274534016654e-01 1.755185829624710536e-01 -4.489521871775833256e-02 -1.091751684782696907e-01 -1.965762795484988709e-02 -1.966751641842558462e-01 3.830666347821911483e-02
-1.135877989325481674e-01 -5.138740900284691215e-02 -2.548644271625337687e-01 9.255036264110602651e-02 6.444414042196326686e-02 1.731443232629541196e-01 -9.827986082138573387e-02 -9.918164961871807350e-02 2.290112628298662106e-02 1.003710420394454961e-01 -1.412992539396751845e-01 6.049970789205673383e-02 6.912462842572592719e-03 5.086259538218353138e-02 3.159608367255858224e-02 -7.813788841297635013e-02 2.195176178882519702e-01 8.098667095116479295e-03 9.017168064378613956e-02 -4.295609255322607734e-02 -4.137553246520624811e-02
6.838435634233674953e-02 6.272031845395439897e-02 -7.838461149272775430e-02 -1.916686602726932753e-01 2.346970008307236108e-02 -1.085273018501354547e-01 1.170162624373972532e-01 -1.010081100334096899e-01 2.389613814644678258e-01 -6.194507936468130610e-03 -4.039007996408994217e-02 4.540398865336910117e-02 8.185554962531228773e-02 -1.861036612862703235e-02 -7.427886793714798264e-02 -4.551655155907478184e-02 2.808961289134790859e-02 -1.379238065863941931e-01 -2.387650005887757484e-02 4.572892469775200613e-02 1.147492177485684717e-01
-8.854818312942358549e-02 -8.548003405138111799e-02 -7.081559169261743281e-02 2.116200624990354218e-01 -6.292842356103109380e-02 2.108757280723156172e-02 -1.383070038332277762e-01 7.779994258552193342e-02 -2.222690584527077517e-01 1.123562918385576370e-01 -1.534797533289949389e-01 -1.020513095163019107e-01 2.274949289041243439e-01 2.661349102237249922e-02 1.388225614817454323e-01 -2.622705418528790688e-01 1.208083313813714255e-01 2.413120384350130876e-01 -6.234555442618692350e-02 7.666644595214126834e-02 -6.086213062362987210e-03
-8.866552828740455194e-02 -1.979871468138468260e-01 -1.131655209144325769e-01 1.950782518787785302e-01 -7.503693205588399251e-02 1.341529749562877377e-02 -1.221499845438962506e-01 8.715762758072877203e-02 -6.241368866559305478e-02 1.003765956227329337e-01 -2.201763859946911650e-01 -8.027426962834778579e-02 1.315273127688790511e-01 8.941428501192733025e-02 1.034159483429886589e-01 -1.507338663478266227e-01 2.542348667904211212e-01 1.434749216145985440e-01 -6.543283251333058270e-02 6.239368548134476694e-02 -4.452688244842540992e-03
-3.908163517274133025e-01 6.811252386703664508e-01 -1.387535633516056910e+00 1.837999012412634414e-01 9.714727950080617180e-01 1.302713596240102856e+00 -3.361016264264432007e-01 -1.872370036534485305e-01 -5.120933438317639558e-02 -2.068760682419394648e-01 -1.161384774611628812e+00 3.065849483184923119e-01 1.800078888615634920e+00 -5.272626994710776227e-01 -3.835758675164092080e-01 -7.587860845633648266e-01 1.462348468201878915e-01 3.474028084619178447e-01 -2.912986588977374280e-01 7.705159723753896017e-02 -1.343805690269379571e-01
-1.143659176575999442e-01 3.791606145366894220e-01 -7.989399315494686293e-01 1.337599560945661736e-01 5.349810489551393156e-01 7.175626585737535645e-01 -3.438351454204103264e-01 -1.815170185556519711e-01 -7.292569623150847724e-02 1.645968957849717335e-03 -6.524249373056696388e-01 2.497924629590738133e-01 1.021621703515741331e+00 -1.891192570113519877e-01 -3.140840855289023237e-01 -7.087956074455797895e-02 -4.165902232320323195e-02 4.133836973704110296e-01 -6.279470047455889548e-01 1.505785717040480920e-01 -1.947891055933591575e-01
9.917013107560337937e-02 7.264148646456680680e-02 -2.259352975975673639e-01 1.110004976074768224e-01 1.158763380455820613e-01 1.219114889949410585e-01 -2.999236822755416143e-01 -1.296321524720390472e-01 -7.485505220322022368e-02 2.092749076897101046e-01 -1.445965397503921612e-01 1.535204796064361943e-01 1.538684527370484945e-01 8.994434368347331565e-02 -1.118647997176189235e-01 4.834032754584949854e-01 -1.910573033124672304e-01 3.721777548837417182e-01 -7.567935822927921441e-01 1.868238273412762551e-01 -2.349545225446450503e-01
1.446243590888968422e-01 -2.062526785179240041e-01 -9.140761003557963671e-02 7.402843732633153095e-01 1.832872746505919415e-01 -1.954701394550155957e-01 -1.405347620625046479e-01 1.579756875325850629e-01 5.844297945920611664e-02 -3.668697119684979913e-02 1.473093109201057370e-02 -1.170221245530895515e-01 2.612960936742026938e-03 -1.846623521569763782e-01 -3.947384156579676617e-02 1.252252812893179246e-01 7.252254722249407148e-02 1.093418273989604610e-02 -8.355252927409850816e-01 -3.760146124484878283e-02 3.739965534103794065e-01
-2.072052208958554548e-02 1.277788497381248112e-01 6.912951352213618506e-02 -1.080364267940064349e-01 2.834579763151496776e-02 3.499215127489757604e-02 6.034091654768983931e-02 -4.860609221718739659e-02 1.656541334922850134e-02 -9.283297832395591420e-02 -7.025704519568957973e-02 9.527177271815562287e-02 2.222379481018846026e-01 -8.024927850355427841e-03 5.714534358644103584e-02 6.012473817601935756e-03 -1.060437702572313567e-01 -4.251237153297286048e-02 -6.700135983756094760e-02 7.680713672875651155e-02 -2.305918229178860468e-01
-4.780257099080232469e-02 1.363712201030814752e-01 2.348805776116140789e-02 3.686509723858779480e-02 4.772322674068635306e-02 -4.624129417808611753e-03 2.940545217599961625e-02 -9.400596710515839172e-02 8.952401970392181996e-02 -6.351391522131653866e-02 -6.281256964300692414e-02 6.053791448819163812e-02 2.306318292863826225e-01 -1.629354487848116637e-02 7.206993018456744893e-02 -1.176183120034100804e-01 -9.201670442483672607e-02 -3.323655046918833067e-02 -6.796763190750859662e-02 8.103433920771535570e-02 -2.077592422508453829e-01