
7 atoms
1 atom types
   0.0000000000    0.0000000000 xlo xhi
   0.0000000000    0.0000000000 ylo yhi
   0.0000000000    0.0000000000 zlo zhi
   0.0000000000    0.0000000000    0.0000000000 xy xz yz

Atoms # atomic

     1      1   11.5923000000   15.0807000000   14.0227000000
     2      1   16.4430000000   12.4497000000   15.7068000000
     3      1   18.3423000000   15.7172000000   15.1506000000
     4      1   13.5584000000   12.0449000000   13.0687000000
     5      1   12.7085000000   13.3109000000   16.4057000000
     6      1   12.1345000000   15.6921000000   11.1020000000
     7      1   15.0384000000   15.5218000000   14.3610000000
