
7 atoms
1 atom types
   0.0000000000    0.0000000000 xlo xhi
   0.0000000000    0.0000000000 ylo yhi
   0.0000000000    0.0000000000 zlo zhi
   0.0000000000    0.0000000000    0.0000000000 xy xz yz

Atoms # atomic

     1      1   11.8876000000    9.6138500000   11.7462000000
     2      1   11.5876000000   11.7472000000   13.4642000000
     3      1   14.2192000000   11.0297000000   11.6587000000
     4      1   11.7356000000   11.4641000000    9.7763900000
     5      1   12.7700000000   13.6273000000   11.4999000000
     6      1    9.3033100000   10.4907000000   11.5716000000
     7      1    9.8167300000   13.3472000000   11.6030000000
