
7 atoms
1 atom types
   0.0000000000    0.0000000000 xlo xhi
   0.0000000000    0.0000000000 ylo yhi
   0.0000000000    0.0000000000 zlo zhi
   0.0000000000    0.0000000000    0.0000000000 xy xz yz

Atoms # atomic

     1      1   13.2672000000   12.4318000000    8.8388900000
     2      1   10.6200000000    8.9677700000   12.0624000000
     3      1   12.5123000000   15.8741000000   10.8143000000
     4      1   10.1584000000   15.1675000000   12.8601000000
     5      1   12.6033000000   12.9883000000   15.1199000000
     6      1   12.3018000000    9.7047700000   15.5236000000
     7      1   12.8832000000    9.2119300000    9.1270000000
