
7 atoms
1 atom types
   0.0000000000    0.0000000000 xlo xhi
   0.0000000000    0.0000000000 ylo yhi
   0.0000000000    0.0000000000 zlo zhi
   0.0000000000    0.0000000000    0.0000000000 xy xz yz

Atoms # atomic

     1      1   12.7039000000   13.7666000000    9.9826100000
     2      1   10.9705000000   10.5523000000   10.6921000000
     3      1   13.4443000000   16.6754000000   12.1203000000
     4      1   12.9378000000   14.8164000000   14.3157000000
     5      1   12.2522000000    8.2768900000   13.0170000000
     6      1   13.9709000000   11.5699000000   12.3022000000
     7      1   10.7037000000   11.3259000000   14.5534000000
