
7 atoms
1 atom types
   0.0000000000    0.0000000000 xlo xhi
   0.0000000000    0.0000000000 ylo yhi
   0.0000000000    0.0000000000 zlo zhi
   0.0000000000    0.0000000000    0.0000000000 xy xz yz

Atoms # atomic

     1      1   13.2048000000   14.1459000000   10.3364000000
     2      1   16.3928000000   13.1815000000   12.3263000000
     3      1    8.2703000000   11.8765000000   12.7622000000
     4      1   11.2737000000   11.8990000000   12.9117000000
     5      1   14.4782000000   10.0226000000   12.7994000000
     6      1   13.2422000000   12.9756000000   15.7801000000
     7      1   13.4011000000   16.1620000000   13.3469000000
