
7 atoms
1 atom types
   0.0000000000    0.0000000000 xlo xhi
   0.0000000000    0.0000000000 ylo yhi
   0.0000000000    0.0000000000 zlo zhi
   0.0000000000    0.0000000000    0.0000000000 xy xz yz

Atoms # atomic

     1      1   11.9706000000   15.2327000000   10.9022000000
     2      1   14.4949000000   12.8088000000   12.1485000000
     3      1   12.3574000000    9.9981500000   12.5828000000
     4      1   14.2584000000   11.5001000000   15.2020000000
     5      1   14.3922000000   15.1520000000   14.1138000000
     6      1   11.4086000000   12.2781000000   10.5251000000
     7      1   10.5399000000   12.4521000000   13.9476000000
