
7 atoms
1 atom types
   0.0000000000    0.0000000000 xlo xhi
   0.0000000000    0.0000000000 ylo yhi
   0.0000000000    0.0000000000 zlo zhi
   0.0000000000    0.0000000000    0.0000000000 xy xz yz

Atoms # atomic

     1      1   12.2302000000   10.5062000000   14.2676000000
     2      1   10.2470000000   13.3075000000    9.6637400000
     3      1   13.6398000000    8.7975000000   10.9467000000
     4      1   13.1500000000   12.2065000000   11.7818000000
     5      1    9.4410600000   11.6558000000   12.8570000000
     6      1   11.7699000000   14.9160000000   12.5652000000
     7      1   10.8665000000    9.9550000000    9.2624000000
