
7 atoms
1 atom types
   0.0000000000    0.0000000000 xlo xhi
   0.0000000000    0.0000000000 ylo yhi
   0.0000000000    0.0000000000 zlo zhi
   0.0000000000    0.0000000000    0.0000000000 xy xz yz

Atoms # atomic

     1      1    9.8526800000   10.8523000000   14.7821000000
     2      1   16.4675000000   11.2959000000   12.4863000000
     3      1   13.5029000000   16.6521000000   15.4450000000
     4      1   15.6762000000   17.7575000000   13.4609000000
     5      1   16.9529000000   14.3211000000   12.0397000000
     6      1   13.1540000000   11.0089000000   13.4284000000
     7      1   10.6747000000   14.3931000000   14.6384000000
