
7 atoms
1 atom types
   0.0000000000    0.0000000000 xlo xhi
   0.0000000000    0.0000000000 ylo yhi
   0.0000000000    0.0000000000 zlo zhi
   0.0000000000    0.0000000000    0.0000000000 xy xz yz

Atoms # atomic

     1      1   12.9780000000    8.5734800000   13.5074000000
     2      1    8.5081500000   12.4840000000   14.5228000000
     3      1   15.2780000000   12.9179000000    9.6150000000
     4      1   11.6959000000   14.5590000000    9.4963700000
     5      1   14.8677000000   10.1417000000   10.9323000000
     6      1    9.1832200000   13.4679000000   10.8428000000
     7      1    9.4487700000    9.8157100000   13.0431000000
