
7 atoms
1 atom types
   0.0000000000    0.0000000000 xlo xhi
   0.0000000000    0.0000000000 ylo yhi
   0.0000000000    0.0000000000 zlo zhi
   0.0000000000    0.0000000000    0.0000000000 xy xz yz

Atoms # atomic

     1      1   15.2392000000   11.9897000000   13.3554000000
     2      1   13.7983000000   12.1779000000    9.7239900000
     3      1   15.1096000000   14.3088000000   15.6551000000
     4      1   11.7587000000   10.2749000000   12.9458000000
     5      1   12.5729000000   13.7983000000   12.8316000000
     6      1    9.1554000000   13.1685000000   13.4523000000
     7      1   10.4794000000   12.3952000000   10.1494000000
