
7 atoms
1 atom types
   0.0000000000    0.0000000000 xlo xhi
   0.0000000000    0.0000000000 ylo yhi
   0.0000000000    0.0000000000 zlo zhi
   0.0000000000    0.0000000000    0.0000000000 xy xz yz

Atoms # atomic

     1      1   12.9297000000   10.6640000000   14.6978000000
     2      1   11.8954000000   12.4466000000   11.8171000000
     3      1    9.0838400000   10.6840000000   10.6668000000
     4      1   13.7996000000   13.0742000000    9.4409000000
     5      1   10.3018000000    9.0462800000   13.4280000000
     6      1   14.4931000000   13.4937000000   13.9129000000
     7      1   13.0704000000   16.1649000000   11.6103000000
