
7 atoms
1 atom types
   0.0000000000    0.0000000000 xlo xhi
   0.0000000000    0.0000000000 ylo yhi
   0.0000000000    0.0000000000 zlo zhi
   0.0000000000    0.0000000000    0.0000000000 xy xz yz

Atoms # atomic

     1      1   11.1603000000   11.2618000000   14.4190000000
     2      1   13.7534000000   10.5931000000   10.6719000000
     3      1    9.0123100000   13.1217000000   12.9507000000
     4      1   11.1672000000   15.1590000000   11.9773000000
     5      1   13.1645000000   12.6037000000   12.6424000000
     6      1   15.6150000000   14.3765000000   12.0373000000
     7      1   15.7409000000   12.4980000000   14.9151000000
