
7 atoms
1 atom types
   0.0000000000    0.0000000000 xlo xhi
   0.0000000000    0.0000000000 ylo yhi
   0.0000000000    0.0000000000 zlo zhi
   0.0000000000    0.0000000000    0.0000000000 xy xz yz

Atoms # atomic

     1      1   11.8609000000   13.8528000000   14.2053000000
     2      1   14.6786000000   12.0149000000   12.3530000000
     3      1   14.0954000000   15.6171000000   12.1872000000
     4      1   11.8618000000   14.1303000000   10.5741000000
     5      1   11.1897000000   11.4257000000   12.0159000000
     6      1   15.0487000000   13.8635000000   15.1911000000
     7      1   13.0195000000   10.8503000000   15.2281000000
