
7 atoms
1 atom types
   0.0000000000    0.0000000000 xlo xhi
   0.0000000000    0.0000000000 ylo yhi
   0.0000000000    0.0000000000 zlo zhi
   0.0000000000    0.0000000000    0.0000000000 xy xz yz

Atoms # atomic

     1      1   14.5526000000   14.4286000000   12.9950000000
     2      1   13.5036000000   11.5444000000   14.6060000000
     3      1   12.8379000000   11.6374000000   10.9291000000
     4      1   13.1684000000   14.1803000000   16.0831000000
     5      1   11.2186000000   13.8989000000   13.6111000000
     6      1   12.1261000000   16.8891000000   14.5623000000
     7      1   16.9005000000   11.7291000000   11.5209000000
