
7 atoms
1 atom types
   0.0000000000    0.0000000000 xlo xhi
   0.0000000000    0.0000000000 ylo yhi
   0.0000000000    0.0000000000 zlo zhi
   0.0000000000    0.0000000000    0.0000000000 xy xz yz

Atoms # atomic

     1      1   14.7548000000   13.9604000000   14.7913000000
     2      1   10.1767000000   11.5649000000   12.5778000000
     3      1   13.0572000000   13.5294000000   11.2930000000
     4      1   12.9018000000   16.8467000000   13.7600000000
     5      1   16.4396000000   12.0791000000   12.1129000000
     6      1   13.1777000000   10.3430000000   12.6356000000
     7      1   11.5975000000   13.7818000000   14.9348000000
