
7 atoms
1 atom types
   0.0000000000    0.0000000000 xlo xhi
   0.0000000000    0.0000000000 ylo yhi
   0.0000000000    0.0000000000 zlo zhi
   0.0000000000    0.0000000000    0.0000000000 xy xz yz

Atoms # atomic

     1      1   10.7144000000   14.3451000000   11.7226000000
     2      1   10.8561000000   11.8303000000   15.0584000000
     3      1   10.0417000000   12.3668000000    9.4390700000
     4      1   14.2510000000   12.4969000000   10.6994000000
     5      1   14.8546000000   10.5766000000   13.1925000000
     6      1   13.3856000000   13.4901000000   13.6707000000
     7      1   11.5444000000   10.5420000000   11.8650000000
