
7 atoms
1 atom types
   0.0000000000    0.0000000000 xlo xhi
   0.0000000000    0.0000000000 ylo yhi
   0.0000000000    0.0000000000 zlo zhi
   0.0000000000    0.0000000000    0.0000000000 xy xz yz

Atoms # atomic

     1      1   14.5756000000   13.0288000000   10.3061000000
     2      1   12.7229000000   14.2286000000   12.7411000000
     3      1   14.8601000000   11.8252000000   13.3857000000
     4      1   12.1043000000   10.4299000000   12.0058000000
     5      1   11.4814000000   12.1851000000   15.1460000000
     6      1   11.3277000000   12.9303000000   10.1021000000
     7      1    9.2406900000   11.6848000000   12.6260000000
