
7 atoms
1 atom types
   0.0000000000    0.0000000000 xlo xhi
   0.0000000000    0.0000000000 ylo yhi
   0.0000000000    0.0000000000 zlo zhi
   0.0000000000    0.0000000000    0.0000000000 xy xz yz

Atoms # atomic

     1      1   14.8872000000   14.2703000000   10.8301000000
     2      1   12.3997000000   11.1663000000   11.3816000000
     3      1    9.4822600000   12.3363000000   13.1045000000
     4      1   11.5837000000   10.4084000000   14.6878000000
     5      1   12.7482000000   13.6546000000   14.0691000000
     6      1   15.5303000000   11.7278000000   12.6031000000
     7      1   11.7418000000   14.8095000000   11.6970000000
