
7 atoms
1 atom types
   0.0000000000    0.0000000000 xlo xhi
   0.0000000000    0.0000000000 ylo yhi
   0.0000000000    0.0000000000 zlo zhi
   0.0000000000    0.0000000000    0.0000000000 xy xz yz

Atoms # atomic

     1      1   11.1986000000   14.3225000000   10.8921000000
     2      1   15.1687000000   10.8266000000   13.4680000000
     3      1   14.6584000000   15.0920000000   12.3662000000
     4      1   12.4631000000   12.9735000000   14.2394000000
     5      1   12.9309000000   11.7703000000   10.4864000000
     6      1   11.6933000000    9.7192600000   12.7144000000
     7      1    8.9556100000   12.3645000000   12.9022000000
