
7 atoms
1 atom types
   0.0000000000    0.0000000000 xlo xhi
   0.0000000000    0.0000000000 ylo yhi
   0.0000000000    0.0000000000 zlo zhi
   0.0000000000    0.0000000000    0.0000000000 xy xz yz

Atoms # atomic

     1      1   14.6241000000   10.9852000000   10.5006000000
     2      1   14.0607000000   11.0401000000   13.7461000000
     3      1   11.4434000000    9.2012900000   13.7587000000
     4      1   13.4573000000   15.2189000000   11.3608000000
     5      1   11.7297000000   12.5147000000   11.7485000000
     6      1    9.2538900000   11.4797000000   13.2665000000
     7      1    9.6216000000   13.7506000000    9.8094800000
