
7 atoms
1 atom types
   0.0000000000    0.0000000000 xlo xhi
   0.0000000000    0.0000000000 ylo yhi
   0.0000000000    0.0000000000 zlo zhi
   0.0000000000    0.0000000000    0.0000000000 xy xz yz

Atoms # atomic

     1      1   11.9058000000   12.5754000000   11.4755000000
     2      1   14.9033000000   17.3546000000   14.0005000000
     3      1   12.0907000000   15.7765000000   13.2110000000
     4      1   12.8057000000   10.5179000000   13.5211000000
     5      1   10.8400000000   12.7221000000   14.8819000000
     6      1   14.4153000000   13.4550000000   14.0850000000
     7      1   15.9264000000   10.4856000000   11.7122000000
