
7 atoms
1 atom types
   0.0000000000    0.0000000000 xlo xhi
   0.0000000000    0.0000000000 ylo yhi
   0.0000000000    0.0000000000 zlo zhi
   0.0000000000    0.0000000000    0.0000000000 xy xz yz

Atoms # atomic

     1      1   11.4112000000   10.3818000000   13.0779000000
     2      1   14.1847000000   10.8623000000   15.4856000000
     3      1   14.5157000000   13.2018000000   12.4110000000
     4      1   15.0970000000   16.6887000000   11.3188000000
     5      1   14.9068000000   15.6088000000   14.6441000000
     6      1   11.4932000000   14.1310000000   12.0084000000
     7      1   12.4549000000   13.1889000000   15.1176000000
