
7 atoms
1 atom types
   0.0000000000    0.0000000000 xlo xhi
   0.0000000000    0.0000000000 ylo yhi
   0.0000000000    0.0000000000 zlo zhi
   0.0000000000    0.0000000000    0.0000000000 xy xz yz

Atoms # atomic

     1      1   10.3266000000   10.1793000000   10.2143000000
     2      1   13.9117000000   13.1637000000   14.8685000000
     3      1   14.8399000000   12.3360000000   10.9193000000
     4      1   12.4529000000   10.3320000000   12.8669000000
     5      1   14.5408000000   15.7755000000   12.2418000000
     6      1   11.2361000000   14.0676000000   12.2071000000
     7      1    9.9652900000   11.4192000000   13.9554000000
