
7 atoms
1 atom types
   0.0000000000    0.0000000000 xlo xhi
   0.0000000000    0.0000000000 ylo yhi
   0.0000000000    0.0000000000 zlo zhi
   0.0000000000    0.0000000000    0.0000000000 xy xz yz

Atoms # atomic

     1      1   12.9397000000   15.7925000000   11.4715000000
     2      1   12.2804000000   10.7578000000   14.6210000000
     3      1   15.2654000000   11.3993000000   14.8392000000
     4      1   13.5353000000   14.1386000000   14.5127000000
     5      1   10.3242000000   14.3237000000   13.6344000000
     6      1   16.0518000000   14.1301000000   12.3457000000
     7      1   12.6584000000   12.5132000000   11.6310000000
