
7 atoms
1 atom types
   0.0000000000    0.0000000000 xlo xhi
   0.0000000000    0.0000000000 ylo yhi
   0.0000000000    0.0000000000 zlo zhi
   0.0000000000    0.0000000000    0.0000000000 xy xz yz

Atoms # atomic

     1      1   14.4289000000   13.3631000000   10.8392000000
     2      1   16.2284000000   12.1526000000   13.5596000000
     3      1   14.2018000000   15.4595000000   13.4272000000
     4      1   14.9404000000   13.5093000000   16.2452000000
     5      1   11.4409000000   14.7519000000   15.4251000000
     6      1   11.0523000000   14.0479000000   11.9389000000
     7      1   12.9616000000   11.9701000000   13.8192000000
