
7 atoms
1 atom types
   0.0000000000    0.0000000000 xlo xhi
   0.0000000000    0.0000000000 ylo yhi
   0.0000000000    0.0000000000 zlo zhi
   0.0000000000    0.0000000000    0.0000000000 xy xz yz

Atoms # atomic

     1      1   11.2655000000   12.0587000000   11.7700000000
     2      1   14.8878000000   14.7203000000   12.1770000000
     3      1   14.7924000000   10.8915000000   12.6609000000
     4      1   16.6299000000   13.0018000000   15.0877000000
     5      1   13.6228000000   16.1658000000   15.1196000000
     6      1   12.9260000000   12.9638000000   14.7905000000
     7      1   10.8555000000   15.1779000000   13.3743000000
