
7 atoms
1 atom types
   0.0000000000    0.0000000000 xlo xhi
   0.0000000000    0.0000000000 ylo yhi
   0.0000000000    0.0000000000 zlo zhi
   0.0000000000    0.0000000000    0.0000000000 xy xz yz

Atoms # atomic

     1      1   12.4332000000   15.0697000000   12.5725000000
     2      1   13.6603000000   15.3940000000   15.6554000000
     3      1   15.7473000000   14.3783000000   11.8007000000
     4      1   10.3694000000   13.6657000000   14.8269000000
     5      1   12.5117000000   11.8419000000   12.5040000000
     6      1   15.0557000000   12.0491000000   14.6301000000
     7      1   17.4793000000   14.8583000000   15.2674000000
