
7 atoms
1 atom types
   0.0000000000    0.0000000000 xlo xhi
   0.0000000000    0.0000000000 ylo yhi
   0.0000000000    0.0000000000 zlo zhi
   0.0000000000    0.0000000000    0.0000000000 xy xz yz

Atoms # atomic

     1      1   12.7289000000   10.9578000000   14.6013000000
     2      1   16.5839000000   14.0352000000   11.9529000000
     3      1   11.1767000000   17.8472000000   14.2643000000
     4      1   11.2648000000   14.2380000000   15.3317000000
     5      1   14.9256000000   13.9893000000   14.7538000000
     6      1   12.9389000000   13.3417000000   11.6842000000
     7      1   15.4152000000   10.6246000000   12.4458000000
