
7 atoms
1 atom types
   0.0000000000    0.0000000000 xlo xhi
   0.0000000000    0.0000000000 ylo yhi
   0.0000000000    0.0000000000 zlo zhi
   0.0000000000    0.0000000000    0.0000000000 xy xz yz

Atoms # atomic

     1      1   14.0321000000   15.6828000000   13.4014000000
     2      1   13.7470000000    9.7773400000   12.6988000000
     3      1   12.9835000000   13.0598000000   11.0763000000
     4      1   10.5813000000   10.6661000000   12.0214000000
     5      1    9.9319500000   14.5613000000   12.1233000000
     6      1   15.8502000000   12.4212000000   13.6666000000
     7      1   12.0300000000   12.9875000000   14.1681000000
