
7 atoms
1 atom types
   0.0000000000    0.0000000000 xlo xhi
   0.0000000000    0.0000000000 ylo yhi
   0.0000000000    0.0000000000 zlo zhi
   0.0000000000    0.0000000000    0.0000000000 xy xz yz

Atoms # atomic

     1      1    9.7184700000   12.4022000000   14.0956000000
     2      1   13.6034000000   12.7716000000   13.8009000000
     3      1   11.5814000000   14.8840000000   12.7249000000
     4      1   14.2272000000   10.7652000000   10.5825000000
     5      1   11.8287000000    9.6895800000   13.5113000000
     6      1   14.1277000000   13.9328000000   10.7468000000
     7      1   11.3346000000   11.9760000000   10.9594000000
