
7 atoms
1 atom types
   0.0000000000    0.0000000000 xlo xhi
   0.0000000000    0.0000000000 ylo yhi
   0.0000000000    0.0000000000 zlo zhi
   0.0000000000    0.0000000000    0.0000000000 xy xz yz

Atoms # atomic

     1      1   12.8490000000   14.6334000000   13.7166000000
     2      1   14.0439000000   14.8743000000   10.6745000000
     3      1   15.9434000000   15.8219000000   14.0648000000
     4      1   14.1523000000   14.5012000000   16.6253000000
     5      1   11.9754000000   11.9093000000   11.6302000000
     6      1   11.4447000000   11.6975000000   14.8720000000
     7      1   14.9681000000   11.9392000000   13.7933000000
