
7 atoms
1 atom types
   0.0000000000    0.0000000000 xlo xhi
   0.0000000000    0.0000000000 ylo yhi
   0.0000000000    0.0000000000 zlo zhi
   0.0000000000    0.0000000000    0.0000000000 xy xz yz

Atoms # atomic

     1      1   11.9996000000   14.2978000000   13.7407000000
     2      1   15.3380000000   12.3752000000    8.7398500000
     3      1   13.4395000000    9.9753800000    8.4955500000
     4      1    8.9336700000   11.0470000000   13.1898000000
     5      1    9.7270700000    9.1947400000   10.7177000000
     6      1   14.6867000000   14.1986000000   12.1938000000
     7      1    9.7228700000   12.7586000000   16.7700000000
