
7 atoms
1 atom types
   0.0000000000    0.0000000000 xlo xhi
   0.0000000000    0.0000000000 ylo yhi
   0.0000000000    0.0000000000 zlo zhi
   0.0000000000    0.0000000000    0.0000000000 xy xz yz

Atoms # atomic

     1      1   10.2982000000   14.4788000000   11.7330000000
     2      1   12.1943000000   10.9421000000   12.3330000000
     3      1   12.9720000000   13.1611000000   10.0435000000
     4      1   14.6449000000   12.0597000000   15.1572000000
     5      1   13.2400000000   14.4188000000   13.3695000000
     6      1   15.8199000000   11.9012000000   12.1044000000
     7      1   10.8363000000   13.0437000000   15.2650000000
