
7 atoms
1 atom types
   0.0000000000    0.0000000000 xlo xhi
   0.0000000000    0.0000000000 ylo yhi
   0.0000000000    0.0000000000 zlo zhi
   0.0000000000    0.0000000000    0.0000000000 xy xz yz

Atoms # atomic

     1      1   16.0081000000   18.0233000000   15.0556000000
     2      1   16.4006000000   17.1810000000   17.4611000000
     3      1   16.9864000000   14.1487000000   19.2351000000
     4      1   14.5594000000   15.2185000000   11.8038000000
     5      1   17.0011000000   14.1923000000   14.0125000000
     6      1   14.6102000000   13.8055000000   16.6839000000
     7      1   13.4942000000   16.4909000000   14.8082000000
