
7 atoms
1 atom types
   0.0000000000    0.0000000000 xlo xhi
   0.0000000000    0.0000000000 ylo yhi
   0.0000000000    0.0000000000 zlo zhi
   0.0000000000    0.0000000000    0.0000000000 xy xz yz

Atoms # atomic

     1      1   17.4445000000   12.1986000000   12.9726000000
     2      1   14.6638000000   12.4645000000   13.4191000000
     3      1   16.0232000000   15.6830000000   12.2285000000
     4      1   12.0831000000   16.1873000000   16.9768000000
     5      1   11.6176000000   12.9905000000   15.2034000000
     6      1   12.7472000000   15.5600000000   13.2016000000
     7      1   14.9673000000   14.4628000000   15.5447000000
