
7 atoms
1 atom types
   0.0000000000    0.0000000000 xlo xhi
   0.0000000000    0.0000000000 ylo yhi
   0.0000000000    0.0000000000 zlo zhi
   0.0000000000    0.0000000000    0.0000000000 xy xz yz

Atoms # atomic

     1      1   12.7902000000   14.1942000000   11.4383000000
     2      1   14.3686000000   11.2212000000    9.8605900000
     3      1   13.0163000000   10.9268000000   13.1483000000
     4      1   15.2096000000   13.1399000000   14.3996000000
     5      1   11.6696000000   13.4775000000   14.7920000000
     6      1    8.9857800000   12.8676000000   12.7465000000
     7      1   10.6429000000   10.8558000000   10.2978000000
