
7 atoms
1 atom types
   0.0000000000    0.0000000000 xlo xhi
   0.0000000000    0.0000000000 ylo yhi
   0.0000000000    0.0000000000 zlo zhi
   0.0000000000    0.0000000000    0.0000000000 xy xz yz

Atoms # atomic

     1      1   12.3431000000   13.0919000000    9.5692700000
     2      1   12.9631000000   10.6178000000   12.4708000000
     3      1    9.9972700000   12.8929000000   11.6765000000
     4      1   10.6657000000   13.3361000000   15.4437000000
     5      1   15.3942000000   12.2019000000   10.0029000000
     6      1   13.4974000000   14.2218000000   13.2243000000
     7      1   13.6342000000   12.1326000000   16.1076000000
