
7 atoms
1 atom types
   0.0000000000    0.0000000000 xlo xhi
   0.0000000000    0.0000000000 ylo yhi
   0.0000000000    0.0000000000 zlo zhi
   0.0000000000    0.0000000000    0.0000000000 xy xz yz

Atoms # atomic

     1      1   10.7832000000   16.7166000000   14.9110000000
     2      1   13.3148000000   16.3073000000   13.1379000000
     3      1    9.4710500000   11.8877000000   12.4639000000
     4      1    8.5088800000   13.5330000000   14.8824000000
     5      1   16.4884000000   14.3502000000   12.5715000000
     6      1   17.0661000000   10.9615000000   14.4126000000
     7      1   18.2019000000   10.0781000000   11.4552000000
