
7 atoms
1 atom types
   0.0000000000    0.0000000000 xlo xhi
   0.0000000000    0.0000000000 ylo yhi
   0.0000000000    0.0000000000 zlo zhi
   0.0000000000    0.0000000000    0.0000000000 xy xz yz

Atoms # atomic

     1      1   15.9590000000   14.1575000000   11.1676000000
     2      1   12.5795000000   15.8820000000   11.0546000000
     3      1   10.9885000000   13.7206000000   13.7588000000
     4      1   14.3008000000   13.6709000000   14.0872000000
     5      1   10.6138000000    9.6710800000   13.5595000000
     6      1   12.6084000000   11.9775000000   11.4854000000
     7      1   13.0553000000   11.0258000000   14.9923000000
