
7 atoms
1 atom types
   0.0000000000    0.0000000000 xlo xhi
   0.0000000000    0.0000000000 ylo yhi
   0.0000000000    0.0000000000 zlo zhi
   0.0000000000    0.0000000000    0.0000000000 xy xz yz

Atoms # atomic

     1      1   10.3754000000   10.4699000000    9.8937900000
     2      1   11.9739000000   13.2325000000   15.1078000000
     3      1   11.3848000000   13.3020000000   11.7752000000
     4      1   12.5412000000   10.3094000000   13.8129000000
     5      1   13.4399000000   11.7576000000   10.5025000000
     6      1   13.5874000000   16.1866000000   13.4364000000
     7      1   14.8097000000   12.8544000000   13.5837000000
