
7 atoms
1 atom types
   0.0000000000    0.0000000000 xlo xhi
   0.0000000000    0.0000000000 ylo yhi
   0.0000000000    0.0000000000 zlo zhi
   0.0000000000    0.0000000000    0.0000000000 xy xz yz

Atoms # atomic

     1      1   11.2528000000   11.3600000000   14.7969000000
     2      1   13.2334000000    8.8705100000   12.3686000000
     3      1   10.8834000000   11.2681000000   11.4032000000
     4      1   11.7271000000   14.3968000000   10.5891000000
     5      1   13.6809000000   11.8534000000    9.6805600000
     6      1   13.9659000000   12.9728000000   12.8041000000
     7      1    9.8691100000   13.8908000000   12.9699000000
