
7 atoms
1 atom types
   0.0000000000    0.0000000000 xlo xhi
   0.0000000000    0.0000000000 ylo yhi
   0.0000000000    0.0000000000 zlo zhi
   0.0000000000    0.0000000000    0.0000000000 xy xz yz

Atoms # atomic

     1      1   14.8994000000   14.6292000000    8.6643000000
     2      1   10.6253000000   16.6153000000   12.7670000000
     3      1   14.4207000000   11.8124000000    9.6231800000
     4      1   13.3751000000    9.8898400000   12.9611000000
     5      1   10.3791000000   10.8770000000   18.4570000000
     6      1   12.9380000000    9.3314500000   16.1708000000
     7      1   13.3827000000   16.8651000000   11.3770000000
