
7 atoms
1 atom types
   0.0000000000    0.0000000000 xlo xhi
   0.0000000000    0.0000000000 ylo yhi
   0.0000000000    0.0000000000 zlo zhi
   0.0000000000    0.0000000000    0.0000000000 xy xz yz

Atoms # atomic

     1      1   13.2542000000   11.4680000000   15.0902000000
     2      1   11.4973000000   13.2711000000   10.6841000000
     3      1   14.3042000000   14.3285000000   13.0803000000
     4      1   15.0785000000   12.2183000000    9.7538100000
     5      1   11.8124000000   14.0577000000   16.0742000000
     6      1   10.4218000000   13.7843000000   13.3428000000
     7      1   13.5439000000   10.7844000000   11.8870000000
