
7 atoms
1 atom types
   0.0000000000    0.0000000000 xlo xhi
   0.0000000000    0.0000000000 ylo yhi
   0.0000000000    0.0000000000 zlo zhi
   0.0000000000    0.0000000000    0.0000000000 xy xz yz

Atoms # atomic

     1      1   16.2840000000   16.3070000000   15.4100000000
     2      1   11.1414000000   11.7279000000   15.2470000000
     3      1   17.0227000000   13.3504000000   13.0797000000
     4      1   10.1727000000   13.4257000000   12.5040000000
     5      1   13.9000000000   10.9275000000   13.4655000000
     6      1   13.2900000000   15.3862000000   14.1590000000
     7      1   13.2591000000   13.9452000000   11.2045000000
