
7 atoms
1 atom types
   0.0000000000    0.0000000000 xlo xhi
   0.0000000000    0.0000000000 ylo yhi
   0.0000000000    0.0000000000 zlo zhi
   0.0000000000    0.0000000000    0.0000000000 xy xz yz

Atoms # atomic

     1      1   12.3194000000   12.8503000000   14.6340000000
     2      1   12.5513000000    9.1793100000   13.3268000000
     3      1   10.7923000000   12.1088000000    8.6207500000
     4      1    9.8484700000   11.3115000000   11.9443000000
     5      1   13.3618000000   12.5187000000   11.6615000000
     6      1   11.6365000000    8.8503600000    9.6874200000
     7      1   10.3103000000   14.0011000000   10.9452000000
