
7 atoms
1 atom types
   0.0000000000    0.0000000000 xlo xhi
   0.0000000000    0.0000000000 ylo yhi
   0.0000000000    0.0000000000 zlo zhi
   0.0000000000    0.0000000000    0.0000000000 xy xz yz

Atoms # atomic

     1      1   14.9597000000   11.8209000000   14.0830000000
     2      1   13.1156000000   13.2084000000   11.0672000000
     3      1   11.3023000000   13.7244000000   15.0261000000
     4      1   10.9889000000   11.0365000000   13.1055000000
     5      1   16.3447000000   14.4907000000   11.9139000000
     6      1   13.4589000000   15.4754000000   13.2674000000
     7      1   14.4651000000   14.8791000000   16.1722000000
