
7 atoms
1 atom types
   0.0000000000    0.0000000000 xlo xhi
   0.0000000000    0.0000000000 ylo yhi
   0.0000000000    0.0000000000 zlo zhi
   0.0000000000    0.0000000000    0.0000000000 xy xz yz

Atoms # atomic

     1      1   12.7767000000   12.9155000000    8.1758300000
     2      1   12.0040000000   11.3928000000   11.3341000000
     3      1   14.6299000000   13.8544000000   11.2813000000
     4      1   13.8254000000   11.4900000000   15.0380000000
     5      1   11.0183000000    9.1427800000   14.7829000000
     6      1   11.3795000000   15.2659000000   11.6522000000
     7      1   11.0731000000   12.6454000000   14.4425000000
