
7 atoms
1 atom types
   0.0000000000    0.0000000000 xlo xhi
   0.0000000000    0.0000000000 ylo yhi
   0.0000000000    0.0000000000 zlo zhi
   0.0000000000    0.0000000000    0.0000000000 xy xz yz

Atoms # atomic

     1      1    9.6426800000   11.6285000000   11.5998000000
     2      1    8.9826600000   14.8399000000   12.4814000000
     3      1   14.7334000000   12.8530000000   13.6392000000
     4      1   13.3087000000    9.7163000000   12.2979000000
     5      1   11.5388000000   11.9307000000   15.0256000000
     6      1   15.5442000000   12.1874000000   10.1605000000
     7      1   12.6218000000   13.2165000000   11.1679000000
