
7 atoms
1 atom types
   0.0000000000    0.0000000000 xlo xhi
   0.0000000000    0.0000000000 ylo yhi
   0.0000000000    0.0000000000 zlo zhi
   0.0000000000    0.0000000000    0.0000000000 xy xz yz

Atoms # atomic

     1      1   13.8586000000   12.4136000000   12.4163000000
     2      1   12.5484000000   10.8850000000   14.6507000000
     3      1   10.2583000000   11.5441000000   12.2508000000
     4      1   11.1656000000   14.7732000000   10.7255000000
     5      1   12.0448000000   14.3551000000   14.3098000000
     6      1   12.4636000000    9.1805100000   11.4364000000
     7      1   12.5235000000   11.7112000000    9.0733400000
