
7 atoms
1 atom types
   0.0000000000    0.0000000000 xlo xhi
   0.0000000000    0.0000000000 ylo yhi
   0.0000000000    0.0000000000 zlo zhi
   0.0000000000    0.0000000000    0.0000000000 xy xz yz

Atoms # atomic

     1      1   14.1663000000   12.4075000000   12.5824000000
     2      1   11.2674000000    8.6298400000   12.1839000000
     3      1   10.5949000000   12.1833000000   13.2084000000
     4      1   13.5402000000   11.1486000000    9.2529000000
     5      1    9.7283600000   10.4210000000    9.3209800000
     6      1   12.2874000000   14.6242000000   10.4271000000
     7      1    7.8869000000   10.0569000000   12.4958000000
