 Set GAUSS_MDEF to "14GB".
 Entering Gaussian System, Link 0=g16
 Initial command:
 /home/sekinelabo/g16/l1.exe "/home/sekinelabo/g16temp/Gau-471071.inp" -scrdir="/home/sekinelabo/g16temp/"
 Entering Link 1 = /home/sekinelabo/g16/l1.exe PID=    471073.
  
 Copyright (c) 1988-2017, Gaussian, Inc.  All Rights Reserved.
  
 This is part of the Gaussian(R) 16 program.  It is based on
 the Gaussian(R) 09 system (copyright 2009, Gaussian, Inc.),
 the Gaussian(R) 03 system (copyright 2003, Gaussian, Inc.),
 the Gaussian(R) 98 system (copyright 1998, Gaussian, Inc.),
 the Gaussian(R) 94 system (copyright 1995, Gaussian, Inc.),
 the Gaussian 92(TM) system (copyright 1992, Gaussian, Inc.),
 the Gaussian 90(TM) system (copyright 1990, Gaussian, Inc.),
 the Gaussian 88(TM) system (copyright 1988, Gaussian, Inc.),
 the Gaussian 86(TM) system (copyright 1986, Carnegie Mellon
 University), and the Gaussian 82(TM) system (copyright 1983,
 Carnegie Mellon University). Gaussian is a federally registered
 trademark of Gaussian, Inc.
  
 This software contains proprietary and confidential information,
 including trade secrets, belonging to Gaussian, Inc.
  
 This software is provided under written license and may be
 used, copied, transmitted, or stored only in accord with that
 written license.
  
 The following legend is applicable only to US Government
 contracts under FAR:
  
                    RESTRICTED RIGHTS LEGEND
  
 Use, reproduction and disclosure by the US Government is
 subject to restrictions as set forth in subparagraphs (a)
 and (c) of the Commercial Computer Software - Restricted
 Rights clause in FAR 52.227-19.
  
 Gaussian, Inc.
 340 Quinnipiac St., Bldg. 40, Wallingford CT 06492
  
  
 ---------------------------------------------------------------
 Warning -- This program may not be used in any manner that
 competes with the business of Gaussian, Inc. or will provide
 assistance to any competitor of Gaussian, Inc.  The licensee
 of this program is prohibited from giving any competitor of
 Gaussian, Inc. access to this program.  By using this program,
 the user acknowledges that Gaussian, Inc. is engaged in the
 business of creating and licensing software in the field of
 computational chemistry and represents and warrants to the
 licensee that it is not a competitor of Gaussian, Inc. and that
 it will not use this program in any manner prohibited above.
 ---------------------------------------------------------------
  

 Cite this work as:
 Gaussian 16, Revision B.01,
 M. J. Frisch, G. W. Trucks, H. B. Schlegel, G. E. Scuseria, 
 M. A. Robb, J. R. Cheeseman, G. Scalmani, V. Barone, 
 G. A. Petersson, H. Nakatsuji, X. Li, M. Caricato, A. V. Marenich, 
 J. Bloino, B. G. Janesko, R. Gomperts, B. Mennucci, H. P. Hratchian, 
 J. V. Ortiz, A. F. Izmaylov, J. L. Sonnenberg, D. Williams-Young, 
 F. Ding, F. Lipparini, F. Egidi, J. Goings, B. Peng, A. Petrone, 
 T. Henderson, D. Ranasinghe, V. G. Zakrzewski, J. Gao, N. Rega, 
 G. Zheng, W. Liang, M. Hada, M. Ehara, K. Toyota, R. Fukuda, 
 J. Hasegawa, M. Ishida, T. Nakajima, Y. Honda, O. Kitao, H. Nakai, 
 T. Vreven, K. Throssell, J. A. Montgomery, Jr., J. E. Peralta, 
 F. Ogliaro, M. J. Bearpark, J. J. Heyd, E. N. Brothers, K. N. Kudin, 
 V. N. Staroverov, T. A. Keith, R. Kobayashi, J. Normand, 
 K. Raghavachari, A. P. Rendell, J. C. Burant, S. S. Iyengar, 
 J. Tomasi, M. Cossi, J. M. Millam, M. Klene, C. Adamo, R. Cammi, 
 J. W. Ochterski, R. L. Martin, K. Morokuma, O. Farkas, 
 J. B. Foresman, and D. J. Fox, Gaussian, Inc., Wallingford CT, 2016.
 
 ******************************************
 Gaussian 16:  ES64L-G16RevB.01 20-Dec-2017
                 5-Dec-2023 
 ******************************************
 %nproc=15
 Will use up to   15 processors via shared memory.
 -------------------------
 #P B3LYP/6-311+g(d) force
 -------------------------
 1/10=7,30=1,38=1/1,3;
 2/12=2,17=6,18=5,40=1/2;
 3/5=4,6=6,7=11,11=2,25=1,30=1,71=1,74=-5/1,2,3;
 4//1;
 5/5=2,38=5/2;
 6/7=2,8=2,9=2,10=2,28=1/1;
 7/29=1/1,2,3,16;
 1/10=7,30=1/3;
 99//99;
 Leave Link    1 at Tue Dec  5 22:09:02 2023, MaxMem=           0 cpu:               0.3 elap:               0.0
 (Enter /home/sekinelabo/g16/l101.exe)
 -----
 DPGEN
 -----
 Symbolic Z-matrix:
 Charge =  0 Multiplicity = 2
 Na                    12.3706   14.9659   15.3846 
 Na                    12.7369   12.3802   12.6644 
 Na                    11.7582   11.8363   15.9037 
 Na                    13.7319   15.6446   11.8582 
 Na                    10.8579   14.5935   10.0473 
 Na                    14.2539   9.6752    13.9559 
 Na                    16.2931   12.9069   12.1885 
 
 ITRead=  0  0  0  0  0  0  0
 MicOpt= -1 -1 -1 -1 -1 -1 -1
 NAtoms=      7 NQM=        7 NQMF=       0 NMMI=      0 NMMIF=      0
                NMic=       0 NMicF=      0.
                    Isotopes and Nuclear Properties:
 (Nuclear quadrupole moments (NQMom) in fm**2, nuclear magnetic moments (NMagM)
  in nuclear magnetons)

  Atom         1           2           3           4           5           6           7
 IAtWgt=          23          23          23          23          23          23          23
 AtmWgt=  22.9897697  22.9897697  22.9897697  22.9897697  22.9897697  22.9897697  22.9897697
 NucSpn=           3           3           3           3           3           3           3
 AtZEff=  -0.0000000  -0.0000000  -0.0000000  -0.0000000  -0.0000000  -0.0000000  -0.0000000
 NQMom=   10.4000000  10.4000000  10.4000000  10.4000000  10.4000000  10.4000000  10.4000000
 NMagM=    2.2175200   2.2175200   2.2175200   2.2175200   2.2175200   2.2175200   2.2175200
 AtZNuc=  11.0000000  11.0000000  11.0000000  11.0000000  11.0000000  11.0000000  11.0000000
 Leave Link  101 at Tue Dec  5 22:09:03 2023, MaxMem=  1879048192 cpu:               2.4 elap:               0.2
 (Enter /home/sekinelabo/g16/l103.exe)

 GradGradGradGradGradGradGradGradGradGradGradGradGradGradGradGradGradGrad
 Berny optimization.
 Initialization pass.
 Trust Radius=3.00D-01 FncErr=1.00D-07 GrdErr=1.00D-07 EigMax=2.50D+02 EigMin=1.00D-04
 Number of steps in this run=      2 maximum allowed number of steps=      2.
 GradGradGradGradGradGradGradGradGradGradGradGradGradGradGradGradGradGrad

 Leave Link  103 at Tue Dec  5 22:09:03 2023, MaxMem=  1879048192 cpu:               0.2 elap:               0.0
 (Enter /home/sekinelabo/g16/l202.exe)
                          Input orientation:                          
 ---------------------------------------------------------------------
 Center     Atomic      Atomic             Coordinates (Angstroms)
 Number     Number       Type             X           Y           Z
 ---------------------------------------------------------------------
      1         11           0       12.370600   14.965900   15.384600
      2         11           0       12.736900   12.380200   12.664400
      3         11           0       11.758200   11.836300   15.903700
      4         11           0       13.731900   15.644600   11.858200
      5         11           0       10.857900   14.593500   10.047300
      6         11           0       14.253900    9.675200   13.955900
      7         11           0       16.293100   12.906900   12.188500
 ---------------------------------------------------------------------
                    Distance matrix (angstroms):
                    1          2          3          4          5
     1  Na   0.000000
     2  Na   3.770876   0.000000
     3  Na   3.230928   3.427353   0.000000
     4  Na   3.840478   3.506607   5.896161   0.000000
     5  Na   5.560010   3.908779   6.535297   3.555847   0.000000
     6  Na   5.794783   3.359507   3.833118   6.348745   7.141404
     7  Na   5.462650   3.626355   5.959380   3.763488   6.080358
                    6          7
     6  Na   0.000000
     7  Na   4.210217   0.000000
 Stoichiometry    Na7(2)
 Framework group  C1[X(Na7)]
 Deg. of freedom    15
 Full point group                 C1      NOp   1
 Largest Abelian subgroup         C1      NOp   1
 Largest concise Abelian subgroup C1      NOp   1
                         Standard orientation:                         
 ---------------------------------------------------------------------
 Center     Atomic      Atomic             Coordinates (Angstroms)
 Number     Number       Type             X           Y           Z
 ---------------------------------------------------------------------
      1         11           0        0.046618   -2.407844   -1.772830
      2         11           0       -0.165112    0.185490    0.956510
      3         11           0       -2.457039   -2.267051    0.264516
      4         11           0        2.543636    0.463375   -1.252959
      5         11           0        3.542796   -0.390741    2.051010
      6         11           0       -3.300296    1.388978    1.048841
      7         11           0       -0.210603    3.027793   -1.295089
 ---------------------------------------------------------------------
 Rotational constants (GHZ):           0.6259779           0.4513367           0.3760305
 Leave Link  202 at Tue Dec  5 22:09:03 2023, MaxMem=  1879048192 cpu:               0.0 elap:               0.0
 (Enter /home/sekinelabo/g16/l301.exe)
 Standard basis: 6-311+G(d) (5D, 7F)
 Ernie: Thresh=  0.10000D-02 Tol=  0.10000D-05 Strict=F.
 There are   217 symmetry adapted cartesian basis functions of A   symmetry.
 There are   210 symmetry adapted basis functions of A   symmetry.
   210 basis functions,   350 primitive gaussians,   217 cartesian basis functions
    39 alpha electrons       38 beta electrons
       nuclear repulsion energy       305.7155983572 Hartrees.
 IExCor=  402 DFT=T Ex+Corr=B3LYP ExCW=0 ScaHFX=  0.200000
 ScaDFX=  0.800000  0.720000  1.000000  0.810000 ScalE2=  1.000000  1.000000
 IRadAn=      5 IRanWt=     -1 IRanGd=            0 ICorTp=0 IEmpDi=  4
 NAtoms=    7 NActive=    7 NUniq=    7 SFac= 1.00D+00 NAtFMM=   60 NAOKFM=F Big=F
 Integral buffers will be    131072 words long.
 Raffenetti 2 integral format.
 Two-electron integral symmetry is turned on.
 Leave Link  301 at Tue Dec  5 22:09:03 2023, MaxMem=  1879048192 cpu:               0.5 elap:               0.0
 (Enter /home/sekinelabo/g16/l302.exe)
 NPDir=0 NMtPBC=     1 NCelOv=     1 NCel=       1 NClECP=     1 NCelD=      1
         NCelK=      1 NCelE2=     1 NClLst=     1 CellRange=     0.0.
 One-electron integrals computed using PRISM.
 One-electron integral symmetry used in STVInt
 NBasis=   210 RedAO= T EigKep=  5.10D-06  NBF=   210
 NBsUse=   210 1.00D-06 EigRej= -1.00D+00 NBFU=   210
 Precomputing XC quadrature grid using
 IXCGrd= 4 IRadAn=           5 IRanWt=          -1 IRanGd=           0 AccXCQ= 0.00D+00.
 Generated NRdTot=       0 NPtTot=           0 NUsed=           0 NTot=          32
 NSgBfM=   211   211   211   211   211 MxSgAt=     7 MxSgA2=     7.
 Leave Link  302 at Tue Dec  5 22:09:03 2023, MaxMem=  1879048192 cpu:               2.0 elap:               0.1
 (Enter /home/sekinelabo/g16/l303.exe)
 DipDrv:  MaxL=1.
 Leave Link  303 at Tue Dec  5 22:09:03 2023, MaxMem=  1879048192 cpu:               0.5 elap:               0.0
 (Enter /home/sekinelabo/g16/l401.exe)
 ExpMin= 7.60D-03 ExpMax= 3.62D+04 ExpMxC= 1.21D+03 IAcc=3 IRadAn=         5 AccDes= 0.00D+00
 Harris functional with IExCor=  402 and IRadAn=       5 diagonalized for initial guess.
 HarFok:  IExCor=  402 AccDes= 0.00D+00 IRadAn=         5 IDoV= 1 UseB2=F ITyADJ=14
 ICtDFT=  3500011 ScaDFX=  1.000000  1.000000  1.000000  1.000000
 FoFCou: FMM=F IPFlag=           0 FMFlag=      100000 FMFlg1=           0
         NFxFlg=           0 DoJE=T BraDBF=F KetDBF=T FulRan=T
         wScrn=  0.000000 ICntrl=       500 IOpCl=  0 I1Cent=   200000004 NGrid=           0
         NMat0=    1 NMatS0=      1 NMatT0=    0 NMatD0=    1 NMtDS0=    0 NMtDT0=    0
 Petite list used in FoFCou.
 Harris En= -1135.89523705369    
 JPrj=0 DoOrth=F DoCkMO=F.
 Initial guess <Sx>= 0.0000 <Sy>= 0.0000 <Sz>= 0.5000 <S**2>= 0.7500 S= 0.5000
 Leave Link  401 at Tue Dec  5 22:09:03 2023, MaxMem=  1879048192 cpu:               4.3 elap:               0.3
 (Enter /home/sekinelabo/g16/l502.exe)
 Keep R1 and R2 ints in memory in canonical form, NReq=506573321.
 FoFCou: FMM=F IPFlag=           0 FMFlag=           0 FMFlg1=           0
         NFxFlg=           0 DoJE=F BraDBF=F KetDBF=F FulRan=T
         wScrn=  0.000000 ICntrl=       600 IOpCl=  0 I1Cent=           0 NGrid=           0
         NMat0=    1 NMatS0=  22155 NMatT0=    0 NMatD0=    1 NMtDS0=    0 NMtDT0=    0
 Symmetry not used in FoFCou.
 Two-electron integral symmetry not used.
 UHF open shell SCF:
 Using DIIS extrapolation, IDIIS=  1040.
 NGot=  1879048192 LenX=  1388082579 LenY=  1388035049
 Requested convergence on RMS density matrix=1.00D-08 within 128 cycles.
 Requested convergence on MAX density matrix=1.00D-06.
 Requested convergence on             energy=1.00D-06.
 No special actions if energy rises.

 Cycle   1  Pass 1  IDiag  1:
 E= -1136.09115175853    
 DIIS: error= 1.02D-02 at cycle   1 NSaved=   1.
 NSaved= 1 IEnMin= 1 EnMin= -1136.09115175853     IErMin= 1 ErrMin= 1.02D-02
 ErrMax= 1.02D-02  0.00D+00 EMaxC= 1.00D-01 BMatC= 1.89D-01 BMatP= 1.89D-01
 IDIUse=3 WtCom= 8.98D-01 WtEn= 1.02D-01
 Coeff-Com:  0.100D+01
 Coeff-En:   0.100D+01
 Coeff:      0.100D+01
 Gap=     0.056 Goal=   None    Shift=    0.000
 Gap=     0.028 Goal=   None    Shift=    0.000
 GapD=    0.028 DampG=0.250 DampE=0.500 DampFc=0.2500 IDamp=-1.
 Damping current iteration by 2.50D-01
 RMSDP=2.30D-02 MaxDP=2.10D+00              OVMax= 2.22D-01

 Cycle   2  Pass 1  IDiag  1:
 E= -1136.10274704957     Delta-E=       -0.011595291040 Rises=F Damp=T
 DIIS: error= 7.15D-03 at cycle   2 NSaved=   2.
 NSaved= 2 IEnMin= 2 EnMin= -1136.10274704957     IErMin= 2 ErrMin= 7.15D-03
 ErrMax= 7.15D-03  0.00D+00 EMaxC= 1.00D-01 BMatC= 7.20D-02 BMatP= 1.89D-01
 IDIUse=3 WtCom= 9.28D-01 WtEn= 7.15D-02
 Coeff-Com: -0.126D+01 0.226D+01
 Coeff-En:   0.000D+00 0.100D+01
 Coeff:     -0.117D+01 0.217D+01
 Gap=     0.059 Goal=   None    Shift=    0.000
 Gap=     0.041 Goal=   None    Shift=    0.000
 RMSDP=1.23D-02 MaxDP=1.11D+00 DE=-1.16D-02 OVMax= 1.78D-01

 Cycle   3  Pass 1  IDiag  1:
 E= -1136.12285731726     Delta-E=       -0.020110267694 Rises=F Damp=F
 DIIS: error= 2.68D-03 at cycle   3 NSaved=   3.
 NSaved= 3 IEnMin= 3 EnMin= -1136.12285731726     IErMin= 3 ErrMin= 2.68D-03
 ErrMax= 2.68D-03  0.00D+00 EMaxC= 1.00D-01 BMatC= 2.14D-03 BMatP= 7.20D-02
 IDIUse=3 WtCom= 9.73D-01 WtEn= 2.68D-02
 Coeff-Com: -0.180D+00 0.316D+00 0.864D+00
 Coeff-En:   0.000D+00 0.000D+00 0.100D+01
 Coeff:     -0.175D+00 0.307D+00 0.868D+00
 Gap=     0.056 Goal=   None    Shift=    0.000
 Gap=     0.035 Goal=   None    Shift=    0.000
 RMSDP=3.73D-03 MaxDP=3.36D-01 DE=-2.01D-02 OVMax= 7.65D-02

 Cycle   4  Pass 1  IDiag  1:
 E= -1136.12287526953     Delta-E=       -0.000017952265 Rises=F Damp=F
 DIIS: error= 2.74D-03 at cycle   4 NSaved=   4.
 NSaved= 4 IEnMin= 4 EnMin= -1136.12287526953     IErMin= 3 ErrMin= 2.68D-03
 ErrMax= 2.74D-03  0.00D+00 EMaxC= 1.00D-01 BMatC= 2.17D-03 BMatP= 2.14D-03
 IDIUse=3 WtCom= 9.73D-01 WtEn= 2.74D-02
 Coeff-Com: -0.587D-02 0.716D-02 0.502D+00 0.497D+00
 Coeff-En:   0.000D+00 0.000D+00 0.498D+00 0.502D+00
 Coeff:     -0.571D-02 0.696D-02 0.502D+00 0.497D+00
 Gap=     0.055 Goal=   None    Shift=    0.000
 Gap=     0.038 Goal=   None    Shift=    0.000
 RMSDP=1.45D-03 MaxDP=1.23D-01 DE=-1.80D-05 OVMax= 4.65D-02

 Cycle   5  Pass 1  IDiag  1:
 E= -1136.12485878676     Delta-E=       -0.001983517229 Rises=F Damp=F
 DIIS: error= 2.40D-04 at cycle   5 NSaved=   5.
 NSaved= 5 IEnMin= 5 EnMin= -1136.12485878676     IErMin= 5 ErrMin= 2.40D-04
 ErrMax= 2.40D-04  0.00D+00 EMaxC= 1.00D-01 BMatC= 2.09D-05 BMatP= 2.14D-03
 IDIUse=3 WtCom= 9.98D-01 WtEn= 2.40D-03
 Coeff-Com: -0.372D-02 0.410D-02 0.208D+00 0.215D+00 0.577D+00
 Coeff-En:   0.000D+00 0.000D+00 0.000D+00 0.000D+00 0.100D+01
 Coeff:     -0.371D-02 0.409D-02 0.207D+00 0.214D+00 0.578D+00
 Gap=     0.055 Goal=   None    Shift=    0.000
 Gap=     0.038 Goal=   None    Shift=    0.000
 RMSDP=2.40D-04 MaxDP=1.63D-02 DE=-1.98D-03 OVMax= 1.06D-02

 Cycle   6  Pass 1  IDiag  1:
 E= -1136.12488556911     Delta-E=       -0.000026782352 Rises=F Damp=F
 DIIS: error= 2.12D-04 at cycle   6 NSaved=   6.
 NSaved= 6 IEnMin= 6 EnMin= -1136.12488556911     IErMin= 6 ErrMin= 2.12D-04
 ErrMax= 2.12D-04  0.00D+00 EMaxC= 1.00D-01 BMatC= 1.05D-05 BMatP= 2.09D-05
 IDIUse=3 WtCom= 9.98D-01 WtEn= 2.12D-03
 Coeff-Com: -0.149D-02 0.167D-02-0.100D+00-0.902D-01 0.430D+00 0.761D+00
 Coeff-En:   0.000D+00 0.000D+00 0.000D+00 0.000D+00 0.195D+00 0.805D+00
 Coeff:     -0.148D-02 0.166D-02-0.100D+00-0.900D-01 0.429D+00 0.761D+00
 Gap=     0.055 Goal=   None    Shift=    0.000
 Gap=     0.038 Goal=   None    Shift=    0.000
 RMSDP=2.77D-04 MaxDP=1.84D-02 DE=-2.68D-05 OVMax= 9.04D-03

 Cycle   7  Pass 1  IDiag  1:
 E= -1136.12491080008     Delta-E=       -0.000025230972 Rises=F Damp=F
 DIIS: error= 5.47D-05 at cycle   7 NSaved=   7.
 NSaved= 7 IEnMin= 7 EnMin= -1136.12491080008     IErMin= 7 ErrMin= 5.47D-05
 ErrMax= 5.47D-05  0.00D+00 EMaxC= 1.00D-01 BMatC= 7.35D-07 BMatP= 1.05D-05
 IDIUse=1 WtCom= 1.00D+00 WtEn= 0.00D+00
 Coeff-Com:  0.102D-02-0.128D-02-0.481D-01-0.453D-01-0.384D-01 0.962D-01
 Coeff-Com:  0.104D+01
 Coeff:      0.102D-02-0.128D-02-0.481D-01-0.453D-01-0.384D-01 0.962D-01
 Coeff:      0.104D+01
 Gap=     0.055 Goal=   None    Shift=    0.000
 Gap=     0.038 Goal=   None    Shift=    0.000
 RMSDP=1.16D-04 MaxDP=6.75D-03 DE=-2.52D-05 OVMax= 4.04D-03

 Cycle   8  Pass 1  IDiag  1:
 E= -1136.12491465255     Delta-E=       -0.000003852470 Rises=F Damp=F
 DIIS: error= 4.46D-05 at cycle   8 NSaved=   8.
 NSaved= 8 IEnMin= 8 EnMin= -1136.12491465255     IErMin= 8 ErrMin= 4.46D-05
 ErrMax= 4.46D-05  0.00D+00 EMaxC= 1.00D-01 BMatC= 5.44D-07 BMatP= 7.35D-07
 IDIUse=1 WtCom= 1.00D+00 WtEn= 0.00D+00
 Coeff-Com:  0.142D-02-0.176D-02-0.582D-02-0.714D-02-0.131D+00-0.118D+00
 Coeff-Com:  0.660D+00 0.602D+00
 Coeff:      0.142D-02-0.176D-02-0.582D-02-0.714D-02-0.131D+00-0.118D+00
 Coeff:      0.660D+00 0.602D+00
 Gap=     0.055 Goal=   None    Shift=    0.000
 Gap=     0.039 Goal=   None    Shift=    0.000
 RMSDP=4.81D-05 MaxDP=2.02D-03 DE=-3.85D-06 OVMax= 2.30D-03

 Cycle   9  Pass 1  IDiag  1:
 E= -1136.12491601529     Delta-E=       -0.000001362735 Rises=F Damp=F
 DIIS: error= 2.43D-05 at cycle   9 NSaved=   9.
 NSaved= 9 IEnMin= 9 EnMin= -1136.12491601529     IErMin= 9 ErrMin= 2.43D-05
 ErrMax= 2.43D-05  0.00D+00 EMaxC= 1.00D-01 BMatC= 8.28D-08 BMatP= 5.44D-07
 IDIUse=1 WtCom= 1.00D+00 WtEn= 0.00D+00
 Coeff-Com:  0.567D-03-0.712D-03 0.116D-01 0.883D-02-0.485D-01-0.730D-01
 Coeff-Com: -0.878D-02 0.247D+00 0.863D+00
 Coeff:      0.567D-03-0.712D-03 0.116D-01 0.883D-02-0.485D-01-0.730D-01
 Coeff:     -0.878D-02 0.247D+00 0.863D+00
 Gap=     0.055 Goal=   None    Shift=    0.000
 Gap=     0.039 Goal=   None    Shift=    0.000
 RMSDP=2.78D-05 MaxDP=1.31D-03 DE=-1.36D-06 OVMax= 1.31D-03

 Cycle  10  Pass 1  IDiag  1:
 E= -1136.12491639478     Delta-E=       -0.000000379495 Rises=F Damp=F
 DIIS: error= 1.13D-05 at cycle  10 NSaved=  10.
 NSaved=10 IEnMin=10 EnMin= -1136.12491639478     IErMin=10 ErrMin= 1.13D-05
 ErrMax= 1.13D-05  0.00D+00 EMaxC= 1.00D-01 BMatC= 2.24D-08 BMatP= 8.28D-08
 IDIUse=1 WtCom= 1.00D+00 WtEn= 0.00D+00
 Coeff-Com: -0.151D-03 0.194D-03 0.504D-02 0.400D-02 0.864D-02 0.407D-03
 Coeff-Com: -0.134D+00-0.439D-01 0.325D+00 0.835D+00
 Coeff:     -0.151D-03 0.194D-03 0.504D-02 0.400D-02 0.864D-02 0.407D-03
 Coeff:     -0.134D+00-0.439D-01 0.325D+00 0.835D+00
 Gap=     0.055 Goal=   None    Shift=    0.000
 Gap=     0.039 Goal=   None    Shift=    0.000
 RMSDP=1.42D-05 MaxDP=6.83D-04 DE=-3.79D-07 OVMax= 6.81D-04

 Cycle  11  Pass 1  IDiag  1:
 E= -1136.12491650357     Delta-E=       -0.000000108785 Rises=F Damp=F
 DIIS: error= 6.09D-06 at cycle  11 NSaved=  11.
 NSaved=11 IEnMin=11 EnMin= -1136.12491650357     IErMin=11 ErrMin= 6.09D-06
 ErrMax= 6.09D-06  0.00D+00 EMaxC= 1.00D-01 BMatC= 7.75D-09 BMatP= 2.24D-08
 IDIUse=1 WtCom= 1.00D+00 WtEn= 0.00D+00
 Coeff-Com: -0.362D-03 0.463D-03-0.143D-02-0.788D-03 0.196D-01 0.255D-01
 Coeff-Com: -0.500D-01-0.125D+00-0.223D+00 0.397D+00 0.958D+00
 Coeff:     -0.362D-03 0.463D-03-0.143D-02-0.788D-03 0.196D-01 0.255D-01
 Coeff:     -0.500D-01-0.125D+00-0.223D+00 0.397D+00 0.958D+00
 Gap=     0.055 Goal=   None    Shift=    0.000
 Gap=     0.039 Goal=   None    Shift=    0.000
 RMSDP=1.09D-05 MaxDP=4.36D-04 DE=-1.09D-07 OVMax= 5.82D-04

 Cycle  12  Pass 1  IDiag  1:
 E= -1136.12491655635     Delta-E=       -0.000000052783 Rises=F Damp=F
 DIIS: error= 1.77D-06 at cycle  12 NSaved=  12.
 NSaved=12 IEnMin=12 EnMin= -1136.12491655635     IErMin=12 ErrMin= 1.77D-06
 ErrMax= 1.77D-06  0.00D+00 EMaxC= 1.00D-01 BMatC= 1.40D-09 BMatP= 7.75D-09
 IDIUse=1 WtCom= 1.00D+00 WtEn= 0.00D+00
 Coeff-Com:  0.531D-04-0.741D-04-0.961D-03-0.578D-03-0.359D-02-0.209D-03
 Coeff-Com:  0.337D-01 0.625D-02-0.802D-01-0.218D+00 0.143D+00 0.112D+01
 Coeff:      0.531D-04-0.741D-04-0.961D-03-0.578D-03-0.359D-02-0.209D-03
 Coeff:      0.337D-01 0.625D-02-0.802D-01-0.218D+00 0.143D+00 0.112D+01
 Gap=     0.055 Goal=   None    Shift=    0.000
 Gap=     0.039 Goal=   None    Shift=    0.000
 RMSDP=5.39D-06 MaxDP=4.05D-04 DE=-5.28D-08 OVMax= 2.86D-04

 Cycle  13  Pass 1  IDiag  1:
 E= -1136.12491656734     Delta-E=       -0.000000010988 Rises=F Damp=F
 DIIS: error= 1.17D-06 at cycle  13 NSaved=  13.
 NSaved=13 IEnMin=13 EnMin= -1136.12491656734     IErMin=13 ErrMin= 1.17D-06
 ErrMax= 1.17D-06  0.00D+00 EMaxC= 1.00D-01 BMatC= 2.76D-10 BMatP= 1.40D-09
 IDIUse=1 WtCom= 1.00D+00 WtEn= 0.00D+00
 Coeff-Com:  0.934D-04-0.121D-03-0.122D-04-0.598D-04-0.505D-02-0.452D-02
 Coeff-Com:  0.205D-01 0.216D-01 0.214D-01-0.134D+00-0.128D+00 0.228D+00
 Coeff-Com:  0.980D+00
 Coeff:      0.934D-04-0.121D-03-0.122D-04-0.598D-04-0.505D-02-0.452D-02
 Coeff:      0.205D-01 0.216D-01 0.214D-01-0.134D+00-0.128D+00 0.228D+00
 Coeff:      0.980D+00
 Gap=     0.055 Goal=   None    Shift=    0.000
 Gap=     0.039 Goal=   None    Shift=    0.000
 RMSDP=1.94D-06 MaxDP=9.56D-05 DE=-1.10D-08 OVMax= 1.27D-04

 Cycle  14  Pass 1  IDiag  1:
 E= -1136.12491656968     Delta-E=       -0.000000002343 Rises=F Damp=F
 DIIS: error= 6.81D-07 at cycle  14 NSaved=  14.
 NSaved=14 IEnMin=14 EnMin= -1136.12491656968     IErMin=14 ErrMin= 6.81D-07
 ErrMax= 6.81D-07  0.00D+00 EMaxC= 1.00D-01 BMatC= 7.73D-11 BMatP= 2.76D-10
 IDIUse=1 WtCom= 1.00D+00 WtEn= 0.00D+00
 Coeff-Com: -0.500D-05 0.838D-05 0.158D-03 0.338D-04 0.489D-03 0.451D-04
 Coeff-Com: -0.641D-02-0.186D-02 0.291D-01 0.476D-01-0.613D-01-0.326D+00
 Coeff-Com:  0.154D+00 0.116D+01
 Coeff:     -0.500D-05 0.838D-05 0.158D-03 0.338D-04 0.489D-03 0.451D-04
 Coeff:     -0.641D-02-0.186D-02 0.291D-01 0.476D-01-0.613D-01-0.326D+00
 Coeff:      0.154D+00 0.116D+01
 Gap=     0.055 Goal=   None    Shift=    0.000
 Gap=     0.039 Goal=   None    Shift=    0.000
 RMSDP=1.12D-06 MaxDP=6.27D-05 DE=-2.34D-09 OVMax= 9.38D-05

 Cycle  15  Pass 1  IDiag  1:
 E= -1136.12491657048     Delta-E=       -0.000000000804 Rises=F Damp=F
 DIIS: error= 3.63D-07 at cycle  15 NSaved=  15.
 NSaved=15 IEnMin=15 EnMin= -1136.12491657048     IErMin=15 ErrMin= 3.63D-07
 ErrMax= 3.63D-07  0.00D+00 EMaxC= 1.00D-01 BMatC= 1.60D-11 BMatP= 7.73D-11
 IDIUse=1 WtCom= 1.00D+00 WtEn= 0.00D+00
 Coeff-Com: -0.241D-04 0.316D-04 0.367D-04 0.375D-04 0.110D-02 0.115D-02
 Coeff-Com: -0.523D-02-0.585D-02-0.682D-03 0.272D-01 0.335D-01-0.729D-01
 Coeff-Com: -0.183D+00 0.518D-02 0.120D+01
 Coeff:     -0.241D-04 0.316D-04 0.367D-04 0.375D-04 0.110D-02 0.115D-02
 Coeff:     -0.523D-02-0.585D-02-0.682D-03 0.272D-01 0.335D-01-0.729D-01
 Coeff:     -0.183D+00 0.518D-02 0.120D+01
 Gap=     0.055 Goal=   None    Shift=    0.000
 Gap=     0.039 Goal=   None    Shift=    0.000
 RMSDP=5.31D-07 MaxDP=2.40D-05 DE=-8.04D-10 OVMax= 4.58D-05

 Cycle  16  Pass 1  IDiag  1:
 E= -1136.12491657064     Delta-E=       -0.000000000159 Rises=F Damp=F
 DIIS: error= 1.52D-07 at cycle  16 NSaved=  16.
 NSaved=16 IEnMin=16 EnMin= -1136.12491657064     IErMin=16 ErrMin= 1.52D-07
 ErrMax= 1.52D-07  0.00D+00 EMaxC= 1.00D-01 BMatC= 3.47D-12 BMatP= 1.60D-11
 IDIUse=1 WtCom= 1.00D+00 WtEn= 0.00D+00
 Coeff-Com: -0.381D-06 0.966D-07-0.311D-04 0.601D-05-0.996D-04 0.182D-03
 Coeff-Com:  0.105D-02-0.469D-04-0.619D-02-0.107D-01 0.147D-01 0.770D-01
 Coeff-Com: -0.486D-01-0.247D+00-0.242D-01 0.124D+01
 Coeff:     -0.381D-06 0.966D-07-0.311D-04 0.601D-05-0.996D-04 0.182D-03
 Coeff:      0.105D-02-0.469D-04-0.619D-02-0.107D-01 0.147D-01 0.770D-01
 Coeff:     -0.486D-01-0.247D+00-0.242D-01 0.124D+01
 Gap=     0.055 Goal=   None    Shift=    0.000
 Gap=     0.039 Goal=   None    Shift=    0.000
 RMSDP=2.86D-07 MaxDP=1.24D-05 DE=-1.59D-10 OVMax= 2.38D-05

 Cycle  17  Pass 1  IDiag  1:
 E= -1136.12491657069     Delta-E=       -0.000000000051 Rises=F Damp=F
 DIIS: error= 4.69D-08 at cycle  17 NSaved=  17.
 NSaved=17 IEnMin=17 EnMin= -1136.12491657069     IErMin=17 ErrMin= 4.69D-08
 ErrMax= 4.69D-08  0.00D+00 EMaxC= 1.00D-01 BMatC= 7.34D-13 BMatP= 3.47D-12
 IDIUse=1 WtCom= 1.00D+00 WtEn= 0.00D+00
 Coeff-Com:  0.492D-05-0.643D-05-0.959D-05-0.865D-05-0.165D-03-0.145D-03
 Coeff-Com:  0.668D-03 0.877D-03 0.155D-02-0.232D-02-0.126D-01 0.546D-02
 Coeff-Com:  0.514D-01 0.256D-01-0.260D+00-0.110D+00 0.130D+01
 Coeff:      0.492D-05-0.643D-05-0.959D-05-0.865D-05-0.165D-03-0.145D-03
 Coeff:      0.668D-03 0.877D-03 0.155D-02-0.232D-02-0.126D-01 0.546D-02
 Coeff:      0.514D-01 0.256D-01-0.260D+00-0.110D+00 0.130D+01
 Gap=     0.055 Goal=   None    Shift=    0.000
 Gap=     0.039 Goal=   None    Shift=    0.000
 RMSDP=1.46D-07 MaxDP=1.06D-05 DE=-5.12D-11 OVMax= 1.10D-05

 Cycle  18  Pass 1  IDiag  1:
 E= -1136.12491657069     Delta-E=        0.000000000004 Rises=F Damp=F
 DIIS: error= 1.88D-08 at cycle  18 NSaved=  18.
 NSaved=18 IEnMin=17 EnMin= -1136.12491657069     IErMin=18 ErrMin= 1.88D-08
 ErrMax= 1.88D-08  0.00D+00 EMaxC= 1.00D-01 BMatC= 1.14D-13 BMatP= 7.34D-13
 IDIUse=1 WtCom= 1.00D+00 WtEn= 0.00D+00
 Coeff-Com:  0.186D-06-0.154D-06 0.431D-05-0.121D-05-0.423D-05-0.110D-04
 Coeff-Com: -0.144D-03 0.501D-05 0.115D-02 0.101D-02-0.279D-02-0.904D-02
 Coeff-Com:  0.992D-02 0.276D-01 0.706D-02-0.221D+00 0.655D-01 0.112D+01
 Coeff:      0.186D-06-0.154D-06 0.431D-05-0.121D-05-0.423D-05-0.110D-04
 Coeff:     -0.144D-03 0.501D-05 0.115D-02 0.101D-02-0.279D-02-0.904D-02
 Coeff:      0.992D-02 0.276D-01 0.706D-02-0.221D+00 0.655D-01 0.112D+01
 Gap=     0.055 Goal=   None    Shift=    0.000
 Gap=     0.039 Goal=   None    Shift=    0.000
 RMSDP=5.43D-08 MaxDP=2.71D-06 DE= 3.87D-12 OVMax= 4.03D-06

 Cycle  19  Pass 1  IDiag  1:
 E= -1136.12491657069     Delta-E=       -0.000000000003 Rises=F Damp=F
 DIIS: error= 7.57D-09 at cycle  19 NSaved=  19.
 NSaved=19 IEnMin=17 EnMin= -1136.12491657069     IErMin=19 ErrMin= 7.57D-09
 ErrMax= 7.57D-09  0.00D+00 EMaxC= 1.00D-01 BMatC= 2.70D-14 BMatP= 1.14D-13
 IDIUse=1 WtCom= 1.00D+00 WtEn= 0.00D+00
 Coeff-Com: -0.115D-05 0.152D-05 0.331D-05 0.272D-05 0.395D-04 0.446D-04
 Coeff-Com: -0.243D-03-0.198D-03 0.847D-04 0.102D-02 0.129D-02-0.281D-02
 Coeff-Com: -0.102D-01 0.327D-02 0.531D-01-0.117D-01-0.259D+00 0.144D+00
 Coeff-Com:  0.108D+01
 Coeff:     -0.115D-05 0.152D-05 0.331D-05 0.272D-05 0.395D-04 0.446D-04
 Coeff:     -0.243D-03-0.198D-03 0.847D-04 0.102D-02 0.129D-02-0.281D-02
 Coeff:     -0.102D-01 0.327D-02 0.531D-01-0.117D-01-0.259D+00 0.144D+00
 Coeff:      0.108D+01
 Gap=     0.055 Goal=   None    Shift=    0.000
 Gap=     0.039 Goal=   None    Shift=    0.000
 RMSDP=2.59D-08 MaxDP=1.50D-06 DE=-2.96D-12 OVMax= 1.50D-06

 Cycle  20  Pass 1  IDiag  1:
 E= -1136.12491657070     Delta-E=       -0.000000000013 Rises=F Damp=F
 DIIS: error= 1.69D-09 at cycle  20 NSaved=  20.
 NSaved=20 IEnMin=20 EnMin= -1136.12491657070     IErMin=20 ErrMin= 1.69D-09
 ErrMax= 1.69D-09  0.00D+00 EMaxC= 1.00D-01 BMatC= 2.34D-15 BMatP= 2.70D-14
 IDIUse=1 WtCom= 1.00D+00 WtEn= 0.00D+00
 Large coefficients: NSaved= 20 BigCof=    0.00 CofMax=   10.00 Det=-7.06D-15
 Inversion failed.  Reducing to 19 matrices.
 Large coefficients: NSaved= 19 BigCof=    0.00 CofMax=   10.00 Det=-9.01D-15
 Inversion failed.  Reducing to 18 matrices.
 Large coefficients: NSaved= 18 BigCof=    0.00 CofMax=   10.00 Det=-9.11D-15
 Inversion failed.  Reducing to 17 matrices.
 Large coefficients: NSaved= 17 BigCof=    0.00 CofMax=   10.00 Det=-9.35D-15
 Inversion failed.  Reducing to 16 matrices.
 Large coefficients: NSaved= 16 BigCof=    0.00 CofMax=   10.00 Det=-9.41D-15
 Inversion failed.  Reducing to 15 matrices.
 Coeff-Com: -0.841D-06-0.606D-06 0.127D-04 0.143D-04 0.357D-04-0.167D-03
 Coeff-Com:  0.177D-03-0.883D-03 0.396D-03 0.249D-02 0.891D-02-0.158D-01
 Coeff-Com: -0.106D+00 0.116D+00 0.994D+00
 Coeff:     -0.841D-06-0.606D-06 0.127D-04 0.143D-04 0.357D-04-0.167D-03
 Coeff:      0.177D-03-0.883D-03 0.396D-03 0.249D-02 0.891D-02-0.158D-01
 Coeff:     -0.106D+00 0.116D+00 0.994D+00
 Gap=     0.055 Goal=   None    Shift=    0.000
 Gap=     0.039 Goal=   None    Shift=    0.000
 RMSDP=7.94D-09 MaxDP=4.75D-07 DE=-1.30D-11 OVMax= 3.24D-07

 SCF Done:  E(UB3LYP) =  -1136.12491657     A.U. after   20 cycles
            NFock= 20  Conv=0.79D-08     -V/T= 2.0029
 <Sx>= 0.0000 <Sy>= 0.0000 <Sz>= 0.5000 <S**2>= 0.7819 S= 0.5158
 <L.S>= 0.000000000000E+00
 KE= 1.132829477979D+03 PE=-3.340691219397D+03 EE= 7.660212264905D+02
 Annihilation of the first spin contaminant:
 S**2 before annihilation     0.7819,   after     0.7506
 Leave Link  502 at Tue Dec  5 22:09:20 2023, MaxMem=  1879048192 cpu:             185.0 elap:              16.7
 (Enter /home/sekinelabo/g16/l601.exe)
 Copying SCF densities to generalized density rwf, IOpCl= 1 IROHF=0.

 **********************************************************************

            Population analysis using the SCF Density.

 **********************************************************************

 Orbital symmetries:
 Alpha Orbitals:
       Occupied  (A) (A) (A) (A) (A) (A) (A) (A) (A) (A) (A) (A)
                 (A) (A) (A) (A) (A) (A) (A) (A) (A) (A) (A) (A)
                 (A) (A) (A) (A) (A) (A) (A) (A) (A) (A) (A) (A)
                 (A) (A) (A)
       Virtual   (A) (A) (A) (A) (A) (A) (A) (A) (A) (A) (A) (A)
                 (A) (A) (A) (A) (A) (A) (A) (A) (A) (A) (A) (A)
                 (A) (A) (A) (A) (A) (A) (A) (A) (A) (A) (A) (A)
                 (A) (A) (A) (A) (A) (A) (A) (A) (A) (A) (A) (A)
                 (A) (A) (A) (A) (A) (A) (A) (A) (A) (A) (A) (A)
                 (A) (A) (A) (A) (A) (A) (A) (A) (A) (A) (A) (A)
                 (A) (A) (A) (A) (A) (A) (A) (A) (A) (A) (A) (A)
                 (A) (A) (A) (A) (A) (A) (A) (A) (A) (A) (A) (A)
                 (A) (A) (A) (A) (A) (A) (A) (A) (A) (A) (A) (A)
                 (A) (A) (A) (A) (A) (A) (A) (A) (A) (A) (A) (A)
                 (A) (A) (A) (A) (A) (A) (A) (A) (A) (A) (A) (A)
                 (A) (A) (A) (A) (A) (A) (A) (A) (A) (A) (A) (A)
                 (A) (A) (A) (A) (A) (A) (A) (A) (A) (A) (A) (A)
                 (A) (A) (A) (A) (A) (A) (A) (A) (A) (A) (A) (A)
                 (A) (A) (A)
 Beta  Orbitals:
       Occupied  (A) (A) (A) (A) (A) (A) (A) (A) (A) (A) (A) (A)
                 (A) (A) (A) (A) (A) (A) (A) (A) (A) (A) (A) (A)
                 (A) (A) (A) (A) (A) (A) (A) (A) (A) (A) (A) (A)
                 (A) (A)
       Virtual   (A) (A) (A) (A) (A) (A) (A) (A) (A) (A) (A) (A)
                 (A) (A) (A) (A) (A) (A) (A) (A) (A) (A) (A) (A)
                 (A) (A) (A) (A) (A) (A) (A) (A) (A) (A) (A) (A)
                 (A) (A) (A) (A) (A) (A) (A) (A) (A) (A) (A) (A)
                 (A) (A) (A) (A) (A) (A) (A) (A) (A) (A) (A) (A)
                 (A) (A) (A) (A) (A) (A) (A) (A) (A) (A) (A) (A)
                 (A) (A) (A) (A) (A) (A) (A) (A) (A) (A) (A) (A)
                 (A) (A) (A) (A) (A) (A) (A) (A) (A) (A) (A) (A)
                 (A) (A) (A) (A) (A) (A) (A) (A) (A) (A) (A) (A)
                 (A) (A) (A) (A) (A) (A) (A) (A) (A) (A) (A) (A)
                 (A) (A) (A) (A) (A) (A) (A) (A) (A) (A) (A) (A)
                 (A) (A) (A) (A) (A) (A) (A) (A) (A) (A) (A) (A)
                 (A) (A) (A) (A) (A) (A) (A) (A) (A) (A) (A) (A)
                 (A) (A) (A) (A) (A) (A) (A) (A) (A) (A) (A) (A)
                 (A) (A) (A) (A)
 The electronic state is 2-A.
 Alpha  occ. eigenvalues --  -38.44645 -38.44265 -38.44043 -38.43959 -38.43718
 Alpha  occ. eigenvalues --  -38.43578 -38.43536  -2.20442  -2.20040  -2.19828
 Alpha  occ. eigenvalues --   -2.19774  -2.19615  -2.19405  -2.19356  -1.14090
 Alpha  occ. eigenvalues --   -1.14080  -1.14048  -1.13709  -1.13694  -1.13658
 Alpha  occ. eigenvalues --   -1.13513  -1.13487  -1.13465  -1.13455  -1.13436
 Alpha  occ. eigenvalues --   -1.13416  -1.13330  -1.13278  -1.13238  -1.13111
 Alpha  occ. eigenvalues --   -1.13086  -1.13044  -1.13015  -1.12997  -1.12956
 Alpha  occ. eigenvalues --   -0.17202  -0.13320  -0.11930  -0.11243
 Alpha virt. eigenvalues --   -0.05709  -0.05593  -0.05054  -0.03217  -0.02844
 Alpha virt. eigenvalues --   -0.02563  -0.01961  -0.00984  -0.00862  -0.00322
 Alpha virt. eigenvalues --   -0.00192   0.00132   0.00242   0.00259   0.00769
 Alpha virt. eigenvalues --    0.00852   0.00918   0.01010   0.01062   0.01230
 Alpha virt. eigenvalues --    0.01309   0.01485   0.01538   0.01716   0.01910
 Alpha virt. eigenvalues --    0.02231   0.02319   0.02362   0.02522   0.02603
 Alpha virt. eigenvalues --    0.02616   0.02715   0.02872   0.02987   0.02989
 Alpha virt. eigenvalues --    0.03128   0.03193   0.03280   0.03499   0.03594
 Alpha virt. eigenvalues --    0.03725   0.04028   0.04046   0.04378   0.04493
 Alpha virt. eigenvalues --    0.04813   0.04997   0.05089   0.05314   0.05613
 Alpha virt. eigenvalues --    0.05847   0.06125   0.06825   0.06984   0.07060
 Alpha virt. eigenvalues --    0.07307   0.07659   0.07927   0.08378   0.08437
 Alpha virt. eigenvalues --    0.08837   0.09604   0.09956   0.10287   0.10802
 Alpha virt. eigenvalues --    0.11604   0.11970   0.12130   0.12606   0.12975
 Alpha virt. eigenvalues --    0.13007   0.13608   0.13643   0.13872   0.14378
 Alpha virt. eigenvalues --    0.14525   0.14887   0.15112   0.16545   0.17562
 Alpha virt. eigenvalues --    0.27264   0.27629   0.28439   0.28977   0.29865
 Alpha virt. eigenvalues --    0.29941   0.30353   0.31216   0.32728   0.33586
 Alpha virt. eigenvalues --    0.33834   0.34974   0.35513   0.36116   0.36944
 Alpha virt. eigenvalues --    0.37707   0.38689   0.38997   0.39550   0.40681
 Alpha virt. eigenvalues --    0.42151   0.42281   0.42779   0.43238   0.43739
 Alpha virt. eigenvalues --    0.43895   0.44262   0.44636   0.44711   0.45239
 Alpha virt. eigenvalues --    0.45355   0.45851   0.45978   0.46745   0.47162
 Alpha virt. eigenvalues --    0.47600   0.48478   0.48968   0.49417   0.49829
 Alpha virt. eigenvalues --    0.50277   0.50607   0.50746   0.51447   0.52972
 Alpha virt. eigenvalues --    0.54116   0.55276   0.55906   0.56650   0.58074
 Alpha virt. eigenvalues --    0.58576   0.58937   0.60227   0.63963   0.64347
 Alpha virt. eigenvalues --    0.66522   2.03610   2.09280   2.10237   2.12182
 Alpha virt. eigenvalues --    2.16990   2.18771   2.22006   4.43525   4.44443
 Alpha virt. eigenvalues --    4.44686   4.45234   4.45315   4.45593   4.46031
 Alpha virt. eigenvalues --    4.46092   4.46339   4.47105   4.47586   4.48098
 Alpha virt. eigenvalues --    4.48521   4.49229   4.49953   4.50226   4.51514
 Alpha virt. eigenvalues --    4.52284   4.53541   4.56565   4.59751  96.23244
 Alpha virt. eigenvalues --   96.29771  96.31070  96.33437  96.38860  96.41461
 Alpha virt. eigenvalues --   96.44851
  Beta  occ. eigenvalues --  -38.44552 -38.44221 -38.44033 -38.43951 -38.43709
  Beta  occ. eigenvalues --  -38.43586 -38.43502  -2.20267  -2.19958  -2.19809
  Beta  occ. eigenvalues --   -2.19765  -2.19601  -2.19421  -2.19292  -1.13968
  Beta  occ. eigenvalues --   -1.13961  -1.13935  -1.13653  -1.13639  -1.13599
  Beta  occ. eigenvalues --   -1.13498  -1.13475  -1.13462  -1.13442  -1.13424
  Beta  occ. eigenvalues --   -1.13381  -1.13296  -1.13274  -1.13233  -1.13110
  Beta  occ. eigenvalues --   -1.13096  -1.13046  -1.12969  -1.12957  -1.12925
  Beta  occ. eigenvalues --   -0.16710  -0.12783  -0.11655
  Beta virt. eigenvalues --   -0.07798  -0.05465  -0.05085  -0.04690  -0.02974
  Beta virt. eigenvalues --   -0.02547  -0.02033  -0.01687  -0.00923  -0.00509
  Beta virt. eigenvalues --   -0.00151  -0.00019   0.00279   0.00405   0.00480
  Beta virt. eigenvalues --    0.00854   0.00884   0.01000   0.01065   0.01119
  Beta virt. eigenvalues --    0.01257   0.01381   0.01585   0.01674   0.01786
  Beta virt. eigenvalues --    0.02038   0.02310   0.02384   0.02461   0.02594
  Beta virt. eigenvalues --    0.02649   0.02677   0.02787   0.02893   0.03002
  Beta virt. eigenvalues --    0.03054   0.03174   0.03250   0.03322   0.03559
  Beta virt. eigenvalues --    0.03662   0.03811   0.04074   0.04208   0.04457
  Beta virt. eigenvalues --    0.04565   0.04907   0.05027   0.05173   0.05414
  Beta virt. eigenvalues --    0.05729   0.05934   0.06163   0.06909   0.07065
  Beta virt. eigenvalues --    0.07194   0.07379   0.07774   0.08097   0.08468
  Beta virt. eigenvalues --    0.08710   0.08981   0.09773   0.10170   0.10586
  Beta virt. eigenvalues --    0.10960   0.11630   0.12224   0.12387   0.12780
  Beta virt. eigenvalues --    0.13067   0.13141   0.13669   0.13811   0.13965
  Beta virt. eigenvalues --    0.14576   0.14634   0.14987   0.15277   0.16763
  Beta virt. eigenvalues --    0.17656   0.27488   0.27883   0.28528   0.29332
  Beta virt. eigenvalues --    0.30037   0.30116   0.30616   0.31336   0.32964
  Beta virt. eigenvalues --    0.33929   0.34057   0.35272   0.36008   0.36702
  Beta virt. eigenvalues --    0.37432   0.38156   0.38936   0.39164   0.39877
  Beta virt. eigenvalues --    0.40973   0.42277   0.42489   0.43011   0.43423
  Beta virt. eigenvalues --    0.43857   0.44089   0.44347   0.44729   0.44923
  Beta virt. eigenvalues --    0.45373   0.45464   0.45939   0.46132   0.46872
  Beta virt. eigenvalues --    0.47259   0.47767   0.48557   0.49124   0.49515
  Beta virt. eigenvalues --    0.49965   0.50396   0.50681   0.50849   0.51538
  Beta virt. eigenvalues --    0.53185   0.54237   0.55387   0.56085   0.56673
  Beta virt. eigenvalues --    0.58114   0.58603   0.59133   0.60255   0.64033
  Beta virt. eigenvalues --    0.64284   0.66603   2.03725   2.09442   2.10528
  Beta virt. eigenvalues --    2.12259   2.17032   2.18841   2.22027   4.43544
  Beta virt. eigenvalues --    4.44544   4.44790   4.45274   4.45359   4.45655
  Beta virt. eigenvalues --    4.46027   4.46177   4.46367   4.47143   4.47606
  Beta virt. eigenvalues --    4.48163   4.48573   4.49273   4.49970   4.50293
  Beta virt. eigenvalues --    4.51533   4.52305   4.53540   4.56579   4.59761
  Beta virt. eigenvalues --   96.23282  96.29821  96.31170  96.33460  96.38879
  Beta virt. eigenvalues --   96.41484  96.44861
          Condensed to atoms (all electrons):
               1          2          3          4          5          6
     1  Na  10.845733   0.215976  -0.003430  -0.152605   0.030768   0.118598
     2  Na   0.215976  13.134592  -0.040940  -0.286180   0.365058  -1.199225
     3  Na  -0.003430  -0.040940  10.711998   0.145622   0.129799  -0.208685
     4  Na  -0.152605  -0.286180   0.145622  11.062822  -0.287860   0.055341
     5  Na   0.030768   0.365058   0.129799  -0.287860  11.504720  -1.153188
     6  Na   0.118598  -1.199225  -0.208685   0.055341  -1.153188  12.714356
     7  Na   0.050171   0.188877   0.087381   0.066450   0.113340  -0.142168
               7
     1  Na   0.050171
     2  Na   0.188877
     3  Na   0.087381
     4  Na   0.066450
     5  Na   0.113340
     6  Na  -0.142168
     7  Na  10.839584
          Atomic-Atomic Spin Densities.
               1          2          3          4          5          6
     1  Na   0.177535   0.012473  -0.053041   0.042279   0.018171  -0.040534
     2  Na   0.012473   0.152074  -0.013223  -0.018927   0.059835  -0.120829
     3  Na  -0.053041  -0.013223   0.060878  -0.001112   0.028081  -0.006974
     4  Na   0.042279  -0.018927  -0.001112   0.055768   0.113582  -0.203265
     5  Na   0.018171   0.059835   0.028081   0.113582   0.255969  -0.078426
     6  Na  -0.040534  -0.120829  -0.006974  -0.203265  -0.078426   0.511139
     7  Na   0.040540  -0.055782   0.032177   0.066737  -0.006937  -0.029976
               7
     1  Na   0.040540
     2  Na  -0.055782
     3  Na   0.032177
     4  Na   0.066737
     5  Na  -0.006937
     6  Na  -0.029976
     7  Na   0.216941
 Mulliken charges and spin densities:
               1          2
     1  Na  -0.105211   0.197422
     2  Na  -1.378157   0.015620
     3  Na   0.178256   0.046786
     4  Na   0.396411   0.055061
     5  Na   0.297363   0.390275
     6  Na   0.814972   0.031136
     7  Na  -0.203633   0.263700
 Sum of Mulliken charges =  -0.00000   1.00000
 Mulliken charges and spin densities with hydrogens summed into heavy atoms:
               1          2
     1  Na  -0.105211   0.197422
     2  Na  -1.378157   0.015620
     3  Na   0.178256   0.046786
     4  Na   0.396411   0.055061
     5  Na   0.297363   0.390275
     6  Na   0.814972   0.031136
     7  Na  -0.203633   0.263700
 Electronic spatial extent (au):  <R**2>=           2938.9496
 Charge=             -0.0000 electrons
 Dipole moment (field-independent basis, Debye):
    X=             -0.1065    Y=              0.2170    Z=             -0.1654  Tot=              0.2929
 Quadrupole moment (field-independent basis, Debye-Ang):
   XX=            -57.9247   YY=            -69.6631   ZZ=            -66.6070
   XY=             -1.0685   XZ=             -1.5971   YZ=             -2.6212
 Traceless Quadrupole moment (field-independent basis, Debye-Ang):
   XX=              6.8069   YY=             -4.9315   ZZ=             -1.8754
   XY=             -1.0685   XZ=             -1.5971   YZ=             -2.6212
 Octapole moment (field-independent basis, Debye-Ang**2):
  XXX=            -16.7792  YYY=             12.9030  ZZZ=             -2.5350  XYY=            -13.3028
  XXY=             -1.9905  XXZ=             16.6883  XZZ=             14.3042  YZZ=             -2.5617
  YYZ=            -12.5896  XYZ=             -1.6231
 Hexadecapole moment (field-independent basis, Debye-Ang**3):
 XXXX=          -2157.7287 YYYY=          -1646.3373 ZZZZ=          -1050.1908 XXXY=            -26.6870
 XXXZ=            -22.9828 YYYX=             10.2901 YYYZ=            -55.4757 ZZZX=             14.8334
 ZZZY=             -1.4562 XXYY=           -651.4085 XXZZ=           -520.3098 YYZZ=           -428.1189
 XXYZ=            -11.2113 YYXZ=            -21.6527 ZZXY=            -20.9643
 N-N= 3.057155983572D+02 E-N=-3.340691219673D+03  KE= 1.132829477979D+03
                          Isotropic Fermi Contact Couplings
        Atom                 a.u.       MegaHertz       Gauss      10(-4) cm-1
     1  Na(23)             0.15035     177.86305      63.46596      59.32873
     2  Na(23)             0.00915      10.82787       3.86365       3.61179
     3  Na(23)            -0.05159     -61.02698     -21.77594     -20.35641
     4  Na(23)            -0.02580     -30.52088     -10.89061     -10.18067
     5  Na(23)             0.40774     482.37141     172.12212     160.90178
     6  Na(23)             0.03979      47.07335      16.79694      15.70198
     7  Na(23)             0.18309     216.59790      77.28752      72.24928
 --------------------------------------------------------
       Center         ----  Spin Dipole Couplings  ----
                      3XX-RR        3YY-RR        3ZZ-RR
 --------------------------------------------------------
     1   Atom       -0.005218      0.006026     -0.000808
     2   Atom       -0.010794     -0.018251      0.029046
     3   Atom       -0.004996     -0.000521      0.005518
     4   Atom        0.004231     -0.012667      0.008436
     5   Atom        0.002657      0.002295     -0.004952
     6   Atom       -0.003031      0.002739      0.000292
     7   Atom        0.000432      0.001396     -0.001828
 --------------------------------------------------------
                        XY            XZ            YZ
 --------------------------------------------------------
     1   Atom       -0.000582      0.002482     -0.002760
     2   Atom        0.001732     -0.000318     -0.008510
     3   Atom       -0.002056     -0.006077      0.008936
     4   Atom       -0.009043      0.029899     -0.007623
     5   Atom        0.000482     -0.003794      0.002205
     6   Atom       -0.004225      0.002121     -0.003989
     7   Atom       -0.005786     -0.003259      0.005918
 --------------------------------------------------------


 ---------------------------------------------------------------------------------
              Anisotropic Spin Dipole Couplings in Principal Axis System
 ---------------------------------------------------------------------------------

       Atom             a.u.   MegaHertz   Gauss  10(-4) cm-1        Axes

              Baa    -0.0064    -0.899    -0.321    -0.300  0.9017 -0.0532 -0.4292
     1 Na(23) Bbb    -0.0008    -0.112    -0.040    -0.037  0.4168  0.3712  0.8297
              Bcc     0.0072     1.011     0.361     0.337 -0.1152  0.9270 -0.3569
 
              Baa    -0.0200    -2.829    -1.009    -0.944 -0.1762  0.9701  0.1671
     2 Na(23) Bbb    -0.0105    -1.484    -0.529    -0.495  0.9842  0.1710  0.0447
              Bcc     0.0305     4.313     1.539     1.439 -0.0148 -0.1723  0.9849
 
              Baa    -0.0087    -1.236    -0.441    -0.412  0.6815 -0.4535  0.5743
     3 Na(23) Bbb    -0.0052    -0.733    -0.261    -0.244  0.6626  0.7156 -0.2212
              Bcc     0.0139     1.968     0.702     0.656 -0.3107  0.5313  0.7882
 
              Baa    -0.0239    -3.370    -1.203    -1.124  0.7430  0.1570 -0.6507
     4 Na(23) Bbb    -0.0151    -2.134    -0.762    -0.712  0.0329  0.9624  0.2698
              Bcc     0.0390     5.504     1.964     1.836  0.6685 -0.2218  0.7098
 
              Baa    -0.0070    -0.996    -0.355    -0.332  0.3641 -0.2316  0.9021
     5 Na(23) Bbb     0.0027     0.385     0.137     0.128  0.3164  0.9417  0.1141
              Bcc     0.0043     0.611     0.218     0.204  0.8760 -0.2439 -0.4162
 
              Baa    -0.0053    -0.743    -0.265    -0.248  0.8850  0.4656 -0.0035
     6 Na(23) Bbb    -0.0025    -0.347    -0.124    -0.116 -0.2393  0.4614  0.8543
              Bcc     0.0077     1.090     0.389     0.364 -0.3994  0.7552 -0.5197
 
              Baa    -0.0066    -0.930    -0.332    -0.310  0.2486  0.6865 -0.6833
     7 Na(23) Bbb    -0.0037    -0.526    -0.188    -0.176  0.7934  0.2603  0.5503
              Bcc     0.0103     1.457     0.520     0.486 -0.5557  0.6789  0.4800
 

 ---------------------------------------------------------------------------------

 No NMR shielding tensors so no spin-rotation constants.
 Leave Link  601 at Tue Dec  5 22:09:20 2023, MaxMem=  1879048192 cpu:               2.3 elap:               0.2
 (Enter /home/sekinelabo/g16/l701.exe)
 ... and contract with generalized density number  0.
 Compute integral first derivatives.
 Leave Link  701 at Tue Dec  5 22:09:20 2023, MaxMem=  1879048192 cpu:               1.5 elap:               0.1
 (Enter /home/sekinelabo/g16/l702.exe)
 L702 exits ... SP integral derivatives will be done elsewhere.
 Leave Link  702 at Tue Dec  5 22:09:20 2023, MaxMem=  1879048192 cpu:               0.5 elap:               0.0
 (Enter /home/sekinelabo/g16/l703.exe)
 Integral derivatives from FoFJK, PRISM(SPDF).
 Compute integral first derivatives, UseDBF=F ICtDFT=           0.
 Calling FoFJK, ICntrl=      2127 FMM=F ISym2X=0 I1Cent= 0 IOpClX= 1 NMat=1 NMatS=1 NMatT=0.
 FoFJK:  IHMeth= 1 ICntrl=    2127 DoSepK=F KAlg= 0 I1Cent=           0 FoldK=F
 IRaf=         0 NMat=       1 IRICut=       1 DoRegI=T DoRafI=F ISym2E= 0 IDoP0=0 IntGTp=1.
 FoFCou: FMM=F IPFlag=           0 FMFlag=      100000 FMFlg1=         800
         NFxFlg=           0 DoJE=F BraDBF=F KetDBF=F FulRan=T
         wScrn=  0.000000 ICntrl=      2127 IOpCl=  1 I1Cent=           0 NGrid=           0
         NMat0=    1 NMatS0=      1 NMatT0=    0 NMatD0=    1 NMtDS0=    0 NMtDT0=    0
 Symmetry not used in FoFCou.
 Leave Link  703 at Tue Dec  5 22:09:23 2023, MaxMem=  1879048192 cpu:              31.5 elap:               2.1
 (Enter /home/sekinelabo/g16/l716.exe)
 Dipole        =-4.18905018D-02 8.53815259D-02-6.50913553D-02
 ***** Axes restored to original set *****
 -------------------------------------------------------------------
 Center     Atomic                   Forces (Hartrees/Bohr)
 Number     Number              X              Y              Z
 -------------------------------------------------------------------
      1       11          -0.000310817    0.000589568   -0.001692559
      2       11           0.000965726    0.001823899   -0.000626091
      3       11           0.000466369   -0.001413727    0.000105200
      4       11          -0.000163941   -0.001993412    0.000274339
      5       11           0.001858490   -0.000315839    0.002019235
      6       11           0.000749825    0.002853660   -0.000925512
      7       11          -0.003565651   -0.001544150    0.000845389
 -------------------------------------------------------------------
 Cartesian Forces:  Max     0.003565651 RMS     0.001500308
 Z-matrix is all fixed cartesians, so copy forces.
 Force constants in Cartesian coordinates: 
                1             2             3             4             5 
      1  0.326773D-01
      2 -0.549131D-03  0.609958D-01
      3 -0.753247D-02  0.593403D-02  0.495797D-01
      4 -0.159784D-01  0.263421D-02 -0.208002D-02  0.131417D+00
      5 -0.144907D-02 -0.196527D-01 -0.443052D-02  0.279253D-03  0.130115D+00
      6 -0.630487D-02 -0.258717D-02 -0.178535D-01  0.948160D-02  0.918145D-02
      7 -0.112885D-01  0.110834D-02  0.997260D-02 -0.230767D-01  0.168088D-02
      8 -0.923534D-02 -0.294290D-01  0.119463D-01  0.299424D-02 -0.225944D-01
      9  0.698316D-02 -0.107126D-01 -0.182450D-01  0.708564D-02  0.600335D-02
     10 -0.109446D-01 -0.455897D-02  0.714096D-04 -0.249248D-01 -0.610320D-02
     11  0.328126D-02 -0.133101D-01 -0.100713D-01 -0.355732D-02 -0.291363D-01
     12  0.509462D-02  0.122494D-01 -0.147140D-01 -0.293108D-02 -0.636985D-02
     13  0.320502D-02  0.706146D-03  0.113814D-02 -0.182722D-01 -0.391968D-02
     14 -0.606663D-03  0.260954D-02 -0.189007D-02  0.822906D-02 -0.208632D-01
     15 -0.586798D-02  0.485292D-03 -0.382823D-02  0.244743D-02 -0.924155D-02
     16  0.339213D-02 -0.516786D-03 -0.141443D-02 -0.287356D-01  0.399073D-02
     17  0.553151D-02 -0.267706D-02 -0.117787D-02 -0.125598D-02 -0.227993D-01
     18  0.819233D-03 -0.276497D-02  0.466824D-02 -0.768874D-02  0.473266D-02
     19 -0.106294D-02  0.117619D-02 -0.155225D-03 -0.204292D-01  0.552109D-02
     20  0.302743D-02  0.146345D-02 -0.310626D-03 -0.932346D-02 -0.150691D-01
     21  0.680831D-02 -0.260398D-02  0.392804D-03 -0.631483D-02  0.124459D-03
                6             7             8             9            10 
      6  0.137668D+00
      7 -0.685779D-02  0.375590D-01
      8 -0.577419D-02  0.135540D-02  0.551691D-01
      9 -0.294734D-01 -0.193601D-01 -0.644347D-02  0.507086D-01
     10  0.422333D-03  0.215166D-02 -0.133879D-02  0.769890D-03  0.541582D-01
     11  0.270821D-02 -0.191179D-02  0.294583D-02  0.533610D-02  0.791796D-02
     12 -0.211088D-01  0.159165D-02  0.566015D-02  0.260726D-02  0.271414D-02
     13  0.630155D-02  0.366300D-02 -0.170407D-02  0.818910D-03 -0.165039D-01
     14  0.349715D-02 -0.328153D-03  0.137272D-02  0.135630D-03 -0.129323D-01
     15 -0.187849D-01 -0.296522D-02  0.239225D-02 -0.494040D-03 -0.162185D-03
     16 -0.157881D-02 -0.979923D-02  0.789150D-02  0.346016D-02  0.533729D-02
     17 -0.998344D-02 -0.131259D-02 -0.783621D-02  0.580026D-02  0.304385D-02
     18 -0.315953D-01  0.120853D-01 -0.843151D-02 -0.688295D-02  0.356674D-04
     19 -0.146401D-02  0.790708D-03  0.370587D-04  0.242302D-03 -0.927394D-02
     20  0.295799D-02 -0.592081D-03  0.371908D-03 -0.119276D-03  0.139715D-01
     21 -0.188526D-01  0.553353D-02  0.650428D-03  0.177944D-02 -0.385125D-02
               11            12            13            14            15 
     11  0.714277D-01
     12 -0.488472D-02  0.467090D-01
     13  0.134071D-02 -0.839434D-02  0.282047D-01
     14 -0.146777D-01 -0.818294D-02  0.154149D-02  0.242906D-01
     15  0.412391D-02 -0.869165D-02  0.586106D-02  0.664293D-03  0.253865D-01
     16 -0.129754D-02  0.134277D-02  0.188140D-02  0.153723D-02 -0.507384D-04
     17 -0.527813D-03  0.161963D-02  0.610237D-03  0.275401D-02  0.189096D-02
     18  0.428173D-03  0.178970D-02 -0.931777D-03  0.396254D-02  0.402014D-02
     19 -0.577329D-02  0.582241D-03 -0.217800D-02  0.255933D-02  0.737637D-03
     20 -0.167217D-01 -0.916520D-04  0.142517D-02  0.451393D-02 -0.315150D-03
     21  0.235963D-02 -0.659144D-02 -0.479355D-02  0.181339D-02  0.239217D-02
               16            17            18            19            20 
     16  0.269372D-01
     17 -0.707366D-02  0.327951D-01
     18 -0.411709D-02  0.329279D-03  0.275840D-01
     19  0.986720D-03  0.456644D-03 -0.202579D-03  0.311666D-01
     20 -0.453148D-02 -0.170872D-02  0.174383D-02 -0.397703D-02  0.271502D-01
     21  0.235815D-02  0.152119D-02  0.416188D-03  0.259636D-03 -0.386511D-02
               21 
     21  0.204634D-01
 Leave Link  716 at Tue Dec  5 22:09:23 2023, MaxMem=  1879048192 cpu:               0.4 elap:               0.0
 (Enter /home/sekinelabo/g16/l103.exe)

 GradGradGradGradGradGradGradGradGradGradGradGradGradGradGradGradGradGrad
 Berny optimization.
 Search for a local minimum.
 Step number   1 out of a maximum of    2
 All quantities printed in internal units (Hartrees-Bohrs-Radians)
 Second derivative matrix not updated -- first step.
 ITU=  0
     Eigenvalues ---    0.02097   0.02440   0.02527   0.03096   0.03510
     Eigenvalues ---    0.03772   0.04731   0.05732   0.07089   0.07342
     Eigenvalues ---    0.09260   0.10272   0.14714   0.15617   0.17511
 Angle between quadratic step and forces=  21.08 degrees.
 Linear search not attempted -- first point.
 B after Tr=     0.000000    0.000000   -0.000000
         Rot=    1.000000   -0.000000    0.000000   -0.000000 Ang=   0.00 deg.
 Variable       Old X    -DE/DX   Delta X   Delta X   Delta X     New X
                                 (Linear)    (Quad)   (Total)
    X1       23.37705  -0.00031   0.00000  -0.02234  -0.02234  23.35471
    Y1       28.28145   0.00059   0.00000   0.00786   0.00786  28.28931
    Z1       29.07268  -0.00169   0.00000  -0.04736  -0.04736  29.02532
    X2       24.06925   0.00097   0.00000   0.00468   0.00468  24.07394
    Y2       23.39519   0.00182   0.00000   0.02453   0.02453  23.41972
    Z2       23.93225  -0.00063   0.00000  -0.00441  -0.00441  23.92784
    X3       22.21978   0.00047   0.00000   0.02975   0.02975  22.24953
    Y3       22.36737  -0.00141   0.00000  -0.00696  -0.00696  22.36041
    Z3       30.05364   0.00011   0.00000  -0.02518  -0.02518  30.02846
    X4       25.94953  -0.00016   0.00000   0.00795   0.00795  25.95748
    Y4       29.56401  -0.00199   0.00000  -0.05337  -0.05337  29.51064
    Z4       22.40875   0.00027   0.00000   0.01432   0.01432  22.42307
    X5       20.51846   0.00186   0.00000   0.06460   0.06460  20.58306
    Y5       27.57772  -0.00032   0.00000  -0.01236  -0.01236  27.56536
    Z5       18.98665   0.00202   0.00000   0.07203   0.07203  19.05867
    X6       26.93597   0.00075   0.00000   0.04944   0.04944  26.98541
    Y6       18.28348   0.00285   0.00000   0.11118   0.11118  18.39466
    Z6       26.37283  -0.00093   0.00000  -0.04922  -0.04922  26.32361
    X7       30.78950  -0.00357   0.00000  -0.13409  -0.13409  30.65541
    Y7       24.39051  -0.00154   0.00000  -0.07089  -0.07089  24.31962
    Z7       23.03293   0.00085   0.00000   0.03981   0.03981  23.07273
         Item               Value     Threshold  Converged?
 Maximum Force            0.003566     0.000450     NO 
 RMS     Force            0.001500     0.000300     NO 
 Maximum Displacement     0.134092     0.001800     NO 
 RMS     Displacement     0.053213     0.001200     NO 
 Predicted change in Energy=-7.821924D-04
 GradGradGradGradGradGradGradGradGradGradGradGradGradGradGradGradGradGrad

 Leave Link  103 at Tue Dec  5 22:09:23 2023, MaxMem=  1879048192 cpu:               0.2 elap:               0.0
 (Enter /home/sekinelabo/g16/l9999.exe)
 1\1\GINC-SEKINELABO-XA7R-R37\Force\UB3LYP\6-311+G(d)\Na7(2)\SEKINELABO
 \05-Dec-2023\0\\#P B3LYP/6-311+g(d) force\\DPGEN\\0,2\Na,12.3706,14.96
 59,15.3846\Na,12.7369,12.3802,12.6644\Na,11.7582,11.8363,15.9037\Na,13
 .7319,15.6446,11.8582\Na,10.8579,14.5935,10.0473\Na,14.2539,9.6752,13.
 9559\Na,16.2931,12.9069,12.1885\\Version=ES64L-G16RevB.01\State=2-A\HF
 =-1136.1249166\S2=0.781872\S2-1=0.\S2A=0.750648\RMSD=7.944e-09\RMSF=1.
 500e-03\Dipole=0.113706,-0.0154613,0.0106584\Quadrupole=-0.6768454,2.5
 996649,-1.9228195,-0.0228806,1.6400181,-4.2650717\PG=C01 [X(Na7)]\\@


  THE LARGE PRINT GIVETH,
  AND THE SMALL PRINT TAKETH AWAY.

                     -- TOM WAITS
 Job cpu time:       0 days  0 hours  3 minutes 52.6 seconds.
 Elapsed time:       0 days  0 hours  0 minutes 19.9 seconds.
 File lengths (MBytes):  RWF=     32 Int=      0 D2E=      0 Chk=      4 Scr=      1
 Normal termination of Gaussian 16 at Tue Dec  5 22:09:23 2023.
