 Set GAUSS_MDEF to "14GB".
 Entering Gaussian System, Link 0=g16
 Initial command:
 /home/sekinelabo/g16/l1.exe "/home/sekinelabo/g16temp/Gau-136764.inp" -scrdir="/home/sekinelabo/g16temp/"
 Entering Link 1 = /home/sekinelabo/g16/l1.exe PID=    136766.
  
 Copyright (c) 1988-2017, Gaussian, Inc.  All Rights Reserved.
  
 This is part of the Gaussian(R) 16 program.  It is based on
 the Gaussian(R) 09 system (copyright 2009, Gaussian, Inc.),
 the Gaussian(R) 03 system (copyright 2003, Gaussian, Inc.),
 the Gaussian(R) 98 system (copyright 1998, Gaussian, Inc.),
 the Gaussian(R) 94 system (copyright 1995, Gaussian, Inc.),
 the Gaussian 92(TM) system (copyright 1992, Gaussian, Inc.),
 the Gaussian 90(TM) system (copyright 1990, Gaussian, Inc.),
 the Gaussian 88(TM) system (copyright 1988, Gaussian, Inc.),
 the Gaussian 86(TM) system (copyright 1986, Carnegie Mellon
 University), and the Gaussian 82(TM) system (copyright 1983,
 Carnegie Mellon University). Gaussian is a federally registered
 trademark of Gaussian, Inc.
  
 This software contains proprietary and confidential information,
 including trade secrets, belonging to Gaussian, Inc.
  
 This software is provided under written license and may be
 used, copied, transmitted, or stored only in accord with that
 written license.
  
 The following legend is applicable only to US Government
 contracts under FAR:
  
                    RESTRICTED RIGHTS LEGEND
  
 Use, reproduction and disclosure by the US Government is
 subject to restrictions as set forth in subparagraphs (a)
 and (c) of the Commercial Computer Software - Restricted
 Rights clause in FAR 52.227-19.
  
 Gaussian, Inc.
 340 Quinnipiac St., Bldg. 40, Wallingford CT 06492
  
  
 ---------------------------------------------------------------
 Warning -- This program may not be used in any manner that
 competes with the business of Gaussian, Inc. or will provide
 assistance to any competitor of Gaussian, Inc.  The licensee
 of this program is prohibited from giving any competitor of
 Gaussian, Inc. access to this program.  By using this program,
 the user acknowledges that Gaussian, Inc. is engaged in the
 business of creating and licensing software in the field of
 computational chemistry and represents and warrants to the
 licensee that it is not a competitor of Gaussian, Inc. and that
 it will not use this program in any manner prohibited above.
 ---------------------------------------------------------------
  

 Cite this work as:
 Gaussian 16, Revision B.01,
 M. J. Frisch, G. W. Trucks, H. B. Schlegel, G. E. Scuseria, 
 M. A. Robb, J. R. Cheeseman, G. Scalmani, V. Barone, 
 G. A. Petersson, H. Nakatsuji, X. Li, M. Caricato, A. V. Marenich, 
 J. Bloino, B. G. Janesko, R. Gomperts, B. Mennucci, H. P. Hratchian, 
 J. V. Ortiz, A. F. Izmaylov, J. L. Sonnenberg, D. Williams-Young, 
 F. Ding, F. Lipparini, F. Egidi, J. Goings, B. Peng, A. Petrone, 
 T. Henderson, D. Ranasinghe, V. G. Zakrzewski, J. Gao, N. Rega, 
 G. Zheng, W. Liang, M. Hada, M. Ehara, K. Toyota, R. Fukuda, 
 J. Hasegawa, M. Ishida, T. Nakajima, Y. Honda, O. Kitao, H. Nakai, 
 T. Vreven, K. Throssell, J. A. Montgomery, Jr., J. E. Peralta, 
 F. Ogliaro, M. J. Bearpark, J. J. Heyd, E. N. Brothers, K. N. Kudin, 
 V. N. Staroverov, T. A. Keith, R. Kobayashi, J. Normand, 
 K. Raghavachari, A. P. Rendell, J. C. Burant, S. S. Iyengar, 
 J. Tomasi, M. Cossi, J. M. Millam, M. Klene, C. Adamo, R. Cammi, 
 J. W. Ochterski, R. L. Martin, K. Morokuma, O. Farkas, 
 J. B. Foresman, and D. J. Fox, Gaussian, Inc., Wallingford CT, 2016.
 
 ******************************************
 Gaussian 16:  ES64L-G16RevB.01 20-Dec-2017
                28-Nov-2023 
 ******************************************
 %nproc=15
 Will use up to   15 processors via shared memory.
 -------------------------
 #P B3LYP/6-311+g(d) force
 -------------------------
 1/10=7,30=1,38=1/1,3;
 2/12=2,17=6,18=5,40=1/2;
 3/5=4,6=6,7=11,11=2,25=1,30=1,71=1,74=-5/1,2,3;
 4//1;
 5/5=2,38=5/2;
 6/7=2,8=2,9=2,10=2,28=1/1;
 7/29=1/1,2,3,16;
 1/10=7,30=1/3;
 99//99;
 Leave Link    1 at Tue Nov 28 22:03:03 2023, MaxMem=           0 cpu:               0.3 elap:               0.0
 (Enter /home/sekinelabo/g16/l101.exe)
 -----
 DPGEN
 -----
 Symbolic Z-matrix:
 Charge =  0 Multiplicity = 2
 Na                    13.9986   16.5816   15.2188 
 Na                    14.6866   18.5699   17.4471 
 Na                    15.4462   14.8618   18.6529 
 Na                    15.9393   13.5164   15.4895 
 Na                    14.4164   14.9777   12.5159 
 Na                    17.0129   12.1895   18.8173 
 Na                    15.9255   16.7286   9.2839 
 
 ITRead=  0  0  0  0  0  0  0
 MicOpt= -1 -1 -1 -1 -1 -1 -1
 NAtoms=      7 NQM=        7 NQMF=       0 NMMI=      0 NMMIF=      0
                NMic=       0 NMicF=      0.
                    Isotopes and Nuclear Properties:
 (Nuclear quadrupole moments (NQMom) in fm**2, nuclear magnetic moments (NMagM)
  in nuclear magnetons)

  Atom         1           2           3           4           5           6           7
 IAtWgt=          23          23          23          23          23          23          23
 AtmWgt=  22.9897697  22.9897697  22.9897697  22.9897697  22.9897697  22.9897697  22.9897697
 NucSpn=           3           3           3           3           3           3           3
 AtZEff=  -0.0000000  -0.0000000  -0.0000000  -0.0000000  -0.0000000  -0.0000000  -0.0000000
 NQMom=   10.4000000  10.4000000  10.4000000  10.4000000  10.4000000  10.4000000  10.4000000
 NMagM=    2.2175200   2.2175200   2.2175200   2.2175200   2.2175200   2.2175200   2.2175200
 AtZNuc=  11.0000000  11.0000000  11.0000000  11.0000000  11.0000000  11.0000000  11.0000000
 Leave Link  101 at Tue Nov 28 22:03:03 2023, MaxMem=  1879048192 cpu:               2.4 elap:               0.2
 (Enter /home/sekinelabo/g16/l103.exe)

 GradGradGradGradGradGradGradGradGradGradGradGradGradGradGradGradGradGrad
 Berny optimization.
 Initialization pass.
 Trust Radius=3.00D-01 FncErr=1.00D-07 GrdErr=1.00D-07 EigMax=2.50D+02 EigMin=1.00D-04
 Number of steps in this run=      2 maximum allowed number of steps=      2.
 GradGradGradGradGradGradGradGradGradGradGradGradGradGradGradGradGradGrad

 Leave Link  103 at Tue Nov 28 22:03:03 2023, MaxMem=  1879048192 cpu:               0.2 elap:               0.0
 (Enter /home/sekinelabo/g16/l202.exe)
                          Input orientation:                          
 ---------------------------------------------------------------------
 Center     Atomic      Atomic             Coordinates (Angstroms)
 Number     Number       Type             X           Y           Z
 ---------------------------------------------------------------------
      1         11           0       13.998600   16.581600   15.218800
      2         11           0       14.686600   18.569900   17.447100
      3         11           0       15.446200   14.861800   18.652900
      4         11           0       15.939300   13.516400   15.489500
      5         11           0       14.416400   14.977700   12.515900
      6         11           0       17.012900   12.189500   18.817300
      7         11           0       15.925500   16.728600    9.283900
 ---------------------------------------------------------------------
                    Distance matrix (angstroms):
                    1          2          3          4          5
     1  Na   0.000000
     2  Na   3.064637   0.000000
     3  Na   4.104425   3.972525   0.000000
     4  Na   3.638000   5.562312   3.472801   0.000000
     5  Na   3.170603   6.106852   6.223881   3.646494   0.000000
     6  Na   6.428511   6.928104   3.102058   3.739991   7.363662
     7  Na   6.241602   8.459497   9.565189   6.987696   3.973520
                    6          7
     6  Na   0.000000
     7  Na  10.614687   0.000000
 Stoichiometry    Na7(2)
 Framework group  C1[X(Na7)]
 Deg. of freedom    15
 Full point group                 C1      NOp   1
 Largest Abelian subgroup         C1      NOp   1
 Largest concise Abelian subgroup C1      NOp   1
                         Standard orientation:                         
 ---------------------------------------------------------------------
 Center     Atomic      Atomic             Coordinates (Angstroms)
 Number     Number       Type             X           Y           Z
 ---------------------------------------------------------------------
      1         11           0       -0.593196    1.526683    0.822173
      2         11           0        1.040878    3.720463   -0.559541
      3         11           0        3.303999    0.509703    0.032285
      4         11           0        0.705162   -1.793008    0.094871
      5         11           0       -2.686483   -0.844644    1.040528
      6         11           0        4.355965   -2.362552   -0.483737
      7         11           0       -6.126325   -0.756645   -0.946580
 ---------------------------------------------------------------------
 Rotational constants (GHZ):           0.7394967           0.2755277           0.2132442
 Leave Link  202 at Tue Nov 28 22:03:03 2023, MaxMem=  1879048192 cpu:               0.0 elap:               0.0
 (Enter /home/sekinelabo/g16/l301.exe)
 Standard basis: 6-311+G(d) (5D, 7F)
 Ernie: Thresh=  0.10000D-02 Tol=  0.10000D-05 Strict=F.
 There are   217 symmetry adapted cartesian basis functions of A   symmetry.
 There are   210 symmetry adapted basis functions of A   symmetry.
   210 basis functions,   350 primitive gaussians,   217 cartesian basis functions
    39 alpha electrons       38 beta electrons
       nuclear repulsion energy       280.1804016295 Hartrees.
 IExCor=  402 DFT=T Ex+Corr=B3LYP ExCW=0 ScaHFX=  0.200000
 ScaDFX=  0.800000  0.720000  1.000000  0.810000 ScalE2=  1.000000  1.000000
 IRadAn=      5 IRanWt=     -1 IRanGd=            0 ICorTp=0 IEmpDi=  4
 NAtoms=    7 NActive=    7 NUniq=    7 SFac= 1.00D+00 NAtFMM=   60 NAOKFM=F Big=F
 Integral buffers will be    131072 words long.
 Raffenetti 2 integral format.
 Two-electron integral symmetry is turned on.
 Leave Link  301 at Tue Nov 28 22:03:03 2023, MaxMem=  1879048192 cpu:               0.5 elap:               0.0
 (Enter /home/sekinelabo/g16/l302.exe)
 NPDir=0 NMtPBC=     1 NCelOv=     1 NCel=       1 NClECP=     1 NCelD=      1
         NCelK=      1 NCelE2=     1 NClLst=     1 CellRange=     0.0.
 One-electron integrals computed using PRISM.
 One-electron integral symmetry used in STVInt
 NBasis=   210 RedAO= T EigKep=  4.32D-06  NBF=   210
 NBsUse=   210 1.00D-06 EigRej= -1.00D+00 NBFU=   210
 Precomputing XC quadrature grid using
 IXCGrd= 4 IRadAn=           5 IRanWt=          -1 IRanGd=           0 AccXCQ= 0.00D+00.
 Generated NRdTot=       0 NPtTot=           0 NUsed=           0 NTot=          32
 NSgBfM=   203   203   203   203   203 MxSgAt=     7 MxSgA2=     7.
 Leave Link  302 at Tue Nov 28 22:03:04 2023, MaxMem=  1879048192 cpu:               1.9 elap:               0.1
 (Enter /home/sekinelabo/g16/l303.exe)
 DipDrv:  MaxL=1.
 Leave Link  303 at Tue Nov 28 22:03:04 2023, MaxMem=  1879048192 cpu:               0.5 elap:               0.0
 (Enter /home/sekinelabo/g16/l401.exe)
 ExpMin= 7.60D-03 ExpMax= 3.62D+04 ExpMxC= 1.21D+03 IAcc=3 IRadAn=         5 AccDes= 0.00D+00
 Harris functional with IExCor=  402 and IRadAn=       5 diagonalized for initial guess.
 HarFok:  IExCor=  402 AccDes= 0.00D+00 IRadAn=         5 IDoV= 1 UseB2=F ITyADJ=14
 ICtDFT=  3500011 ScaDFX=  1.000000  1.000000  1.000000  1.000000
 FoFCou: FMM=F IPFlag=           0 FMFlag=      100000 FMFlg1=           0
         NFxFlg=           0 DoJE=T BraDBF=F KetDBF=T FulRan=T
         wScrn=  0.000000 ICntrl=       500 IOpCl=  0 I1Cent=   200000004 NGrid=           0
         NMat0=    1 NMatS0=      1 NMatT0=    0 NMatD0=    1 NMtDS0=    0 NMtDT0=    0
 Petite list used in FoFCou.
 Harris En= -1135.88745017160    
 JPrj=0 DoOrth=F DoCkMO=F.
 Initial guess <Sx>= 0.0000 <Sy>= 0.0000 <Sz>= 0.5000 <S**2>= 0.7500 S= 0.5000
 Leave Link  401 at Tue Nov 28 22:03:04 2023, MaxMem=  1879048192 cpu:               4.1 elap:               0.3
 (Enter /home/sekinelabo/g16/l502.exe)
 Keep R1 and R2 ints in memory in canonical form, NReq=506573307.
 FoFCou: FMM=F IPFlag=           0 FMFlag=           0 FMFlg1=           0
         NFxFlg=           0 DoJE=F BraDBF=F KetDBF=F FulRan=T
         wScrn=  0.000000 ICntrl=       600 IOpCl=  0 I1Cent=           0 NGrid=           0
         NMat0=    1 NMatS0=  22155 NMatT0=    0 NMatD0=    1 NMtDS0=    0 NMtDT0=    0
 Symmetry not used in FoFCou.
 Two-electron integral symmetry not used.
 UHF open shell SCF:
 Using DIIS extrapolation, IDIIS=  1040.
 NGot=  1879048192 LenX=  1388082593 LenY=  1388035063
 Requested convergence on RMS density matrix=1.00D-08 within 128 cycles.
 Requested convergence on MAX density matrix=1.00D-06.
 Requested convergence on             energy=1.00D-06.
 No special actions if energy rises.

 Cycle   1  Pass 1  IDiag  1:
 E= -1136.09114476726    
 DIIS: error= 9.14D-03 at cycle   1 NSaved=   1.
 NSaved= 1 IEnMin= 1 EnMin= -1136.09114476726     IErMin= 1 ErrMin= 9.14D-03
 ErrMax= 9.14D-03  0.00D+00 EMaxC= 1.00D-01 BMatC= 1.84D-01 BMatP= 1.84D-01
 IDIUse=3 WtCom= 9.09D-01 WtEn= 9.14D-02
 Coeff-Com:  0.100D+01
 Coeff-En:   0.100D+01
 Coeff:      0.100D+01
 Gap=     0.058 Goal=   None    Shift=    0.000
 Gap=     0.027 Goal=   None    Shift=    0.000
 GapD=    0.027 DampG=0.250 DampE=1.000 DampFc=0.2500 IDamp=-1.
 Damping current iteration by 2.50D-01
 RMSDP=2.24D-02 MaxDP=3.79D+00              OVMax= 2.33D-01

 Cycle   2  Pass 1  IDiag  1:
 E= -1136.10060501677     Delta-E=       -0.009460249511 Rises=F Damp=T
 DIIS: error= 6.56D-03 at cycle   2 NSaved=   2.
 NSaved= 2 IEnMin= 2 EnMin= -1136.10060501677     IErMin= 2 ErrMin= 6.56D-03
 ErrMax= 6.56D-03  0.00D+00 EMaxC= 1.00D-01 BMatC= 7.06D-02 BMatP= 1.84D-01
 IDIUse=3 WtCom= 9.34D-01 WtEn= 6.56D-02
 Coeff-Com: -0.127D+01 0.227D+01
 Coeff-En:   0.000D+00 0.100D+01
 Coeff:     -0.119D+01 0.219D+01
 Gap=     0.059 Goal=   None    Shift=    0.000
 Gap=     0.043 Goal=   None    Shift=    0.000
 RMSDP=1.51D-02 MaxDP=2.59D+00 DE=-9.46D-03 OVMax= 2.97D-01

 Cycle   3  Pass 1  IDiag  1:
 E= -1136.11578798826     Delta-E=       -0.015182971487 Rises=F Damp=F
 DIIS: error= 3.24D-03 at cycle   3 NSaved=   3.
 NSaved= 3 IEnMin= 3 EnMin= -1136.11578798826     IErMin= 3 ErrMin= 3.24D-03
 ErrMax= 3.24D-03  0.00D+00 EMaxC= 1.00D-01 BMatC= 3.46D-03 BMatP= 7.06D-02
 IDIUse=3 WtCom= 9.68D-01 WtEn= 3.24D-02
 Coeff-Com: -0.275D+00 0.472D+00 0.803D+00
 Coeff-En:   0.000D+00 0.000D+00 0.100D+01
 Coeff:     -0.267D+00 0.457D+00 0.810D+00
 Gap=     0.061 Goal=   None    Shift=    0.000
 Gap=     0.035 Goal=   None    Shift=    0.000
 RMSDP=6.73D-03 MaxDP=8.36D-01 DE=-1.52D-02 OVMax= 1.54D-01

 Cycle   4  Pass 1  IDiag  1:
 E= -1136.11576023528     Delta-E=        0.000027752975 Rises=F Damp=F
 DIIS: error= 3.37D-03 at cycle   4 NSaved=   4.
 NSaved= 4 IEnMin= 3 EnMin= -1136.11578798826     IErMin= 3 ErrMin= 3.24D-03
 ErrMax= 3.37D-03  0.00D+00 EMaxC= 1.00D-01 BMatC= 3.73D-03 BMatP= 3.46D-03
 IDIUse=3 WtCom= 9.66D-01 WtEn= 3.37D-02
 Coeff-Com: -0.208D-01 0.273D-01 0.509D+00 0.485D+00
 Coeff-En:   0.000D+00 0.000D+00 0.501D+00 0.499D+00
 Coeff:     -0.201D-01 0.264D-01 0.509D+00 0.485D+00
 Gap=     0.053 Goal=   None    Shift=    0.000
 Gap=     0.041 Goal=   None    Shift=    0.000
 RMSDP=2.96D-03 MaxDP=2.95D-01 DE= 2.78D-05 OVMax= 1.00D-01

 Cycle   5  Pass 1  IDiag  1:
 E= -1136.12000766761     Delta-E=       -0.004247432327 Rises=F Damp=F
 DIIS: error= 1.70D-04 at cycle   5 NSaved=   5.
 NSaved= 5 IEnMin= 5 EnMin= -1136.12000766761     IErMin= 5 ErrMin= 1.70D-04
 ErrMax= 1.70D-04  0.00D+00 EMaxC= 1.00D-01 BMatC= 1.63D-05 BMatP= 3.46D-03
 IDIUse=3 WtCom= 9.98D-01 WtEn= 1.70D-03
 Coeff-Com: -0.396D-02 0.437D-02 0.456D-01 0.574D-01 0.897D+00
 Coeff-En:   0.000D+00 0.000D+00 0.000D+00 0.000D+00 0.100D+01
 Coeff:     -0.395D-02 0.437D-02 0.455D-01 0.573D-01 0.897D+00
 Gap=     0.053 Goal=   None    Shift=    0.000
 Gap=     0.042 Goal=   None    Shift=    0.000
 RMSDP=6.22D-04 MaxDP=5.26D-02 DE=-4.25D-03 OVMax= 1.31D-02

 Cycle   6  Pass 1  IDiag  1:
 E= -1136.12004055645     Delta-E=       -0.000032888835 Rises=F Damp=F
 DIIS: error= 1.93D-04 at cycle   6 NSaved=   6.
 NSaved= 6 IEnMin= 6 EnMin= -1136.12004055645     IErMin= 5 ErrMin= 1.70D-04
 ErrMax= 1.93D-04  0.00D+00 EMaxC= 1.00D-01 BMatC= 1.68D-05 BMatP= 1.63D-05
 IDIUse=3 WtCom= 9.98D-01 WtEn= 1.70D-03
 Coeff-Com:  0.118D-02-0.171D-02-0.103D+00-0.845D-01 0.584D+00 0.604D+00
 Coeff-En:   0.000D+00 0.000D+00 0.000D+00 0.000D+00 0.000D+00 0.100D+01
 Coeff:      0.118D-02-0.170D-02-0.103D+00-0.843D-01 0.583D+00 0.605D+00
 Gap=     0.053 Goal=   None    Shift=    0.000
 Gap=     0.042 Goal=   None    Shift=    0.000
 RMSDP=2.28D-04 MaxDP=1.66D-02 DE=-3.29D-05 OVMax= 9.48D-03

 Cycle   7  Pass 1  IDiag  1:
 E= -1136.12007160419     Delta-E=       -0.000031047741 Rises=F Damp=F
 DIIS: error= 5.04D-05 at cycle   7 NSaved=   7.
 NSaved= 7 IEnMin= 7 EnMin= -1136.12007160419     IErMin= 7 ErrMin= 5.04D-05
 ErrMax= 5.04D-05  0.00D+00 EMaxC= 1.00D-01 BMatC= 1.12D-06 BMatP= 1.63D-05
 IDIUse=1 WtCom= 1.00D+00 WtEn= 0.00D+00
 Coeff-Com:  0.120D-02-0.143D-02-0.356D-01-0.276D-01-0.482D-01 0.130D+00
 Coeff-Com:  0.982D+00
 Coeff:      0.120D-02-0.143D-02-0.356D-01-0.276D-01-0.482D-01 0.130D+00
 Coeff:      0.982D+00
 Gap=     0.053 Goal=   None    Shift=    0.000
 Gap=     0.043 Goal=   None    Shift=    0.000
 RMSDP=1.30D-04 MaxDP=1.02D-02 DE=-3.10D-05 OVMax= 3.92D-03

 Cycle   8  Pass 1  IDiag  1:
 E= -1136.12007571790     Delta-E=       -0.000004113718 Rises=F Damp=F
 DIIS: error= 1.48D-05 at cycle   8 NSaved=   8.
 NSaved= 8 IEnMin= 8 EnMin= -1136.12007571790     IErMin= 8 ErrMin= 1.48D-05
 ErrMax= 1.48D-05  0.00D+00 EMaxC= 1.00D-01 BMatC= 1.74D-07 BMatP= 1.12D-06
 IDIUse=1 WtCom= 1.00D+00 WtEn= 0.00D+00
 Coeff-Com:  0.557D-03-0.649D-03 0.261D-03 0.184D-02-0.102D+00-0.357D-01
 Coeff-Com:  0.333D+00 0.803D+00
 Coeff:      0.557D-03-0.649D-03 0.261D-03 0.184D-02-0.102D+00-0.357D-01
 Coeff:      0.333D+00 0.803D+00
 Gap=     0.053 Goal=   None    Shift=    0.000
 Gap=     0.043 Goal=   None    Shift=    0.000
 RMSDP=5.46D-05 MaxDP=3.36D-03 DE=-4.11D-06 OVMax= 1.88D-03

 Cycle   9  Pass 1  IDiag  1:
 E= -1136.12007618864     Delta-E=       -0.000000470740 Rises=F Damp=F
 DIIS: error= 8.34D-06 at cycle   9 NSaved=   9.
 NSaved= 9 IEnMin= 9 EnMin= -1136.12007618864     IErMin= 9 ErrMin= 8.34D-06
 ErrMax= 8.34D-06  0.00D+00 EMaxC= 1.00D-01 BMatC= 4.23D-08 BMatP= 1.74D-07
 IDIUse=1 WtCom= 1.00D+00 WtEn= 0.00D+00
 Coeff-Com:  0.123D-03-0.137D-03 0.426D-02 0.389D-02-0.383D-01-0.308D-01
 Coeff-Com:  0.306D-01 0.350D+00 0.680D+00
 Coeff:      0.123D-03-0.137D-03 0.426D-02 0.389D-02-0.383D-01-0.308D-01
 Coeff:      0.306D-01 0.350D+00 0.680D+00
 Gap=     0.053 Goal=   None    Shift=    0.000
 Gap=     0.043 Goal=   None    Shift=    0.000
 RMSDP=1.89D-05 MaxDP=2.37D-03 DE=-4.71D-07 OVMax= 5.69D-04

 Cycle  10  Pass 1  IDiag  1:
 E= -1136.12007628330     Delta-E=       -0.000000094660 Rises=F Damp=F
 DIIS: error= 4.63D-06 at cycle  10 NSaved=  10.
 NSaved=10 IEnMin=10 EnMin= -1136.12007628330     IErMin=10 ErrMin= 4.63D-06
 ErrMax= 4.63D-06  0.00D+00 EMaxC= 1.00D-01 BMatC= 8.82D-09 BMatP= 4.23D-08
 IDIUse=1 WtCom= 1.00D+00 WtEn= 0.00D+00
 Coeff-Com: -0.128D-03 0.165D-03 0.144D-02 0.782D-03 0.823D-02-0.436D-02
 Coeff-Com: -0.511D-01-0.649D-01 0.219D+00 0.891D+00
 Coeff:     -0.128D-03 0.165D-03 0.144D-02 0.782D-03 0.823D-02-0.436D-02
 Coeff:     -0.511D-01-0.649D-01 0.219D+00 0.891D+00
 Gap=     0.053 Goal=   None    Shift=    0.000
 Gap=     0.043 Goal=   None    Shift=    0.000
 RMSDP=1.53D-05 MaxDP=1.22D-03 DE=-9.47D-08 OVMax= 2.91D-04

 Cycle  11  Pass 1  IDiag  1:
 E= -1136.12007632232     Delta-E=       -0.000000039021 Rises=F Damp=F
 DIIS: error= 2.18D-06 at cycle  11 NSaved=  11.
 NSaved=11 IEnMin=11 EnMin= -1136.12007632232     IErMin=11 ErrMin= 2.18D-06
 ErrMax= 2.18D-06  0.00D+00 EMaxC= 1.00D-01 BMatC= 2.44D-09 BMatP= 8.82D-09
 IDIUse=1 WtCom= 1.00D+00 WtEn= 0.00D+00
 Coeff-Com: -0.658D-04 0.788D-04-0.696D-03-0.869D-03 0.118D-01 0.699D-02
 Coeff-Com: -0.194D-01-0.114D+00-0.120D+00 0.224D+00 0.101D+01
 Coeff:     -0.658D-04 0.788D-04-0.696D-03-0.869D-03 0.118D-01 0.699D-02
 Coeff:     -0.194D-01-0.114D+00-0.120D+00 0.224D+00 0.101D+01
 Gap=     0.053 Goal=   None    Shift=    0.000
 Gap=     0.043 Goal=   None    Shift=    0.000
 RMSDP=1.10D-05 MaxDP=7.95D-04 DE=-3.90D-08 OVMax= 2.44D-04

 Cycle  12  Pass 1  IDiag  1:
 E= -1136.12007633918     Delta-E=       -0.000000016857 Rises=F Damp=F
 DIIS: error= 1.30D-06 at cycle  12 NSaved=  12.
 NSaved=12 IEnMin=12 EnMin= -1136.12007633918     IErMin=12 ErrMin= 1.30D-06
 ErrMax= 1.30D-06  0.00D+00 EMaxC= 1.00D-01 BMatC= 6.53D-10 BMatP= 2.44D-09
 IDIUse=1 WtCom= 1.00D+00 WtEn= 0.00D+00
 Coeff-Com:  0.615D-04-0.830D-04-0.450D-03-0.198D-03-0.367D-02 0.222D-02
 Coeff-Com:  0.178D-01 0.200D-01-0.814D-01-0.285D+00 0.409D-01 0.129D+01
 Coeff:      0.615D-04-0.830D-04-0.450D-03-0.198D-03-0.367D-02 0.222D-02
 Coeff:      0.178D-01 0.200D-01-0.814D-01-0.285D+00 0.409D-01 0.129D+01
 Gap=     0.053 Goal=   None    Shift=    0.000
 Gap=     0.043 Goal=   None    Shift=    0.000
 RMSDP=8.93D-06 MaxDP=7.51D-04 DE=-1.69D-08 OVMax= 1.78D-04

 Cycle  13  Pass 1  IDiag  1:
 E= -1136.12007634546     Delta-E=       -0.000000006275 Rises=F Damp=F
 DIIS: error= 4.36D-07 at cycle  13 NSaved=  13.
 NSaved=13 IEnMin=13 EnMin= -1136.12007634546     IErMin=13 ErrMin= 4.36D-07
 ErrMax= 4.36D-07  0.00D+00 EMaxC= 1.00D-01 BMatC= 9.78D-11 BMatP= 6.53D-10
 IDIUse=1 WtCom= 1.00D+00 WtEn= 0.00D+00
 Coeff-Com:  0.238D-04-0.310D-04-0.412D-04 0.703D-04-0.258D-02-0.902D-03
 Coeff-Com:  0.573D-02 0.251D-01 0.772D-02-0.919D-01-0.181D+00 0.149D+00
 Coeff-Com:  0.109D+01
 Coeff:      0.238D-04-0.310D-04-0.412D-04 0.703D-04-0.258D-02-0.902D-03
 Coeff:      0.573D-02 0.251D-01 0.772D-02-0.919D-01-0.181D+00 0.149D+00
 Coeff:      0.109D+01
 Gap=     0.053 Goal=   None    Shift=    0.000
 Gap=     0.043 Goal=   None    Shift=    0.000
 RMSDP=3.86D-06 MaxDP=3.07D-04 DE=-6.27D-09 OVMax= 6.75D-05

 Cycle  14  Pass 1  IDiag  1:
 E= -1136.12007634631     Delta-E=       -0.000000000859 Rises=F Damp=F
 DIIS: error= 1.81D-07 at cycle  14 NSaved=  14.
 NSaved=14 IEnMin=14 EnMin= -1136.12007634631     IErMin=14 ErrMin= 1.81D-07
 ErrMax= 1.81D-07  0.00D+00 EMaxC= 1.00D-01 BMatC= 1.57D-11 BMatP= 9.78D-11
 IDIUse=1 WtCom= 1.00D+00 WtEn= 0.00D+00
 Coeff-Com: -0.655D-05 0.890D-05 0.499D-04 0.459D-05 0.318D-03-0.410D-03
 Coeff-Com: -0.141D-02-0.226D-02 0.141D-01 0.325D-01-0.258D-01-0.156D+00
 Coeff-Com:  0.104D+00 0.103D+01
 Coeff:     -0.655D-05 0.890D-05 0.499D-04 0.459D-05 0.318D-03-0.410D-03
 Coeff:     -0.141D-02-0.226D-02 0.141D-01 0.325D-01-0.258D-01-0.156D+00
 Coeff:      0.104D+00 0.103D+01
 Gap=     0.053 Goal=   None    Shift=    0.000
 Gap=     0.043 Goal=   None    Shift=    0.000
 RMSDP=9.76D-07 MaxDP=8.16D-05 DE=-8.59D-10 OVMax= 1.98D-05

 Cycle  15  Pass 1  IDiag  1:
 E= -1136.12007634639     Delta-E=       -0.000000000078 Rises=F Damp=F
 DIIS: error= 8.31D-08 at cycle  15 NSaved=  15.
 NSaved=15 IEnMin=15 EnMin= -1136.12007634639     IErMin=15 ErrMin= 8.31D-08
 ErrMax= 8.31D-08  0.00D+00 EMaxC= 1.00D-01 BMatC= 4.39D-12 BMatP= 1.57D-11
 IDIUse=1 WtCom= 1.00D+00 WtEn= 0.00D+00
 Coeff-Com: -0.480D-05 0.635D-05 0.359D-04-0.477D-05 0.388D-03-0.535D-04
 Coeff-Com: -0.778D-03-0.472D-02 0.362D-02 0.240D-01 0.181D-01-0.732D-01
 Coeff-Com: -0.130D+00 0.304D+00 0.859D+00
 Coeff:     -0.480D-05 0.635D-05 0.359D-04-0.477D-05 0.388D-03-0.535D-04
 Coeff:     -0.778D-03-0.472D-02 0.362D-02 0.240D-01 0.181D-01-0.732D-01
 Coeff:     -0.130D+00 0.304D+00 0.859D+00
 Gap=     0.053 Goal=   None    Shift=    0.000
 Gap=     0.043 Goal=   None    Shift=    0.000
 RMSDP=3.80D-07 MaxDP=5.34D-05 DE=-7.75D-11 OVMax= 8.93D-06

 Cycle  16  Pass 1  IDiag  1:
 E= -1136.12007634641     Delta-E=       -0.000000000019 Rises=F Damp=F
 DIIS: error= 4.40D-08 at cycle  16 NSaved=  16.
 NSaved=16 IEnMin=16 EnMin= -1136.12007634641     IErMin=16 ErrMin= 4.40D-08
 ErrMax= 4.40D-08  0.00D+00 EMaxC= 1.00D-01 BMatC= 8.50D-13 BMatP= 4.39D-12
 IDIUse=1 WtCom= 1.00D+00 WtEn= 0.00D+00
 Coeff-Com:  0.778D-06-0.111D-05-0.387D-05-0.240D-05 0.160D-04 0.895D-04
 Coeff-Com:  0.995D-04-0.332D-03-0.256D-02-0.186D-02 0.942D-02 0.140D-01
 Coeff-Com: -0.316D-01-0.190D+00 0.364D-01 0.117D+01
 Coeff:      0.778D-06-0.111D-05-0.387D-05-0.240D-05 0.160D-04 0.895D-04
 Coeff:      0.995D-04-0.332D-03-0.256D-02-0.186D-02 0.942D-02 0.140D-01
 Coeff:     -0.316D-01-0.190D+00 0.364D-01 0.117D+01
 Gap=     0.053 Goal=   None    Shift=    0.000
 Gap=     0.043 Goal=   None    Shift=    0.000
 RMSDP=2.64D-07 MaxDP=3.89D-05 DE=-1.86D-11 OVMax= 6.85D-06

 Cycle  17  Pass 1  IDiag  1:
 E= -1136.12007634642     Delta-E=       -0.000000000010 Rises=F Damp=F
 DIIS: error= 2.20D-08 at cycle  17 NSaved=  17.
 NSaved=17 IEnMin=17 EnMin= -1136.12007634642     IErMin=17 ErrMin= 2.20D-08
 ErrMax= 2.20D-08  0.00D+00 EMaxC= 1.00D-01 BMatC= 2.00D-13 BMatP= 8.50D-13
 IDIUse=1 WtCom= 1.00D+00 WtEn= 0.00D+00
 Coeff-Com:  0.885D-06-0.119D-05-0.102D-04 0.793D-06-0.857D-04 0.179D-04
 Coeff-Com:  0.131D-03 0.105D-02-0.121D-02-0.586D-02-0.326D-02 0.169D-01
 Coeff-Com:  0.373D-01-0.869D-01-0.221D+00-0.134D-01 0.128D+01
 Coeff:      0.885D-06-0.119D-05-0.102D-04 0.793D-06-0.857D-04 0.179D-04
 Coeff:      0.131D-03 0.105D-02-0.121D-02-0.586D-02-0.326D-02 0.169D-01
 Coeff:      0.373D-01-0.869D-01-0.221D+00-0.134D-01 0.128D+01
 Gap=     0.053 Goal=   None    Shift=    0.000
 Gap=     0.043 Goal=   None    Shift=    0.000
 RMSDP=1.37D-07 MaxDP=1.50D-05 DE=-9.78D-12 OVMax= 4.16D-06

 Cycle  18  Pass 1  IDiag  1:
 E= -1136.12007634642     Delta-E=       -0.000000000003 Rises=F Damp=F
 DIIS: error= 9.22D-09 at cycle  18 NSaved=  18.
 NSaved=18 IEnMin=18 EnMin= -1136.12007634642     IErMin=18 ErrMin= 9.22D-09
 ErrMax= 9.22D-09  0.00D+00 EMaxC= 1.00D-01 BMatC= 3.44D-14 BMatP= 2.00D-13
 IDIUse=1 WtCom= 1.00D+00 WtEn= 0.00D+00
 Coeff-Com:  0.605D-08 0.561D-08-0.121D-06 0.128D-06-0.898D-05-0.111D-04
 Coeff-Com:  0.702D-05 0.915D-04 0.489D-03-0.228D-03-0.282D-02 0.191D-02
 Coeff-Com:  0.191D-02 0.364D-01-0.210D-02-0.232D+00-0.312D-01 0.123D+01
 Coeff:      0.605D-08 0.561D-08-0.121D-06 0.128D-06-0.898D-05-0.111D-04
 Coeff:      0.702D-05 0.915D-04 0.489D-03-0.228D-03-0.282D-02 0.191D-02
 Coeff:      0.191D-02 0.364D-01-0.210D-02-0.232D+00-0.312D-01 0.123D+01
 Gap=     0.053 Goal=   None    Shift=    0.000
 Gap=     0.043 Goal=   None    Shift=    0.000
 RMSDP=5.53D-08 MaxDP=4.42D-06 DE=-2.50D-12 OVMax= 1.55D-06

 Cycle  19  Pass 1  IDiag  1:
 E= -1136.12007634642     Delta-E=        0.000000000003 Rises=F Damp=F
 DIIS: error= 3.49D-09 at cycle  19 NSaved=  19.
 NSaved=19 IEnMin=18 EnMin= -1136.12007634642     IErMin=19 ErrMin= 3.49D-09
 ErrMax= 3.49D-09  0.00D+00 EMaxC= 1.00D-01 BMatC= 5.78D-15 BMatP= 3.44D-14
 IDIUse=1 WtCom= 1.00D+00 WtEn= 0.00D+00
 Large coefficients: NSaved= 19 BigCof=    0.00 CofMax=   10.00 Det=-6.31D-15
 Inversion failed.  Reducing to 18 matrices.
 Large coefficients: NSaved= 18 BigCof=    0.00 CofMax=   10.00 Det=-6.31D-15
 Inversion failed.  Reducing to 17 matrices.
 Large coefficients: NSaved= 17 BigCof=    0.00 CofMax=   10.00 Det=-6.31D-15
 Inversion failed.  Reducing to 16 matrices.
 Large coefficients: NSaved= 16 BigCof=    0.00 CofMax=   10.00 Det=-6.31D-15
 Inversion failed.  Reducing to 15 matrices.
 Coeff-Com:  0.233D-05 0.509D-06 0.977D-05 0.103D-04-0.473D-04 0.605D-04
 Coeff-Com:  0.479D-03-0.730D-03-0.186D-02-0.487D-03 0.158D-01 0.390D-01
 Coeff-Com: -0.157D+00-0.328D-01 0.114D+01
 Coeff:      0.233D-05 0.509D-06 0.977D-05 0.103D-04-0.473D-04 0.605D-04
 Coeff:      0.479D-03-0.730D-03-0.186D-02-0.487D-03 0.158D-01 0.390D-01
 Coeff:     -0.157D+00-0.328D-01 0.114D+01
 Gap=     0.053 Goal=   None    Shift=    0.000
 Gap=     0.043 Goal=   None    Shift=    0.000
 RMSDP=1.70D-08 MaxDP=2.36D-06 DE= 3.41D-12 OVMax= 4.23D-07

 Cycle  20  Pass 1  IDiag  1:
 E= -1136.12007634642     Delta-E=       -0.000000000000 Rises=F Damp=F
 DIIS: error= 2.44D-09 at cycle  20 NSaved=  16.
 NSaved=16 IEnMin=14 EnMin= -1136.12007634642     IErMin=16 ErrMin= 2.44D-09
 ErrMax= 2.44D-09  0.00D+00 EMaxC= 1.00D-01 BMatC= 1.94D-15 BMatP= 5.78D-15
 IDIUse=1 WtCom= 1.00D+00 WtEn= 0.00D+00
 Large coefficients: NSaved= 16 BigCof=    0.00 CofMax=   10.00 Det=-2.67D-15
 Inversion failed.  Reducing to 15 matrices.
 Coeff-Com:  0.869D-08 0.477D-05-0.241D-05-0.437D-04 0.890D-04 0.606D-03
 Coeff-Com: -0.530D-03-0.223D-02-0.504D-02 0.149D-01 0.501D-01-0.608D-01
 Coeff-Com: -0.249D+00 0.303D+00 0.949D+00
 Coeff:      0.869D-08 0.477D-05-0.241D-05-0.437D-04 0.890D-04 0.606D-03
 Coeff:     -0.530D-03-0.223D-02-0.504D-02 0.149D-01 0.501D-01-0.608D-01
 Coeff:     -0.249D+00 0.303D+00 0.949D+00
 Gap=     0.053 Goal=   None    Shift=    0.000
 Gap=     0.043 Goal=   None    Shift=    0.000
 RMSDP=9.12D-09 MaxDP=1.45D-06 DE=-2.27D-13 OVMax= 2.12D-07

 Cycle  21  Pass 1  IDiag  1:
 E= -1136.12007634642     Delta-E=       -0.000000000004 Rises=F Damp=F
 DIIS: error= 6.68D-10 at cycle  21 NSaved=  16.
 NSaved=16 IEnMin=16 EnMin= -1136.12007634642     IErMin=16 ErrMin= 6.68D-10
 ErrMax= 6.68D-10  0.00D+00 EMaxC= 1.00D-01 BMatC= 2.23D-16 BMatP= 1.94D-15
 IDIUse=1 WtCom= 1.00D+00 WtEn= 0.00D+00
 Large coefficients: NSaved= 16 BigCof=    0.00 CofMax=   10.00 Det=-6.40D-16
 Inversion failed.  Reducing to 15 matrices.
 Coeff-Com: -0.517D-05 0.331D-05 0.206D-04-0.226D-05-0.100D-03 0.258D-04
 Coeff-Com:  0.322D-03 0.618D-04-0.131D-02-0.972D-03 0.152D-01-0.150D-01
 Coeff-Com: -0.173D+00 0.114D+00 0.106D+01
 Coeff:     -0.517D-05 0.331D-05 0.206D-04-0.226D-05-0.100D-03 0.258D-04
 Coeff:      0.322D-03 0.618D-04-0.131D-02-0.972D-03 0.152D-01-0.150D-01
 Coeff:     -0.173D+00 0.114D+00 0.106D+01
 Gap=     0.053 Goal=   None    Shift=    0.000
 Gap=     0.043 Goal=   None    Shift=    0.000
 RMSDP=4.19D-09 MaxDP=5.60D-07 DE=-4.32D-12 OVMax= 8.50D-08

 SCF Done:  E(UB3LYP) =  -1136.12007635     A.U. after   21 cycles
            NFock= 21  Conv=0.42D-08     -V/T= 2.0029
 <Sx>= 0.0000 <Sy>= 0.0000 <Sz>= 0.5000 <S**2>= 0.7758 S= 0.5128
 <L.S>= 0.000000000000E+00
 KE= 1.132886496373D+03 PE=-3.289531476361D+03 EE= 7.403445020113D+02
 Annihilation of the first spin contaminant:
 S**2 before annihilation     0.7758,   after     0.7501
 Leave Link  502 at Tue Nov 28 22:03:20 2023, MaxMem=  1879048192 cpu:             174.3 elap:              16.0
 (Enter /home/sekinelabo/g16/l601.exe)
 Copying SCF densities to generalized density rwf, IOpCl= 1 IROHF=0.

 **********************************************************************

            Population analysis using the SCF Density.

 **********************************************************************

 Orbital symmetries:
 Alpha Orbitals:
       Occupied  (A) (A) (A) (A) (A) (A) (A) (A) (A) (A) (A) (A)
                 (A) (A) (A) (A) (A) (A) (A) (A) (A) (A) (A) (A)
                 (A) (A) (A) (A) (A) (A) (A) (A) (A) (A) (A) (A)
                 (A) (A) (A)
       Virtual   (A) (A) (A) (A) (A) (A) (A) (A) (A) (A) (A) (A)
                 (A) (A) (A) (A) (A) (A) (A) (A) (A) (A) (A) (A)
                 (A) (A) (A) (A) (A) (A) (A) (A) (A) (A) (A) (A)
                 (A) (A) (A) (A) (A) (A) (A) (A) (A) (A) (A) (A)
                 (A) (A) (A) (A) (A) (A) (A) (A) (A) (A) (A) (A)
                 (A) (A) (A) (A) (A) (A) (A) (A) (A) (A) (A) (A)
                 (A) (A) (A) (A) (A) (A) (A) (A) (A) (A) (A) (A)
                 (A) (A) (A) (A) (A) (A) (A) (A) (A) (A) (A) (A)
                 (A) (A) (A) (A) (A) (A) (A) (A) (A) (A) (A) (A)
                 (A) (A) (A) (A) (A) (A) (A) (A) (A) (A) (A) (A)
                 (A) (A) (A) (A) (A) (A) (A) (A) (A) (A) (A) (A)
                 (A) (A) (A) (A) (A) (A) (A) (A) (A) (A) (A) (A)
                 (A) (A) (A) (A) (A) (A) (A) (A) (A) (A) (A) (A)
                 (A) (A) (A) (A) (A) (A) (A) (A) (A) (A) (A) (A)
                 (A) (A) (A)
 Beta  Orbitals:
       Occupied  (A) (A) (A) (A) (A) (A) (A) (A) (A) (A) (A) (A)
                 (A) (A) (A) (A) (A) (A) (A) (A) (A) (A) (A) (A)
                 (A) (A) (A) (A) (A) (A) (A) (A) (A) (A) (A) (A)
                 (A) (A)
       Virtual   (A) (A) (A) (A) (A) (A) (A) (A) (A) (A) (A) (A)
                 (A) (A) (A) (A) (A) (A) (A) (A) (A) (A) (A) (A)
                 (A) (A) (A) (A) (A) (A) (A) (A) (A) (A) (A) (A)
                 (A) (A) (A) (A) (A) (A) (A) (A) (A) (A) (A) (A)
                 (A) (A) (A) (A) (A) (A) (A) (A) (A) (A) (A) (A)
                 (A) (A) (A) (A) (A) (A) (A) (A) (A) (A) (A) (A)
                 (A) (A) (A) (A) (A) (A) (A) (A) (A) (A) (A) (A)
                 (A) (A) (A) (A) (A) (A) (A) (A) (A) (A) (A) (A)
                 (A) (A) (A) (A) (A) (A) (A) (A) (A) (A) (A) (A)
                 (A) (A) (A) (A) (A) (A) (A) (A) (A) (A) (A) (A)
                 (A) (A) (A) (A) (A) (A) (A) (A) (A) (A) (A) (A)
                 (A) (A) (A) (A) (A) (A) (A) (A) (A) (A) (A) (A)
                 (A) (A) (A) (A) (A) (A) (A) (A) (A) (A) (A) (A)
                 (A) (A) (A) (A) (A) (A) (A) (A) (A) (A) (A) (A)
                 (A) (A) (A) (A)
 The electronic state is 2-A.
 Alpha  occ. eigenvalues --  -38.45107 -38.44696 -38.44502 -38.44480 -38.43488
 Alpha  occ. eigenvalues --  -38.43360 -38.43172  -2.20887  -2.20517  -2.20327
 Alpha  occ. eigenvalues --   -2.20318  -2.19388  -2.19178  -2.18994  -1.14516
 Alpha  occ. eigenvalues --   -1.14516  -1.14487  -1.14229  -1.14213  -1.14092
 Alpha  occ. eigenvalues --   -1.14064  -1.14016  -1.14010  -1.13972  -1.13952
 Alpha  occ. eigenvalues --   -1.13851  -1.13095  -1.13068  -1.13062  -1.12866
 Alpha  occ. eigenvalues --   -1.12846  -1.12803  -1.12657  -1.12643  -1.12612
 Alpha  occ. eigenvalues --   -0.16831  -0.13857  -0.12548  -0.11327
 Alpha virt. eigenvalues --   -0.06051  -0.05499  -0.04571  -0.03891  -0.02633
 Alpha virt. eigenvalues --   -0.02340  -0.02000  -0.01558  -0.01503  -0.00760
 Alpha virt. eigenvalues --   -0.00542  -0.00035   0.00082   0.00335   0.00648
 Alpha virt. eigenvalues --    0.00808   0.00873   0.01005   0.01114   0.01266
 Alpha virt. eigenvalues --    0.01448   0.01518   0.01660   0.01679   0.01907
 Alpha virt. eigenvalues --    0.01945   0.01997   0.02127   0.02228   0.02461
 Alpha virt. eigenvalues --    0.02542   0.02681   0.02802   0.02855   0.03017
 Alpha virt. eigenvalues --    0.03109   0.03284   0.03334   0.03512   0.03581
 Alpha virt. eigenvalues --    0.03701   0.03793   0.03931   0.04122   0.04280
 Alpha virt. eigenvalues --    0.04502   0.04916   0.05132   0.05315   0.05409
 Alpha virt. eigenvalues --    0.05764   0.06561   0.06842   0.06953   0.07380
 Alpha virt. eigenvalues --    0.07614   0.07983   0.08122   0.08246   0.08386
 Alpha virt. eigenvalues --    0.08592   0.08936   0.09505   0.09861   0.10137
 Alpha virt. eigenvalues --    0.10411   0.10617   0.11142   0.11982   0.12313
 Alpha virt. eigenvalues --    0.12509   0.12817   0.13163   0.13702   0.13908
 Alpha virt. eigenvalues --    0.14591   0.15186   0.15639   0.16294   0.18561
 Alpha virt. eigenvalues --    0.27075   0.27495   0.28190   0.29282   0.29492
 Alpha virt. eigenvalues --    0.30823   0.31132   0.31888   0.32373   0.33438
 Alpha virt. eigenvalues --    0.34138   0.34406   0.34611   0.35773   0.36129
 Alpha virt. eigenvalues --    0.36975   0.37458   0.37704   0.39036   0.39702
 Alpha virt. eigenvalues --    0.40036   0.41032   0.42086   0.42601   0.42665
 Alpha virt. eigenvalues --    0.42827   0.43276   0.43500   0.43989   0.44302
 Alpha virt. eigenvalues --    0.44700   0.44800   0.45323   0.45630   0.45905
 Alpha virt. eigenvalues --    0.46244   0.46569   0.46719   0.47604   0.48157
 Alpha virt. eigenvalues --    0.48525   0.49347   0.49737   0.50883   0.51740
 Alpha virt. eigenvalues --    0.52160   0.52774   0.54008   0.54714   0.55460
 Alpha virt. eigenvalues --    0.56174   0.58815   0.61205   0.65856   0.68984
 Alpha virt. eigenvalues --    0.74453   2.02358   2.05821   2.11054   2.13015
 Alpha virt. eigenvalues --    2.16184   2.18049   2.21548   4.42005   4.42717
 Alpha virt. eigenvalues --    4.43947   4.44071   4.44088   4.44780   4.45011
 Alpha virt. eigenvalues --    4.45430   4.45560   4.46035   4.46541   4.46857
 Alpha virt. eigenvalues --    4.47440   4.47680   4.48626   4.49811   4.50424
 Alpha virt. eigenvalues --    4.52351   4.57657   4.62978   4.66428  96.21560
 Alpha virt. eigenvalues --   96.26040  96.32186  96.34717  96.38591  96.40518
 Alpha virt. eigenvalues --   96.45075
  Beta  occ. eigenvalues --  -38.44963 -38.44663 -38.44495 -38.44471 -38.43481
  Beta  occ. eigenvalues --  -38.43366 -38.43163  -2.20620  -2.20457  -2.20312
  Beta  occ. eigenvalues --   -2.20302  -2.19377  -2.19197  -2.18975  -1.14335
  Beta  occ. eigenvalues --   -1.14335  -1.14308  -1.14191  -1.14173  -1.14058
  Beta  occ. eigenvalues --   -1.14037  -1.14002  -1.13994  -1.13963  -1.13942
  Beta  occ. eigenvalues --   -1.13841  -1.13086  -1.13067  -1.13044  -1.12883
  Beta  occ. eigenvalues --   -1.12864  -1.12771  -1.12645  -1.12630  -1.12600
  Beta  occ. eigenvalues --   -0.16498  -0.13411  -0.11905
  Beta virt. eigenvalues --   -0.07627  -0.05790  -0.05291  -0.04219  -0.03772
  Beta virt. eigenvalues --   -0.02320  -0.02144  -0.01430  -0.01373  -0.01077
  Beta virt. eigenvalues --   -0.00397  -0.00246   0.00169   0.00203   0.00496
  Beta virt. eigenvalues --    0.00673   0.00850   0.00955   0.01083   0.01216
  Beta virt. eigenvalues --    0.01319   0.01524   0.01605   0.01744   0.01788
  Beta virt. eigenvalues --    0.01994   0.02057   0.02112   0.02224   0.02388
  Beta virt. eigenvalues --    0.02504   0.02670   0.02730   0.02890   0.02982
  Beta virt. eigenvalues --    0.03081   0.03141   0.03327   0.03347   0.03566
  Beta virt. eigenvalues --    0.03615   0.03740   0.03854   0.03971   0.04175
  Beta virt. eigenvalues --    0.04403   0.04550   0.04975   0.05200   0.05407
  Beta virt. eigenvalues --    0.05437   0.05847   0.06602   0.06959   0.07000
  Beta virt. eigenvalues --    0.07458   0.07683   0.08170   0.08294   0.08322
  Beta virt. eigenvalues --    0.08929   0.09114   0.09223   0.09578   0.09927
  Beta virt. eigenvalues --    0.10221   0.10500   0.10744   0.11217   0.12241
  Beta virt. eigenvalues --    0.12417   0.12618   0.12839   0.13330   0.13762
  Beta virt. eigenvalues --    0.14077   0.14766   0.15255   0.15674   0.16361
  Beta virt. eigenvalues --    0.18585   0.27175   0.27691   0.28508   0.29342
  Beta virt. eigenvalues --    0.29699   0.30961   0.31307   0.32000   0.32552
  Beta virt. eigenvalues --    0.33852   0.34657   0.35705   0.35957   0.36275
  Beta virt. eigenvalues --    0.36512   0.37663   0.37829   0.37947   0.39036
  Beta virt. eigenvalues --    0.39747   0.40203   0.41212   0.42183   0.42702
  Beta virt. eigenvalues --    0.42805   0.43000   0.43710   0.43841   0.44032
  Beta virt. eigenvalues --    0.44393   0.44782   0.44911   0.45359   0.45752
  Beta virt. eigenvalues --    0.45947   0.46357   0.46615   0.46817   0.47508
  Beta virt. eigenvalues --    0.48198   0.48657   0.49435   0.49759   0.51027
  Beta virt. eigenvalues --    0.51796   0.52291   0.52845   0.54119   0.54718
  Beta virt. eigenvalues --    0.55468   0.56314   0.58929   0.61325   0.65792
  Beta virt. eigenvalues --    0.69045   0.74456   2.02486   2.06364   2.11086
  Beta virt. eigenvalues --    2.13060   2.16217   2.18110   2.21552   4.42015
  Beta virt. eigenvalues --    4.42739   4.44096   4.44157   4.44273   4.44823
  Beta virt. eigenvalues --    4.45076   4.45485   4.45658   4.46050   4.46546
  Beta virt. eigenvalues --    4.46868   4.47440   4.47681   4.48652   4.49847
  Beta virt. eigenvalues --    4.50483   4.52374   4.57660   4.62995   4.66440
  Beta virt. eigenvalues --   96.21602  96.26217  96.32197  96.34735  96.38602
  Beta virt. eigenvalues --   96.40536  96.45079
          Condensed to atoms (all electrons):
               1          2          3          4          5          6
     1  Na  13.191636  -0.490282  -0.020922   1.045104  -2.616546   1.030656
     2  Na  -0.490282  10.834548  -0.112284   0.214616  -0.159735  -0.084370
     3  Na  -0.020922  -0.112284  11.387685   0.403472   1.036308  -1.018249
     4  Na   1.045104   0.214616   0.403472  12.691101  -2.394266  -0.222972
     5  Na  -2.616546  -0.159735   1.036308  -2.394266  17.103352  -2.271884
     6  Na   1.030656  -0.084370  -1.018249  -0.222972  -2.271884  12.295952
     7  Na  -0.141004   0.012661  -0.060093  -0.160098   0.217548   0.070062
               7
     1  Na  -0.141004
     2  Na   0.012661
     3  Na  -0.060093
     4  Na  -0.160098
     5  Na   0.217548
     6  Na   0.070062
     7  Na  10.940281
          Atomic-Atomic Spin Densities.
               1          2          3          4          5          6
     1  Na   0.667546   0.147274  -0.148503   0.936407  -1.801333   0.388102
     2  Na   0.147274   0.008269  -0.040079   0.077506  -0.180302   0.071089
     3  Na  -0.148503  -0.040079   0.214854  -0.192451   0.460649  -0.188686
     4  Na   0.936407   0.077506  -0.192451   1.242109  -2.050021   0.416014
     5  Na  -1.801333  -0.180302   0.460649  -2.050021   3.864078  -0.999038
     6  Na   0.388102   0.071089  -0.188686   0.416014  -0.999038   0.424405
     7  Na  -0.169823  -0.024862   0.014333  -0.251037   0.521411  -0.054763
               7
     1  Na  -0.169823
     2  Na  -0.024862
     3  Na   0.014333
     4  Na  -0.251037
     5  Na   0.521411
     6  Na  -0.054763
     7  Na   0.714963
 Mulliken charges and spin densities:
               1          2
     1  Na  -0.998642   0.019670
     2  Na   0.784847   0.058895
     3  Na  -0.615917   0.120118
     4  Na  -0.576958   0.178525
     5  Na   0.085222  -0.184555
     6  Na   1.200805   0.057123
     7  Na   0.120643   0.750224
 Sum of Mulliken charges =  -0.00000   1.00000
 Mulliken charges and spin densities with hydrogens summed into heavy atoms:
               1          2
     1  Na  -0.998642   0.019670
     2  Na   0.784847   0.058895
     3  Na  -0.615917   0.120118
     4  Na  -0.576958   0.178525
     5  Na   0.085222  -0.184555
     6  Na   1.200805   0.057123
     7  Na   0.120643   0.750224
 Electronic spatial extent (au):  <R**2>=           4320.9819
 Charge=             -0.0000 electrons
 Dipole moment (field-independent basis, Debye):
    X=              1.4849    Y=             -1.0075    Z=             -0.5085  Tot=              1.8651
 Quadrupole moment (field-independent basis, Debye-Ang):
   XX=            -59.4504   YY=            -65.1904   ZZ=            -70.8864
   XY=             -6.3717   XZ=             -0.4731   YZ=              0.3574
 Traceless Quadrupole moment (field-independent basis, Debye-Ang):
   XX=              5.7253   YY=             -0.0146   ZZ=             -5.7107
   XY=             -6.3717   XZ=             -0.4731   YZ=              0.3574
 Octapole moment (field-independent basis, Debye-Ang**2):
  XXX=             55.5577  YYY=             -5.1895  ZZZ=              2.2416  XYY=             35.5782
  XXY=            -33.3326  XXZ=            -19.9346  XZZ=              0.1073  YZZ=             -0.1381
  YYZ=            -15.7088  XYZ=              2.8744
 Hexadecapole moment (field-independent basis, Debye-Ang**3):
 XXXX=          -4564.3851 YYYY=          -1748.7176 ZZZZ=           -463.7093 XXXY=           -210.6875
 XXXZ=             64.0095 YYYX=           -115.1143 YYYZ=            -39.1341 ZZZX=            -11.9332
 ZZZY=              5.2554 XXYY=          -1050.5504 XXZZ=           -899.1067 YYZZ=           -389.2023
 XXYZ=             43.8102 YYXZ=            -41.6937 ZZXY=            -11.6645
 N-N= 2.801804016295D+02 E-N=-3.289531476363D+03  KE= 1.132886496373D+03
                          Isotropic Fermi Contact Couplings
        Atom                 a.u.       MegaHertz       Gauss      10(-4) cm-1
     1  Na(23)             0.01244      14.71388       5.25028       4.90802
     2  Na(23)             0.04447      52.61117      18.77297      17.54920
     3  Na(23)             0.03343      39.55057      14.11263      13.19265
     4  Na(23)             0.12692     150.15251      53.57815      50.08549
     5  Na(23)            -0.09477    -112.11101     -40.00400     -37.39621
     6  Na(23)             0.02764      32.69799      11.66746      10.90688
     7  Na(23)             0.61409     726.48775     259.22890     242.33023
 --------------------------------------------------------
       Center         ----  Spin Dipole Couplings  ----
                      3XX-RR        3YY-RR        3ZZ-RR
 --------------------------------------------------------
     1   Atom       -0.018808      0.025484     -0.006676
     2   Atom        0.001379     -0.001209     -0.000170
     3   Atom        0.003867     -0.001816     -0.002050
     4   Atom        0.006563     -0.004049     -0.002514
     5   Atom        0.049661     -0.027311     -0.022350
     6   Atom       -0.002407      0.004216     -0.001809
     7   Atom       -0.002006      0.001473      0.000533
 --------------------------------------------------------
                        XY            XZ            YZ
 --------------------------------------------------------
     1   Atom       -0.000984      0.001123     -0.004730
     2   Atom       -0.001099      0.000657      0.001302
     3   Atom        0.000261     -0.002869     -0.000990
     4   Atom       -0.008208     -0.007886      0.003243
     5   Atom        0.001891      0.012850      0.001158
     6   Atom        0.003209      0.000327     -0.000146
     7   Atom       -0.000063     -0.002023     -0.000071
 --------------------------------------------------------


 ---------------------------------------------------------------------------------
              Anisotropic Spin Dipole Couplings in Principal Axis System
 ---------------------------------------------------------------------------------

       Atom             a.u.   MegaHertz   Gauss  10(-4) cm-1        Axes

              Baa    -0.0189    -2.672    -0.953    -0.891  0.9962  0.0129 -0.0864
     1 Na(23) Bbb    -0.0073    -1.027    -0.367    -0.343  0.0837  0.1449  0.9859
              Bcc     0.0262     3.699     1.320     1.234 -0.0252  0.9894 -0.1432
 
              Baa    -0.0025    -0.355    -0.127    -0.118  0.3122  0.7904 -0.5271
     2 Na(23) Bbb     0.0007     0.100     0.036     0.033  0.0574  0.5381  0.8409
              Bcc     0.0018     0.255     0.091     0.085  0.9483 -0.2928  0.1226
 
              Baa    -0.0036    -0.508    -0.181    -0.170  0.3115  0.4259  0.8494
     3 Na(23) Bbb    -0.0015    -0.210    -0.075    -0.070 -0.2390  0.9003 -0.3638
              Bcc     0.0051     0.718     0.256     0.240  0.9197  0.0897 -0.3823
 
              Baa    -0.0088    -1.247    -0.445    -0.416  0.5682  0.7580  0.3202
     4 Na(23) Bbb    -0.0063    -0.887    -0.317    -0.296  0.1959 -0.5025  0.8421
              Bcc     0.0151     2.134     0.762     0.712  0.7992 -0.4158 -0.4340
 
              Baa    -0.0276    -3.896    -1.390    -1.299  0.0201  0.9647 -0.2626
     5 Na(23) Bbb    -0.0244    -3.439    -1.227    -1.147 -0.1716  0.2621  0.9497
              Bcc     0.0519     7.334     2.617     2.446  0.9850  0.0260  0.1708
 
              Baa    -0.0038    -0.533    -0.190    -0.178  0.9117 -0.3695 -0.1794
     6 Na(23) Bbb    -0.0017    -0.246    -0.088    -0.082  0.1669 -0.0657  0.9838
              Bcc     0.0055     0.779     0.278     0.260  0.3753  0.9269 -0.0017
 
              Baa    -0.0031    -0.441    -0.158    -0.147  0.8749  0.0194  0.4839
     7 Na(23) Bbb     0.0015     0.207     0.074     0.069 -0.0984  0.9855  0.1385
              Bcc     0.0017     0.234     0.083     0.078 -0.4742 -0.1688  0.8641
 

 ---------------------------------------------------------------------------------

 No NMR shielding tensors so no spin-rotation constants.
 Leave Link  601 at Tue Nov 28 22:03:20 2023, MaxMem=  1879048192 cpu:               2.2 elap:               0.2
 (Enter /home/sekinelabo/g16/l701.exe)
 ... and contract with generalized density number  0.
 Compute integral first derivatives.
 Leave Link  701 at Tue Nov 28 22:03:21 2023, MaxMem=  1879048192 cpu:               1.5 elap:               0.1
 (Enter /home/sekinelabo/g16/l702.exe)
 L702 exits ... SP integral derivatives will be done elsewhere.
 Leave Link  702 at Tue Nov 28 22:03:21 2023, MaxMem=  1879048192 cpu:               0.4 elap:               0.0
 (Enter /home/sekinelabo/g16/l703.exe)
 Integral derivatives from FoFJK, PRISM(SPDF).
 Compute integral first derivatives, UseDBF=F ICtDFT=           0.
 Calling FoFJK, ICntrl=      2127 FMM=F ISym2X=0 I1Cent= 0 IOpClX= 1 NMat=1 NMatS=1 NMatT=0.
 FoFJK:  IHMeth= 1 ICntrl=    2127 DoSepK=F KAlg= 0 I1Cent=           0 FoldK=F
 IRaf=         0 NMat=       1 IRICut=       1 DoRegI=T DoRafI=F ISym2E= 0 IDoP0=0 IntGTp=1.
 FoFCou: FMM=F IPFlag=           0 FMFlag=      100000 FMFlg1=         800
         NFxFlg=           0 DoJE=F BraDBF=F KetDBF=F FulRan=T
         wScrn=  0.000000 ICntrl=      2127 IOpCl=  1 I1Cent=           0 NGrid=           0
         NMat0=    1 NMatS0=      1 NMatT0=    0 NMatD0=    1 NMtDS0=    0 NMtDT0=    0
 Symmetry not used in FoFCou.
 Leave Link  703 at Tue Nov 28 22:03:22 2023, MaxMem=  1879048192 cpu:              28.5 elap:               1.9
 (Enter /home/sekinelabo/g16/l716.exe)
 Dipole        = 5.84195959D-01-3.96380429D-01-2.00051482D-01
 ***** Axes restored to original set *****
 -------------------------------------------------------------------
 Center     Atomic                   Forces (Hartrees/Bohr)
 Number     Number              X              Y              Z
 -------------------------------------------------------------------
      1       11          -0.000088486   -0.001210940    0.001494358
      2       11           0.000825510    0.000301428    0.004211066
      3       11          -0.002222675    0.006256259   -0.001415569
      4       11          -0.000799199   -0.000135428   -0.000643854
      5       11           0.002673101   -0.002076373   -0.004025667
      6       11           0.000788534   -0.001934319   -0.001894971
      7       11          -0.001176784   -0.001200627    0.002274636
 -------------------------------------------------------------------
 Cartesian Forces:  Max     0.006256259 RMS     0.002319550
 Z-matrix is all fixed cartesians, so copy forces.
 Force constants in Cartesian coordinates: 
                1             2             3             4             5 
      1  0.757649D-01
      2 -0.528428D-02  0.858219D-01
      3  0.611213D-02  0.120812D-01  0.916241D-01
      4 -0.243300D-01 -0.912743D-02 -0.878348D-02  0.194664D-01
      5  0.178219D-02 -0.260704D-01  0.342698D-03 -0.363253D-03  0.409242D-01
      6 -0.313240D-02 -0.146054D-01 -0.290282D-01  0.383714D-02  0.970162D-02
      7 -0.120113D-01  0.411599D-02 -0.627953D-02 -0.108833D-01 -0.135666D-02
      8  0.106539D-02 -0.127511D-01  0.190716D-02  0.484804D-03 -0.138126D-01
      9  0.502412D-02 -0.466679D-02 -0.184031D-01  0.598390D-02 -0.673978D-02
     10 -0.192979D-01  0.571041D-02  0.616412D-03  0.414603D-02 -0.144648D-02
     11  0.364353D-02 -0.199842D-01 -0.697394D-02  0.348941D-02 -0.268376D-02
     12 -0.324347D-02 -0.630721D-03 -0.208388D-01  0.279885D-02 -0.276953D-02
     13 -0.231751D-01  0.279585D-02  0.109169D-01  0.703774D-02  0.108432D-02
     14 -0.423947D-02 -0.326698D-01 -0.924787D-02  0.297748D-02  0.154687D-02
     15 -0.317184D-02  0.144996D-02 -0.276414D-01 -0.684072D-03 -0.751446D-03
     16  0.266810D-02  0.167264D-02 -0.257209D-02  0.463078D-02  0.195057D-03
     17  0.121166D-02  0.157672D-02  0.402857D-02  0.252038D-02  0.124546D-03
     18 -0.275308D-02  0.410846D-02  0.545037D-02 -0.313084D-02  0.183112D-03
     19  0.381282D-03  0.116806D-03 -0.103761D-04 -0.676310D-04  0.104838D-03
     20  0.182099D-02  0.407705D-02 -0.213784D-02  0.186096D-04 -0.288476D-04
     21  0.116453D-02  0.226324D-02 -0.116300D-02 -0.214970D-04  0.333234D-04
                6             7             8             9            10 
      6  0.341850D-01
      7  0.371587D-02  0.571443D-01
      8  0.124037D-01 -0.154171D-01  0.743815D-01
      9 -0.126005D-01 -0.116114D-01  0.531451D-03  0.832227D-01
     10  0.105197D-02 -0.179168D-01  0.548307D-02  0.992755D-03  0.755740D-01
     11 -0.404956D-02  0.556391D-02 -0.243912D-01  0.150893D-02 -0.117045D-01
     12  0.405196D-02  0.403374D-02 -0.495806D-02 -0.249213D-01 -0.567523D-02
     13 -0.316391D-02  0.511948D-02 -0.205611D-02 -0.792706D-03 -0.290028D-01
     14 -0.231665D-02 -0.231476D-02  0.660285D-02  0.427249D-03  0.340676D-02
     15  0.885333D-03 -0.155969D-02 -0.318020D-03 -0.262294D-02  0.625306D-02
     16 -0.223600D-02 -0.214917D-01  0.104198D-01  0.409568D-03 -0.176820D-01
     17 -0.115375D-02  0.936671D-02 -0.300623D-01  0.894534D-02 -0.472013D-03
     18  0.252948D-02  0.116601D-01 -0.959341D-02 -0.246684D-01 -0.466106D-02
     19 -0.726647D-04  0.392095D-04  0.200892D-04 -0.620003D-05  0.417944D-02
     20  0.199947D-04  0.418802D-04  0.328521D-04 -0.640714D-05 -0.977208D-03
     21 -0.230970D-04  0.409960D-04  0.271774D-04 -0.636594D-05  0.142209D-02
               11            12            13            14            15 
     11  0.864965D-01
     12  0.101080D-01  0.810473D-01
     13 -0.230957D-02 -0.277024D-02  0.439826D-01
     14 -0.203222D-01  0.780477D-02  0.123595D-02  0.492567D-01
     15 -0.835529D-02 -0.189525D-01 -0.186342D-02  0.253817D-02  0.541126D-01
     16  0.175937D-03  0.643594D-02  0.612995D-02  0.182141D-02 -0.225083D-02
     17 -0.184614D-01 -0.973360D-02  0.181725D-02  0.497914D-02  0.151241D-02
     18  0.758315D-02 -0.197462D-01 -0.125030D-02  0.139916D-02  0.132877D-02
     19  0.114133D-02 -0.157958D-02 -0.100919D-01 -0.288737D-02  0.327679D-02
     20 -0.653785D-03  0.179182D-03 -0.256769D-02 -0.939360D-02  0.392422D-02
     21  0.178735D-03 -0.640476D-03 -0.107635D-02 -0.604820D-03 -0.710987D-02
               16            17            18            19            20 
     16  0.257523D-01
     17 -0.144289D-01  0.415489D-01
     18  0.138872D-03 -0.375140D-02  0.350693D-01
     19 -0.739950D-05 -0.151294D-04 -0.364540D-05  0.556697D-02
     20  0.143987D-03  0.294403D-03  0.709356D-04  0.151943D-02  0.567193D-02
     21  0.745481D-04  0.152425D-03  0.367265D-04 -0.160432D-02 -0.205008D-02
               21 
     21  0.890608D-02
 Leave Link  716 at Tue Nov 28 22:03:23 2023, MaxMem=  1879048192 cpu:               0.4 elap:               0.0
 (Enter /home/sekinelabo/g16/l103.exe)

 GradGradGradGradGradGradGradGradGradGradGradGradGradGradGradGradGradGrad
 Berny optimization.
 Search for a local minimum.
 Step number   1 out of a maximum of    2
 All quantities printed in internal units (Hartrees-Bohrs-Radians)
 Second derivative matrix not updated -- first step.
 ITU=  0
     Eigenvalues ---    0.00673   0.00882   0.01801   0.02800   0.03600
     Eigenvalues ---    0.04750   0.05695   0.08308   0.08757   0.09264
     Eigenvalues ---    0.10050   0.11317   0.11347   0.13367   0.14189
 Quadratic step=3.114D-01 exceeds max=3.000D-01 adjusted using Lamda=-4.900D-04.
 Angle between NR and scaled steps=   1.25 degrees.
 Angle between quadratic step and forces=  45.52 degrees.
 Linear search not attempted -- first point.
 B after Tr=     0.000000   -0.000000    0.000000
         Rot=    1.000000   -0.000000   -0.000000   -0.000000 Ang=   0.00 deg.
 Variable       Old X    -DE/DX   Delta X   Delta X   Delta X     New X
                                 (Linear)    (Quad)   (Total)
    X1       26.45352  -0.00009   0.00000   0.00695   0.00695  26.46047
    Y1       31.33468  -0.00121   0.00000   0.01800   0.01800  31.35268
    Z1       28.75936   0.00149   0.00000   0.00192   0.00192  28.76128
    X2       27.75365   0.00083   0.00000  -0.00114  -0.00114  27.75251
    Y2       35.09203   0.00030   0.00000   0.00111   0.00111  35.09313
    Z2       32.97024   0.00421   0.00000   0.11409   0.11409  33.08433
    X3       29.18909  -0.00222   0.00000  -0.03097  -0.03097  29.15811
    Y3       28.08473   0.00626   0.00000   0.06925   0.06925  28.15399
    Z3       35.24887  -0.00142   0.00000  -0.05726  -0.05726  35.19161
    X4       30.12091  -0.00080   0.00000  -0.00434  -0.00434  30.11658
    Y4       25.54229  -0.00014   0.00000   0.03933   0.03933  25.58162
    Z4       29.27091  -0.00064   0.00000  -0.06042  -0.06042  29.21049
    X5       27.24305   0.00267   0.00000   0.05918   0.05918  27.30223
    Y5       28.30375  -0.00208   0.00000  -0.02725  -0.02725  28.27650
    Z5       23.65162  -0.00403   0.00000  -0.05558  -0.05558  23.59604
    X6       32.14972   0.00079   0.00000  -0.00625  -0.00625  32.14347
    Y6       23.03482  -0.00193   0.00000   0.01930   0.01930  23.05412
    Z6       35.55954  -0.00189   0.00000  -0.10941  -0.10941  35.45014
    X7       30.09483  -0.00118   0.00000  -0.02342  -0.02342  30.07141
    Y7       31.61247  -0.00120   0.00000  -0.11974  -0.11974  31.49273
    Z7       17.54403   0.00227   0.00000   0.16666   0.16666  17.71069
         Item               Value     Threshold  Converged?
 Maximum Force            0.006256     0.000450     NO 
 RMS     Force            0.002320     0.000300     NO 
 Maximum Displacement     0.166661     0.001800     NO 
 RMS     Displacement     0.065474     0.001200     NO 
 Predicted change in Energy=-1.139305D-03
 GradGradGradGradGradGradGradGradGradGradGradGradGradGradGradGradGradGrad

 Leave Link  103 at Tue Nov 28 22:03:23 2023, MaxMem=  1879048192 cpu:               0.2 elap:               0.0
 (Enter /home/sekinelabo/g16/l9999.exe)
 1\1\GINC-SEKINELABO-XA7R-R37\Force\UB3LYP\6-311+G(d)\Na7(2)\SEKINELABO
 \28-Nov-2023\0\\#P B3LYP/6-311+g(d) force\\DPGEN\\0,2\Na,13.9986,16.58
 16,15.2188\Na,14.6866,18.5699,17.4471\Na,15.4462,14.8618,18.6529\Na,15
 .9393,13.5164,15.4895\Na,14.4164,14.9777,12.5159\Na,17.0129,12.1895,18
 .8173\Na,15.9255,16.7286,9.2839\\Version=ES64L-G16RevB.01\State=2-A\HF
 =-1136.1200763\S2=0.77584\S2-1=0.\S2A=0.750115\RMSD=4.190e-09\RMSF=2.3
 20e-03\Dipole=0.3771487,-0.446219,0.4439262\Quadrupole=-3.1406942,1.92
 23053,1.218389,-2.6348402,1.9892784,-4.7208618\PG=C01 [X(Na7)]\\@


 OLD AGE AND TREACHERY WILL ALWAYS PREVAIL OVER YOUTH AND SKILL.
 Job cpu time:       0 days  0 hours  3 minutes 38.3 seconds.
 Elapsed time:       0 days  0 hours  0 minutes 19.0 seconds.
 File lengths (MBytes):  RWF=     32 Int=      0 D2E=      0 Chk=      4 Scr=      1
 Normal termination of Gaussian 16 at Tue Nov 28 22:03:23 2023.
