 Set GAUSS_MDEF to "14GB".
 Entering Gaussian System, Link 0=g16
 Initial command:
 /home/sekinelabo/g16/l1.exe "/home/sekinelabo/g16temp/Gau-906927.inp" -scrdir="/home/sekinelabo/g16temp/"
 Entering Link 1 = /home/sekinelabo/g16/l1.exe PID=    906929.
  
 Copyright (c) 1988-2017, Gaussian, Inc.  All Rights Reserved.
  
 This is part of the Gaussian(R) 16 program.  It is based on
 the Gaussian(R) 09 system (copyright 2009, Gaussian, Inc.),
 the Gaussian(R) 03 system (copyright 2003, Gaussian, Inc.),
 the Gaussian(R) 98 system (copyright 1998, Gaussian, Inc.),
 the Gaussian(R) 94 system (copyright 1995, Gaussian, Inc.),
 the Gaussian 92(TM) system (copyright 1992, Gaussian, Inc.),
 the Gaussian 90(TM) system (copyright 1990, Gaussian, Inc.),
 the Gaussian 88(TM) system (copyright 1988, Gaussian, Inc.),
 the Gaussian 86(TM) system (copyright 1986, Carnegie Mellon
 University), and the Gaussian 82(TM) system (copyright 1983,
 Carnegie Mellon University). Gaussian is a federally registered
 trademark of Gaussian, Inc.
  
 This software contains proprietary and confidential information,
 including trade secrets, belonging to Gaussian, Inc.
  
 This software is provided under written license and may be
 used, copied, transmitted, or stored only in accord with that
 written license.
  
 The following legend is applicable only to US Government
 contracts under FAR:
  
                    RESTRICTED RIGHTS LEGEND
  
 Use, reproduction and disclosure by the US Government is
 subject to restrictions as set forth in subparagraphs (a)
 and (c) of the Commercial Computer Software - Restricted
 Rights clause in FAR 52.227-19.
  
 Gaussian, Inc.
 340 Quinnipiac St., Bldg. 40, Wallingford CT 06492
  
  
 ---------------------------------------------------------------
 Warning -- This program may not be used in any manner that
 competes with the business of Gaussian, Inc. or will provide
 assistance to any competitor of Gaussian, Inc.  The licensee
 of this program is prohibited from giving any competitor of
 Gaussian, Inc. access to this program.  By using this program,
 the user acknowledges that Gaussian, Inc. is engaged in the
 business of creating and licensing software in the field of
 computational chemistry and represents and warrants to the
 licensee that it is not a competitor of Gaussian, Inc. and that
 it will not use this program in any manner prohibited above.
 ---------------------------------------------------------------
  

 Cite this work as:
 Gaussian 16, Revision B.01,
 M. J. Frisch, G. W. Trucks, H. B. Schlegel, G. E. Scuseria, 
 M. A. Robb, J. R. Cheeseman, G. Scalmani, V. Barone, 
 G. A. Petersson, H. Nakatsuji, X. Li, M. Caricato, A. V. Marenich, 
 J. Bloino, B. G. Janesko, R. Gomperts, B. Mennucci, H. P. Hratchian, 
 J. V. Ortiz, A. F. Izmaylov, J. L. Sonnenberg, D. Williams-Young, 
 F. Ding, F. Lipparini, F. Egidi, J. Goings, B. Peng, A. Petrone, 
 T. Henderson, D. Ranasinghe, V. G. Zakrzewski, J. Gao, N. Rega, 
 G. Zheng, W. Liang, M. Hada, M. Ehara, K. Toyota, R. Fukuda, 
 J. Hasegawa, M. Ishida, T. Nakajima, Y. Honda, O. Kitao, H. Nakai, 
 T. Vreven, K. Throssell, J. A. Montgomery, Jr., J. E. Peralta, 
 F. Ogliaro, M. J. Bearpark, J. J. Heyd, E. N. Brothers, K. N. Kudin, 
 V. N. Staroverov, T. A. Keith, R. Kobayashi, J. Normand, 
 K. Raghavachari, A. P. Rendell, J. C. Burant, S. S. Iyengar, 
 J. Tomasi, M. Cossi, J. M. Millam, M. Klene, C. Adamo, R. Cammi, 
 J. W. Ochterski, R. L. Martin, K. Morokuma, O. Farkas, 
 J. B. Foresman, and D. J. Fox, Gaussian, Inc., Wallingford CT, 2016.
 
 ******************************************
 Gaussian 16:  ES64L-G16RevB.01 20-Dec-2017
                 3-Dec-2023 
 ******************************************
 %nproc=15
 Will use up to   15 processors via shared memory.
 -------------------------
 #P B3LYP/6-311+g(d) force
 -------------------------
 1/10=7,30=1,38=1/1,3;
 2/12=2,17=6,18=5,40=1/2;
 3/5=4,6=6,7=11,11=2,25=1,30=1,71=1,74=-5/1,2,3;
 4//1;
 5/5=2,38=5/2;
 6/7=2,8=2,9=2,10=2,28=1/1;
 7/29=1/1,2,3,16;
 1/10=7,30=1/3;
 99//99;
 Leave Link    1 at Sun Dec  3 21:52:37 2023, MaxMem=           0 cpu:               0.3 elap:               0.0
 (Enter /home/sekinelabo/g16/l101.exe)
 -----
 DPGEN
 -----
 Symbolic Z-matrix:
 Charge =  0 Multiplicity = 2
 Na                    9.40229   12.597    12.8008 
 Na                    10.1821   15.3834   14.8278 
 Na                    10.2722   10.3896   10.3156 
 Na                    16.3856   14.4183   17.5135 
 Na                    13.6136   14.9529   16.4252 
 Na                    13.52     10.6888   8.90267 
 Na                    16.5365   11.4823   9.12678 
 
 ITRead=  0  0  0  0  0  0  0
 MicOpt= -1 -1 -1 -1 -1 -1 -1
 NAtoms=      7 NQM=        7 NQMF=       0 NMMI=      0 NMMIF=      0
                NMic=       0 NMicF=      0.
                    Isotopes and Nuclear Properties:
 (Nuclear quadrupole moments (NQMom) in fm**2, nuclear magnetic moments (NMagM)
  in nuclear magnetons)

  Atom         1           2           3           4           5           6           7
 IAtWgt=          23          23          23          23          23          23          23
 AtmWgt=  22.9897697  22.9897697  22.9897697  22.9897697  22.9897697  22.9897697  22.9897697
 NucSpn=           3           3           3           3           3           3           3
 AtZEff=  -0.0000000  -0.0000000  -0.0000000  -0.0000000  -0.0000000  -0.0000000  -0.0000000
 NQMom=   10.4000000  10.4000000  10.4000000  10.4000000  10.4000000  10.4000000  10.4000000
 NMagM=    2.2175200   2.2175200   2.2175200   2.2175200   2.2175200   2.2175200   2.2175200
 AtZNuc=  11.0000000  11.0000000  11.0000000  11.0000000  11.0000000  11.0000000  11.0000000
 Leave Link  101 at Sun Dec  3 21:52:37 2023, MaxMem=  1879048192 cpu:               2.5 elap:               0.2
 (Enter /home/sekinelabo/g16/l103.exe)

 GradGradGradGradGradGradGradGradGradGradGradGradGradGradGradGradGradGrad
 Berny optimization.
 Initialization pass.
 Trust Radius=3.00D-01 FncErr=1.00D-07 GrdErr=1.00D-07 EigMax=2.50D+02 EigMin=1.00D-04
 Number of steps in this run=      2 maximum allowed number of steps=      2.
 GradGradGradGradGradGradGradGradGradGradGradGradGradGradGradGradGradGrad

 Leave Link  103 at Sun Dec  3 21:52:37 2023, MaxMem=  1879048192 cpu:               0.2 elap:               0.0
 (Enter /home/sekinelabo/g16/l202.exe)
                          Input orientation:                          
 ---------------------------------------------------------------------
 Center     Atomic      Atomic             Coordinates (Angstroms)
 Number     Number       Type             X           Y           Z
 ---------------------------------------------------------------------
      1         11           0        9.402290   12.597000   12.800800
      2         11           0       10.182100   15.383400   14.827800
      3         11           0       10.272200   10.389600   10.315600
      4         11           0       16.385600   14.418300   17.513500
      5         11           0       13.613600   14.952900   16.425200
      6         11           0       13.520000   10.688800    8.902670
      7         11           0       16.536500   11.482300    9.126780
 ---------------------------------------------------------------------
                    Distance matrix (angstroms):
                    1          2          3          4          5
     1  Na   0.000000
     2  Na   3.532826   0.000000
     3  Na   3.435925   6.730981   0.000000
     4  Na   8.619356   6.828456  10.267125   0.000000
     5  Na   6.035037   3.809489   8.325615   3.025587   0.000000
     6  Na   5.982657   8.263656   3.554447   9.811586   8.647530
     7  Na   8.101724   9.386086   6.469060   8.887066   8.593913
                    6          7
     6  Na   0.000000
     7  Na   3.127162   0.000000
 Stoichiometry    Na7(2)
 Framework group  C1[X(Na7)]
 Deg. of freedom    15
 Full point group                 C1      NOp   1
 Largest Abelian subgroup         C1      NOp   1
 Largest concise Abelian subgroup C1      NOp   1
                         Standard orientation:                         
 ---------------------------------------------------------------------
 Center     Atomic      Atomic             Coordinates (Angstroms)
 Number     Number       Type             X           Y           Z
 ---------------------------------------------------------------------
      1         11           0       -0.489357   -3.405708   -0.272952
      2         11           0        2.701587   -2.963575    1.177308
      3         11           0       -3.637860   -2.211746   -0.956297
      4         11           0        5.160111    3.079363   -0.839214
      5         11           0        4.208894    0.364069    0.097025
      6         11           0       -4.407000    1.102651    0.071951
      7         11           0       -3.536375    4.034946    0.722177
 ---------------------------------------------------------------------
 Rotational constants (GHZ):           0.3925456           0.2183937           0.1471145
 Leave Link  202 at Sun Dec  3 21:52:37 2023, MaxMem=  1879048192 cpu:               0.0 elap:               0.0
 (Enter /home/sekinelabo/g16/l301.exe)
 Standard basis: 6-311+G(d) (5D, 7F)
 Ernie: Thresh=  0.10000D-02 Tol=  0.10000D-05 Strict=F.
 There are   217 symmetry adapted cartesian basis functions of A   symmetry.
 There are   210 symmetry adapted basis functions of A   symmetry.
   210 basis functions,   350 primitive gaussians,   217 cartesian basis functions
    39 alpha electrons       38 beta electrons
       nuclear repulsion energy       235.7366578297 Hartrees.
 IExCor=  402 DFT=T Ex+Corr=B3LYP ExCW=0 ScaHFX=  0.200000
 ScaDFX=  0.800000  0.720000  1.000000  0.810000 ScalE2=  1.000000  1.000000
 IRadAn=      5 IRanWt=     -1 IRanGd=            0 ICorTp=0 IEmpDi=  4
 NAtoms=    7 NActive=    7 NUniq=    7 SFac= 1.00D+00 NAtFMM=   60 NAOKFM=F Big=F
 Integral buffers will be    131072 words long.
 Raffenetti 2 integral format.
 Two-electron integral symmetry is turned on.
 Leave Link  301 at Sun Dec  3 21:52:37 2023, MaxMem=  1879048192 cpu:               0.5 elap:               0.0
 (Enter /home/sekinelabo/g16/l302.exe)
 NPDir=0 NMtPBC=     1 NCelOv=     1 NCel=       1 NClECP=     1 NCelD=      1
         NCelK=      1 NCelE2=     1 NClLst=     1 CellRange=     0.0.
 One-electron integrals computed using PRISM.
 One-electron integral symmetry used in STVInt
 NBasis=   210 RedAO= T EigKep=  3.16D-06  NBF=   210
 NBsUse=   210 1.00D-06 EigRej= -1.00D+00 NBFU=   210
 Precomputing XC quadrature grid using
 IXCGrd= 4 IRadAn=           5 IRanWt=          -1 IRanGd=           0 AccXCQ= 0.00D+00.
 Generated NRdTot=       0 NPtTot=           0 NUsed=           0 NTot=          32
 NSgBfM=   193   193   193   193   193 MxSgAt=     7 MxSgA2=     7.
 Leave Link  302 at Sun Dec  3 21:52:37 2023, MaxMem=  1879048192 cpu:               2.0 elap:               0.1
 (Enter /home/sekinelabo/g16/l303.exe)
 DipDrv:  MaxL=1.
 Leave Link  303 at Sun Dec  3 21:52:37 2023, MaxMem=  1879048192 cpu:               0.5 elap:               0.0
 (Enter /home/sekinelabo/g16/l401.exe)
 ExpMin= 7.60D-03 ExpMax= 3.62D+04 ExpMxC= 1.21D+03 IAcc=3 IRadAn=         5 AccDes= 0.00D+00
 Harris functional with IExCor=  402 and IRadAn=       5 diagonalized for initial guess.
 HarFok:  IExCor=  402 AccDes= 0.00D+00 IRadAn=         5 IDoV= 1 UseB2=F ITyADJ=14
 ICtDFT=  3500011 ScaDFX=  1.000000  1.000000  1.000000  1.000000
 FoFCou: FMM=F IPFlag=           0 FMFlag=      100000 FMFlg1=           0
         NFxFlg=           0 DoJE=T BraDBF=F KetDBF=T FulRan=T
         wScrn=  0.000000 ICntrl=       500 IOpCl=  0 I1Cent=   200000004 NGrid=           0
         NMat0=    1 NMatS0=      1 NMatT0=    0 NMatD0=    1 NMtDS0=    0 NMtDT0=    0
 Petite list used in FoFCou.
 Harris En= -1135.87811812760    
 JPrj=0 DoOrth=F DoCkMO=F.
 Initial guess <Sx>= 0.0000 <Sy>= 0.0000 <Sz>= 0.5000 <S**2>= 0.7500 S= 0.5000
 Leave Link  401 at Sun Dec  3 21:52:38 2023, MaxMem=  1879048192 cpu:               4.0 elap:               0.3
 (Enter /home/sekinelabo/g16/l502.exe)
 Keep R1 and R2 ints in memory in canonical form, NReq=506573279.
 FoFCou: FMM=F IPFlag=           0 FMFlag=           0 FMFlg1=           0
         NFxFlg=           0 DoJE=F BraDBF=F KetDBF=F FulRan=T
         wScrn=  0.000000 ICntrl=       600 IOpCl=  0 I1Cent=           0 NGrid=           0
         NMat0=    1 NMatS0=  22155 NMatT0=    0 NMatD0=    1 NMtDS0=    0 NMtDT0=    0
 Symmetry not used in FoFCou.
 Two-electron integral symmetry not used.
 UHF open shell SCF:
 Using DIIS extrapolation, IDIIS=  1040.
 NGot=  1879048192 LenX=  1388082621 LenY=  1388035091
 Requested convergence on RMS density matrix=1.00D-08 within 128 cycles.
 Requested convergence on MAX density matrix=1.00D-06.
 Requested convergence on             energy=1.00D-06.
 No special actions if energy rises.

 Cycle   1  Pass 1  IDiag  1:
 E= -1136.08310751214    
 DIIS: error= 1.07D-02 at cycle   1 NSaved=   1.
 NSaved= 1 IEnMin= 1 EnMin= -1136.08310751214     IErMin= 1 ErrMin= 1.07D-02
 ErrMax= 1.07D-02  0.00D+00 EMaxC= 1.00D-01 BMatC= 1.81D-01 BMatP= 1.81D-01
 IDIUse=3 WtCom= 8.93D-01 WtEn= 1.07D-01
 Coeff-Com:  0.100D+01
 Coeff-En:   0.100D+01
 Coeff:      0.100D+01
 Gap=     0.045 Goal=   None    Shift=    0.000
 Gap=     0.029 Goal=   None    Shift=    0.000
 GapD=    0.029 DampG=0.250 DampE=0.500 DampFc=0.2500 IDamp=-1.
 Damping current iteration by 2.50D-01
 RMSDP=1.82D-02 MaxDP=2.10D+00              OVMax= 1.14D-01

 Cycle   2  Pass 1  IDiag  1:
 E= -1136.09048017299     Delta-E=       -0.007372660849 Rises=F Damp=T
 DIIS: error= 7.72D-03 at cycle   2 NSaved=   2.
 NSaved= 2 IEnMin= 2 EnMin= -1136.09048017299     IErMin= 2 ErrMin= 7.72D-03
 ErrMax= 7.72D-03  0.00D+00 EMaxC= 1.00D-01 BMatC= 7.02D-02 BMatP= 1.81D-01
 IDIUse=3 WtCom= 9.23D-01 WtEn= 7.72D-02
 Coeff-Com: -0.131D+01 0.231D+01
 Coeff-En:   0.000D+00 0.100D+01
 Coeff:     -0.121D+01 0.221D+01
 Gap=     0.045 Goal=   None    Shift=    0.000
 Gap=     0.032 Goal=   None    Shift=    0.000
 RMSDP=1.20D-02 MaxDP=1.25D+00 DE=-7.37D-03 OVMax= 5.48D-02

 Cycle   3  Pass 1  IDiag  1:
 E= -1136.10598795679     Delta-E=       -0.015507783806 Rises=F Damp=F
 DIIS: error= 4.07D-04 at cycle   3 NSaved=   3.
 NSaved= 3 IEnMin= 3 EnMin= -1136.10598795679     IErMin= 3 ErrMin= 4.07D-04
 ErrMax= 4.07D-04  0.00D+00 EMaxC= 1.00D-01 BMatC= 1.47D-04 BMatP= 7.02D-02
 IDIUse=3 WtCom= 9.96D-01 WtEn= 4.07D-03
 Coeff-Com:  0.697D-03 0.538D-02 0.994D+00
 Coeff-En:   0.000D+00 0.000D+00 0.100D+01
 Coeff:      0.695D-03 0.535D-02 0.994D+00
 Gap=     0.047 Goal=   None    Shift=    0.000
 Gap=     0.034 Goal=   None    Shift=    0.000
 RMSDP=1.44D-03 MaxDP=1.77D-01 DE=-1.55D-02 OVMax= 3.97D-02

 Cycle   4  Pass 1  IDiag  1:
 E= -1136.10599648147     Delta-E=       -0.000008524675 Rises=F Damp=F
 DIIS: error= 6.06D-04 at cycle   4 NSaved=   4.
 NSaved= 4 IEnMin= 4 EnMin= -1136.10599648147     IErMin= 3 ErrMin= 4.07D-04
 ErrMax= 6.06D-04  0.00D+00 EMaxC= 1.00D-01 BMatC= 1.90D-04 BMatP= 1.47D-04
 IDIUse=3 WtCom= 2.89D-01 WtEn= 7.11D-01
 Coeff-Com:  0.723D-02-0.985D-02 0.540D+00 0.463D+00
 Coeff-En:   0.000D+00 0.000D+00 0.487D+00 0.513D+00
 Coeff:      0.209D-02-0.285D-02 0.502D+00 0.499D+00
 Gap=     0.047 Goal=   None    Shift=    0.000
 Gap=     0.033 Goal=   None    Shift=    0.000
 RMSDP=8.67D-04 MaxDP=8.90D-02 DE=-8.52D-06 OVMax= 3.02D-02

 Cycle   5  Pass 1  IDiag  1:
 E= -1136.10623110751     Delta-E=       -0.000234626044 Rises=F Damp=F
 DIIS: error= 2.44D-04 at cycle   5 NSaved=   5.
 NSaved= 5 IEnMin= 5 EnMin= -1136.10623110751     IErMin= 5 ErrMin= 2.44D-04
 ErrMax= 2.44D-04  0.00D+00 EMaxC= 1.00D-01 BMatC= 2.46D-05 BMatP= 1.47D-04
 IDIUse=3 WtCom= 9.98D-01 WtEn= 2.44D-03
 Coeff-Com: -0.131D-02 0.948D-03 0.109D+00 0.261D+00 0.631D+00
 Coeff-En:   0.000D+00 0.000D+00 0.000D+00 0.489D-01 0.951D+00
 Coeff:     -0.131D-02 0.946D-03 0.108D+00 0.260D+00 0.632D+00
 Gap=     0.047 Goal=   None    Shift=    0.000
 Gap=     0.034 Goal=   None    Shift=    0.000
 RMSDP=1.89D-04 MaxDP=1.76D-02 DE=-2.35D-04 OVMax= 1.34D-02

 Cycle   6  Pass 1  IDiag  1:
 E= -1136.10628840582     Delta-E=       -0.000057298308 Rises=F Damp=F
 DIIS: error= 9.99D-05 at cycle   6 NSaved=   6.
 NSaved= 6 IEnMin= 6 EnMin= -1136.10628840582     IErMin= 6 ErrMin= 9.99D-05
 ErrMax= 9.99D-05  0.00D+00 EMaxC= 1.00D-01 BMatC= 3.28D-06 BMatP= 2.46D-05
 IDIUse=1 WtCom= 1.00D+00 WtEn= 0.00D+00
 Coeff-Com: -0.392D-02 0.517D-02-0.179D+00-0.126D+00 0.959D-01 0.121D+01
 Coeff:     -0.392D-02 0.517D-02-0.179D+00-0.126D+00 0.959D-01 0.121D+01
 Gap=     0.047 Goal=   None    Shift=    0.000
 Gap=     0.034 Goal=   None    Shift=    0.000
 RMSDP=1.85D-04 MaxDP=9.83D-03 DE=-5.73D-05 OVMax= 1.41D-02

 Cycle   7  Pass 1  IDiag  1:
 E= -1136.10631682207     Delta-E=       -0.000028416249 Rises=F Damp=F
 DIIS: error= 4.74D-05 at cycle   7 NSaved=   7.
 NSaved= 7 IEnMin= 7 EnMin= -1136.10631682207     IErMin= 7 ErrMin= 4.74D-05
 ErrMax= 4.74D-05  0.00D+00 EMaxC= 1.00D-01 BMatC= 9.35D-07 BMatP= 3.28D-06
 IDIUse=1 WtCom= 1.00D+00 WtEn= 0.00D+00
 Coeff-Com: -0.328D-03 0.658D-03-0.952D-01-0.104D+00-0.114D+00 0.439D+00
 Coeff-Com:  0.874D+00
 Coeff:     -0.328D-03 0.658D-03-0.952D-01-0.104D+00-0.114D+00 0.439D+00
 Coeff:      0.874D+00
 Gap=     0.048 Goal=   None    Shift=    0.000
 Gap=     0.034 Goal=   None    Shift=    0.000
 RMSDP=9.50D-05 MaxDP=8.02D-03 DE=-2.84D-05 OVMax= 6.10D-03

 Cycle   8  Pass 1  IDiag  1:
 E= -1136.10632282908     Delta-E=       -0.000006007013 Rises=F Damp=F
 DIIS: error= 2.00D-05 at cycle   8 NSaved=   8.
 NSaved= 8 IEnMin= 8 EnMin= -1136.10632282908     IErMin= 8 ErrMin= 2.00D-05
 ErrMax= 2.00D-05  0.00D+00 EMaxC= 1.00D-01 BMatC= 2.05D-07 BMatP= 9.35D-07
 IDIUse=1 WtCom= 1.00D+00 WtEn= 0.00D+00
 Coeff-Com:  0.145D-02-0.181D-02 0.878D-02 0.713D-03-0.622D-01-0.167D+00
 Coeff-Com:  0.297D+00 0.923D+00
 Coeff:      0.145D-02-0.181D-02 0.878D-02 0.713D-03-0.622D-01-0.167D+00
 Coeff:      0.297D+00 0.923D+00
 Gap=     0.048 Goal=   None    Shift=    0.000
 Gap=     0.034 Goal=   None    Shift=    0.000
 RMSDP=4.80D-05 MaxDP=2.27D-03 DE=-6.01D-06 OVMax= 3.26D-03

 Cycle   9  Pass 1  IDiag  1:
 E= -1136.10632396732     Delta-E=       -0.000001138237 Rises=F Damp=F
 DIIS: error= 1.03D-05 at cycle   9 NSaved=   9.
 NSaved= 9 IEnMin= 9 EnMin= -1136.10632396732     IErMin= 9 ErrMin= 1.03D-05
 ErrMax= 1.03D-05  0.00D+00 EMaxC= 1.00D-01 BMatC= 1.96D-08 BMatP= 2.05D-07
 IDIUse=1 WtCom= 1.00D+00 WtEn= 0.00D+00
 Coeff-Com: -0.157D-03 0.197D-03 0.839D-02 0.153D-01 0.172D-01-0.490D-01
 Coeff-Com: -0.118D+00-0.104D-01 0.114D+01
 Coeff:     -0.157D-03 0.197D-03 0.839D-02 0.153D-01 0.172D-01-0.490D-01
 Coeff:     -0.118D+00-0.104D-01 0.114D+01
 Gap=     0.048 Goal=   None    Shift=    0.000
 Gap=     0.034 Goal=   None    Shift=    0.000
 RMSDP=2.11D-05 MaxDP=1.56D-03 DE=-1.14D-06 OVMax= 8.51D-04

 Cycle  10  Pass 1  IDiag  1:
 E= -1136.10632409839     Delta-E=       -0.000000131075 Rises=F Damp=F
 DIIS: error= 3.26D-06 at cycle  10 NSaved=  10.
 NSaved=10 IEnMin=10 EnMin= -1136.10632409839     IErMin=10 ErrMin= 3.26D-06
 ErrMax= 3.26D-06  0.00D+00 EMaxC= 1.00D-01 BMatC= 6.05D-09 BMatP= 1.96D-08
 IDIUse=1 WtCom= 1.00D+00 WtEn= 0.00D+00
 Coeff-Com: -0.384D-03 0.488D-03 0.111D-02 0.504D-02 0.168D-01 0.155D-01
 Coeff-Com: -0.976D-01-0.172D+00 0.446D+00 0.785D+00
 Coeff:     -0.384D-03 0.488D-03 0.111D-02 0.504D-02 0.168D-01 0.155D-01
 Coeff:     -0.976D-01-0.172D+00 0.446D+00 0.785D+00
 Gap=     0.048 Goal=   None    Shift=    0.000
 Gap=     0.034 Goal=   None    Shift=    0.000
 RMSDP=7.29D-06 MaxDP=4.57D-04 DE=-1.31D-07 OVMax= 3.29D-04

 Cycle  11  Pass 1  IDiag  1:
 E= -1136.10632411690     Delta-E=       -0.000000018512 Rises=F Damp=F
 DIIS: error= 1.97D-06 at cycle  11 NSaved=  11.
 NSaved=11 IEnMin=11 EnMin= -1136.10632411690     IErMin=11 ErrMin= 1.97D-06
 ErrMax= 1.97D-06  0.00D+00 EMaxC= 1.00D-01 BMatC= 1.60D-09 BMatP= 6.05D-09
 IDIUse=1 WtCom= 1.00D+00 WtEn= 0.00D+00
 Coeff-Com: -0.178D-03 0.225D-03-0.108D-02 0.249D-04 0.651D-02 0.174D-01
 Coeff-Com: -0.329D-01-0.933D-01 0.248D-01 0.400D+00 0.678D+00
 Coeff:     -0.178D-03 0.225D-03-0.108D-02 0.249D-04 0.651D-02 0.174D-01
 Coeff:     -0.329D-01-0.933D-01 0.248D-01 0.400D+00 0.678D+00
 Gap=     0.048 Goal=   None    Shift=    0.000
 Gap=     0.034 Goal=   None    Shift=    0.000
 RMSDP=3.95D-06 MaxDP=3.63D-04 DE=-1.85D-08 OVMax= 1.38D-04

 Cycle  12  Pass 1  IDiag  1:
 E= -1136.10632412114     Delta-E=       -0.000000004236 Rises=F Damp=F
 DIIS: error= 6.76D-07 at cycle  12 NSaved=  12.
 NSaved=12 IEnMin=12 EnMin= -1136.10632412114     IErMin=12 ErrMin= 6.76D-07
 ErrMax= 6.76D-07  0.00D+00 EMaxC= 1.00D-01 BMatC= 2.44D-10 BMatP= 1.60D-09
 IDIUse=1 WtCom= 1.00D+00 WtEn= 0.00D+00
 Coeff-Com:  0.682D-04-0.896D-04-0.646D-03-0.121D-02-0.235D-02 0.586D-03
 Coeff-Com:  0.157D-01 0.192D-01-0.120D+00-0.781D-01 0.269D+00 0.897D+00
 Coeff:      0.682D-04-0.896D-04-0.646D-03-0.121D-02-0.235D-02 0.586D-03
 Coeff:      0.157D-01 0.192D-01-0.120D+00-0.781D-01 0.269D+00 0.897D+00
 Gap=     0.048 Goal=   None    Shift=    0.000
 Gap=     0.034 Goal=   None    Shift=    0.000
 RMSDP=1.43D-06 MaxDP=1.43D-04 DE=-4.24D-09 OVMax= 7.63D-05

 Cycle  13  Pass 1  IDiag  1:
 E= -1136.10632412197     Delta-E=       -0.000000000832 Rises=F Damp=F
 DIIS: error= 2.11D-07 at cycle  13 NSaved=  13.
 NSaved=13 IEnMin=13 EnMin= -1136.10632412197     IErMin=13 ErrMin= 2.11D-07
 ErrMax= 2.11D-07  0.00D+00 EMaxC= 1.00D-01 BMatC= 3.39D-11 BMatP= 2.44D-10
 IDIUse=1 WtCom= 1.00D+00 WtEn= 0.00D+00
 Coeff-Com:  0.381D-04-0.491D-04-0.122D-03-0.329D-03-0.129D-02-0.129D-02
 Coeff-Com:  0.760D-02 0.134D-01-0.356D-01-0.602D-01-0.132D-02 0.329D+00
 Coeff-Com:  0.750D+00
 Coeff:      0.381D-04-0.491D-04-0.122D-03-0.329D-03-0.129D-02-0.129D-02
 Coeff:      0.760D-02 0.134D-01-0.356D-01-0.602D-01-0.132D-02 0.329D+00
 Coeff:      0.750D+00
 Gap=     0.048 Goal=   None    Shift=    0.000
 Gap=     0.034 Goal=   None    Shift=    0.000
 RMSDP=3.34D-07 MaxDP=1.47D-05 DE=-8.32D-10 OVMax= 1.36D-05

 Cycle  14  Pass 1  IDiag  1:
 E= -1136.10632412205     Delta-E=       -0.000000000082 Rises=F Damp=F
 DIIS: error= 1.07D-07 at cycle  14 NSaved=  14.
 NSaved=14 IEnMin=14 EnMin= -1136.10632412205     IErMin=14 ErrMin= 1.07D-07
 ErrMax= 1.07D-07  0.00D+00 EMaxC= 1.00D-01 BMatC= 4.24D-12 BMatP= 3.39D-11
 IDIUse=1 WtCom= 1.00D+00 WtEn= 0.00D+00
 Coeff-Com: -0.114D-04 0.152D-04 0.116D-03 0.225D-03 0.335D-03-0.131D-03
 Coeff-Com: -0.266D-02-0.261D-02 0.245D-01 0.813D-02-0.678D-01-0.142D+00
 Coeff-Com:  0.347D-01 0.115D+01
 Coeff:     -0.114D-04 0.152D-04 0.116D-03 0.225D-03 0.335D-03-0.131D-03
 Coeff:     -0.266D-02-0.261D-02 0.245D-01 0.813D-02-0.678D-01-0.142D+00
 Coeff:      0.347D-01 0.115D+01
 Gap=     0.048 Goal=   None    Shift=    0.000
 Gap=     0.034 Goal=   None    Shift=    0.000
 RMSDP=3.66D-07 MaxDP=2.31D-05 DE=-8.19D-11 OVMax= 1.04D-05

 Cycle  15  Pass 1  IDiag  1:
 E= -1136.10632412208     Delta-E=       -0.000000000028 Rises=F Damp=F
 DIIS: error= 3.77D-08 at cycle  15 NSaved=  15.
 NSaved=15 IEnMin=15 EnMin= -1136.10632412208     IErMin=15 ErrMin= 3.77D-08
 ErrMax= 3.77D-08  0.00D+00 EMaxC= 1.00D-01 BMatC= 9.41D-13 BMatP= 4.24D-12
 IDIUse=1 WtCom= 1.00D+00 WtEn= 0.00D+00
 Coeff-Com: -0.105D-04 0.136D-04 0.486D-04 0.127D-03 0.340D-03 0.181D-03
 Coeff-Com: -0.215D-02-0.292D-02 0.122D-01 0.124D-01-0.170D-01-0.901D-01
 Coeff-Com: -0.145D+00 0.252D+00 0.980D+00
 Coeff:     -0.105D-04 0.136D-04 0.486D-04 0.127D-03 0.340D-03 0.181D-03
 Coeff:     -0.215D-02-0.292D-02 0.122D-01 0.124D-01-0.170D-01-0.901D-01
 Coeff:     -0.145D+00 0.252D+00 0.980D+00
 Gap=     0.048 Goal=   None    Shift=    0.000
 Gap=     0.034 Goal=   None    Shift=    0.000
 RMSDP=1.66D-07 MaxDP=1.32D-05 DE=-2.77D-11 OVMax= 4.71D-06

 Cycle  16  Pass 1  IDiag  1:
 E= -1136.10632412208     Delta-E=       -0.000000000003 Rises=F Damp=F
 DIIS: error= 1.84D-08 at cycle  16 NSaved=  16.
 NSaved=16 IEnMin=16 EnMin= -1136.10632412208     IErMin=16 ErrMin= 1.84D-08
 ErrMax= 1.84D-08  0.00D+00 EMaxC= 1.00D-01 BMatC= 1.52D-13 BMatP= 9.41D-13
 IDIUse=1 WtCom= 1.00D+00 WtEn= 0.00D+00
 Coeff-Com: -0.378D-06 0.411D-06-0.943D-05-0.660D-05 0.205D-04 0.702D-04
 Coeff-Com: -0.548D-04-0.259D-03-0.193D-02 0.192D-02 0.816D-02 0.980D-02
 Coeff-Com: -0.403D-01-0.172D+00 0.232D+00 0.963D+00
 Coeff:     -0.378D-06 0.411D-06-0.943D-05-0.660D-05 0.205D-04 0.702D-04
 Coeff:     -0.548D-04-0.259D-03-0.193D-02 0.192D-02 0.816D-02 0.980D-02
 Coeff:     -0.403D-01-0.172D+00 0.232D+00 0.963D+00
 Gap=     0.048 Goal=   None    Shift=    0.000
 Gap=     0.034 Goal=   None    Shift=    0.000
 RMSDP=8.35D-08 MaxDP=7.74D-06 DE=-3.41D-12 OVMax= 1.72D-06

 Cycle  17  Pass 1  IDiag  1:
 E= -1136.10632412208     Delta-E=        0.000000000003 Rises=F Damp=F
 DIIS: error= 5.33D-09 at cycle  17 NSaved=  17.
 NSaved=17 IEnMin=16 EnMin= -1136.10632412208     IErMin=17 ErrMin= 5.33D-09
 ErrMax= 5.33D-09  0.00D+00 EMaxC= 1.00D-01 BMatC= 1.44D-14 BMatP= 1.52D-13
 IDIUse=1 WtCom= 1.00D+00 WtEn= 0.00D+00
 Coeff-Com:  0.159D-05-0.208D-05-0.589D-05-0.142D-04-0.421D-04-0.276D-04
 Coeff-Com:  0.254D-03 0.376D-03-0.148D-02-0.151D-02 0.187D-02 0.124D-01
 Coeff-Com:  0.139D-01-0.357D-01-0.109D+00 0.807D-01 0.104D+01
 Coeff:      0.159D-05-0.208D-05-0.589D-05-0.142D-04-0.421D-04-0.276D-04
 Coeff:      0.254D-03 0.376D-03-0.148D-02-0.151D-02 0.187D-02 0.124D-01
 Coeff:      0.139D-01-0.357D-01-0.109D+00 0.807D-01 0.104D+01
 Gap=     0.048 Goal=   None    Shift=    0.000
 Gap=     0.034 Goal=   None    Shift=    0.000
 RMSDP=1.97D-08 MaxDP=1.62D-06 DE= 2.96D-12 OVMax= 4.62D-07

 Cycle  18  Pass 1  IDiag  1:
 E= -1136.10632412209     Delta-E=       -0.000000000007 Rises=F Damp=F
 DIIS: error= 2.21D-09 at cycle  18 NSaved=  18.
 NSaved=18 IEnMin=18 EnMin= -1136.10632412209     IErMin=18 ErrMin= 2.21D-09
 ErrMax= 2.21D-09  0.00D+00 EMaxC= 1.00D-01 BMatC= 2.36D-15 BMatP= 1.44D-14
 IDIUse=1 WtCom= 1.00D+00 WtEn= 0.00D+00
 Large coefficients: NSaved= 18 BigCof=    0.00 CofMax=   10.00 Det=-5.18D-15
 Inversion failed.  Reducing to 17 matrices.
 Large coefficients: NSaved= 17 BigCof=    0.00 CofMax=   10.00 Det=-8.33D-15
 Inversion failed.  Reducing to 16 matrices.
 Large coefficients: NSaved= 16 BigCof=    0.00 CofMax=   10.00 Det=-8.41D-15
 Inversion failed.  Reducing to 15 matrices.
 Coeff-Com:  0.928D-07-0.204D-05 0.275D-05-0.264D-05-0.867D-05 0.282D-03
 Coeff-Com: -0.295D-03-0.907D-03-0.542D-03 0.403D-02 0.209D-01-0.433D-01
 Coeff-Com: -0.102D+00 0.675D-01 0.105D+01
 Coeff:      0.928D-07-0.204D-05 0.275D-05-0.264D-05-0.867D-05 0.282D-03
 Coeff:     -0.295D-03-0.907D-03-0.542D-03 0.403D-02 0.209D-01-0.433D-01
 Coeff:     -0.102D+00 0.675D-01 0.105D+01
 Gap=     0.048 Goal=   None    Shift=    0.000
 Gap=     0.034 Goal=   None    Shift=    0.000
 RMSDP=6.40D-09 MaxDP=3.62D-07 DE=-6.82D-12 OVMax= 1.95D-07

 SCF Done:  E(UB3LYP) =  -1136.10632412     A.U. after   18 cycles
            NFock= 18  Conv=0.64D-08     -V/T= 2.0029
 <Sx>= 0.0000 <Sy>= 0.0000 <Sz>= 0.5000 <S**2>= 0.8173 S= 0.5331
 <L.S>= 0.000000000000E+00
 KE= 1.132848996434D+03 PE=-3.200356403355D+03 EE= 6.956644249693D+02
 Annihilation of the first spin contaminant:
 S**2 before annihilation     0.8173,   after     0.7524
 Leave Link  502 at Sun Dec  3 21:52:51 2023, MaxMem=  1879048192 cpu:             149.1 elap:              13.8
 (Enter /home/sekinelabo/g16/l601.exe)
 Copying SCF densities to generalized density rwf, IOpCl= 1 IROHF=0.

 **********************************************************************

            Population analysis using the SCF Density.

 **********************************************************************

 Orbital symmetries:
 Alpha Orbitals:
       Occupied  (A) (A) (A) (A) (A) (A) (A) (A) (A) (A) (A) (A)
                 (A) (A) (A) (A) (A) (A) (A) (A) (A) (A) (A) (A)
                 (A) (A) (A) (A) (A) (A) (A) (A) (A) (A) (A) (A)
                 (A) (A) (A)
       Virtual   (A) (A) (A) (A) (A) (A) (A) (A) (A) (A) (A) (A)
                 (A) (A) (A) (A) (A) (A) (A) (A) (A) (A) (A) (A)
                 (A) (A) (A) (A) (A) (A) (A) (A) (A) (A) (A) (A)
                 (A) (A) (A) (A) (A) (A) (A) (A) (A) (A) (A) (A)
                 (A) (A) (A) (A) (A) (A) (A) (A) (A) (A) (A) (A)
                 (A) (A) (A) (A) (A) (A) (A) (A) (A) (A) (A) (A)
                 (A) (A) (A) (A) (A) (A) (A) (A) (A) (A) (A) (A)
                 (A) (A) (A) (A) (A) (A) (A) (A) (A) (A) (A) (A)
                 (A) (A) (A) (A) (A) (A) (A) (A) (A) (A) (A) (A)
                 (A) (A) (A) (A) (A) (A) (A) (A) (A) (A) (A) (A)
                 (A) (A) (A) (A) (A) (A) (A) (A) (A) (A) (A) (A)
                 (A) (A) (A) (A) (A) (A) (A) (A) (A) (A) (A) (A)
                 (A) (A) (A) (A) (A) (A) (A) (A) (A) (A) (A) (A)
                 (A) (A) (A) (A) (A) (A) (A) (A) (A) (A) (A) (A)
                 (A) (A) (A)
 Beta  Orbitals:
       Occupied  (A) (A) (A) (A) (A) (A) (A) (A) (A) (A) (A) (A)
                 (A) (A) (A) (A) (A) (A) (A) (A) (A) (A) (A) (A)
                 (A) (A) (A) (A) (A) (A) (A) (A) (A) (A) (A) (A)
                 (A) (A)
       Virtual   (A) (A) (A) (A) (A) (A) (A) (A) (A) (A) (A) (A)
                 (A) (A) (A) (A) (A) (A) (A) (A) (A) (A) (A) (A)
                 (A) (A) (A) (A) (A) (A) (A) (A) (A) (A) (A) (A)
                 (A) (A) (A) (A) (A) (A) (A) (A) (A) (A) (A) (A)
                 (A) (A) (A) (A) (A) (A) (A) (A) (A) (A) (A) (A)
                 (A) (A) (A) (A) (A) (A) (A) (A) (A) (A) (A) (A)
                 (A) (A) (A) (A) (A) (A) (A) (A) (A) (A) (A) (A)
                 (A) (A) (A) (A) (A) (A) (A) (A) (A) (A) (A) (A)
                 (A) (A) (A) (A) (A) (A) (A) (A) (A) (A) (A) (A)
                 (A) (A) (A) (A) (A) (A) (A) (A) (A) (A) (A) (A)
                 (A) (A) (A) (A) (A) (A) (A) (A) (A) (A) (A) (A)
                 (A) (A) (A) (A) (A) (A) (A) (A) (A) (A) (A) (A)
                 (A) (A) (A) (A) (A) (A) (A) (A) (A) (A) (A) (A)
                 (A) (A) (A) (A) (A) (A) (A) (A) (A) (A) (A) (A)
                 (A) (A) (A) (A)
 The electronic state is 2-A.
 Alpha  occ. eigenvalues --  -38.44935 -38.44888 -38.44754 -38.44586 -38.44439
 Alpha  occ. eigenvalues --  -38.44054 -38.43895  -2.20724  -2.20691  -2.20560
 Alpha  occ. eigenvalues --   -2.20337  -2.20255  -2.19847  -2.19690  -1.14374
 Alpha  occ. eigenvalues --   -1.14363  -1.14346  -1.14345  -1.14327  -1.14326
 Alpha  occ. eigenvalues --   -1.14208  -1.14204  -1.14190  -1.14028  -1.14022
 Alpha  occ. eigenvalues --   -1.13982  -1.13941  -1.13888  -1.13887  -1.13523
 Alpha  occ. eigenvalues --   -1.13520  -1.13505  -1.13360  -1.13359  -1.13339
 Alpha  occ. eigenvalues --   -0.15195  -0.14229  -0.13008  -0.11850
 Alpha virt. eigenvalues --   -0.07070  -0.05216  -0.04043  -0.03416  -0.03165
 Alpha virt. eigenvalues --   -0.02492  -0.02351  -0.01902  -0.01779  -0.01486
 Alpha virt. eigenvalues --   -0.01111  -0.00868  -0.00130   0.00492   0.00662
 Alpha virt. eigenvalues --    0.00691   0.00807   0.00959   0.01099   0.01147
 Alpha virt. eigenvalues --    0.01213   0.01297   0.01524   0.01542   0.01598
 Alpha virt. eigenvalues --    0.01710   0.01857   0.01949   0.02021   0.02073
 Alpha virt. eigenvalues --    0.02274   0.02373   0.02693   0.02777   0.02941
 Alpha virt. eigenvalues --    0.03043   0.03083   0.03266   0.03485   0.03524
 Alpha virt. eigenvalues --    0.03641   0.03709   0.03808   0.03918   0.04131
 Alpha virt. eigenvalues --    0.04266   0.04421   0.04745   0.04987   0.05514
 Alpha virt. eigenvalues --    0.05883   0.06022   0.07073   0.07198   0.07252
 Alpha virt. eigenvalues --    0.07785   0.07840   0.07944   0.08073   0.08239
 Alpha virt. eigenvalues --    0.08353   0.08629   0.08857   0.09045   0.09561
 Alpha virt. eigenvalues --    0.09748   0.09881   0.10121   0.10421   0.10863
 Alpha virt. eigenvalues --    0.11254   0.11960   0.13036   0.13600   0.14228
 Alpha virt. eigenvalues --    0.14573   0.14923   0.16295   0.16856   0.17495
 Alpha virt. eigenvalues --    0.27352   0.28034   0.28615   0.28895   0.30206
 Alpha virt. eigenvalues --    0.30858   0.31596   0.32129   0.32463   0.32789
 Alpha virt. eigenvalues --    0.33089   0.33156   0.33266   0.33914   0.34483
 Alpha virt. eigenvalues --    0.35739   0.36282   0.36833   0.37969   0.38294
 Alpha virt. eigenvalues --    0.38685   0.39207   0.39348   0.40205   0.40779
 Alpha virt. eigenvalues --    0.40983   0.42861   0.43075   0.43152   0.43372
 Alpha virt. eigenvalues --    0.43589   0.43649   0.44031   0.44185   0.44493
 Alpha virt. eigenvalues --    0.44782   0.44854   0.45107   0.45499   0.45573
 Alpha virt. eigenvalues --    0.46207   0.46708   0.46975   0.47608   0.48458
 Alpha virt. eigenvalues --    0.48765   0.49750   0.50179   0.50464   0.50915
 Alpha virt. eigenvalues --    0.52207   0.54471   0.58475   0.61645   0.68550
 Alpha virt. eigenvalues --    0.72780   2.00386   2.06314   2.08174   2.10823
 Alpha virt. eigenvalues --    2.13337   2.15132   2.16935   4.41631   4.42401
 Alpha virt. eigenvalues --    4.43532   4.43640   4.43734   4.43880   4.44288
 Alpha virt. eigenvalues --    4.44395   4.44617   4.44779   4.45334   4.46012
 Alpha virt. eigenvalues --    4.46258   4.46566   4.46682   4.47490   4.47933
 Alpha virt. eigenvalues --    4.48697   4.53010   4.60981   4.65736  96.19281
 Alpha virt. eigenvalues --   96.26447  96.28689  96.32304  96.35219  96.37629
 Alpha virt. eigenvalues --   96.39102
  Beta  occ. eigenvalues --  -38.44858 -38.44825 -38.44682 -38.44607 -38.44390
  Beta  occ. eigenvalues --  -38.44064 -38.43902  -2.20580  -2.20575  -2.20424
  Beta  occ. eigenvalues --   -2.20382  -2.20163  -2.19871  -2.19708  -1.14276
  Beta  occ. eigenvalues --   -1.14268  -1.14266  -1.14255  -1.14248  -1.14246
  Beta  occ. eigenvalues --   -1.14117  -1.14115  -1.14108  -1.14064  -1.14056
  Beta  occ. eigenvalues --   -1.13968  -1.13881  -1.13826  -1.13825  -1.13542
  Beta  occ. eigenvalues --   -1.13540  -1.13484  -1.13376  -1.13375  -1.13315
  Beta  occ. eigenvalues --   -0.14573  -0.13520  -0.12316
  Beta virt. eigenvalues --   -0.08876  -0.06737  -0.04777  -0.03575  -0.03254
  Beta virt. eigenvalues --   -0.02998  -0.02302  -0.02163  -0.01703  -0.01547
  Beta virt. eigenvalues --   -0.01061  -0.00692  -0.00494   0.00001   0.00478
  Beta virt. eigenvalues --    0.00659   0.00755   0.00816   0.01011   0.01133
  Beta virt. eigenvalues --    0.01166   0.01284   0.01313   0.01577   0.01620
  Beta virt. eigenvalues --    0.01688   0.01804   0.01903   0.02038   0.02081
  Beta virt. eigenvalues --    0.02103   0.02332   0.02425   0.02727   0.02800
  Beta virt. eigenvalues --    0.02937   0.03028   0.03068   0.03280   0.03492
  Beta virt. eigenvalues --    0.03554   0.03650   0.03757   0.03832   0.03963
  Beta virt. eigenvalues --    0.04197   0.04317   0.04503   0.04866   0.05107
  Beta virt. eigenvalues --    0.05554   0.05938   0.06179   0.07243   0.07359
  Beta virt. eigenvalues --    0.07440   0.07899   0.08012   0.08063   0.08185
  Beta virt. eigenvalues --    0.08381   0.08538   0.08816   0.08965   0.09155
  Beta virt. eigenvalues --    0.09593   0.09876   0.09947   0.10222   0.10441
  Beta virt. eigenvalues --    0.10923   0.11409   0.12259   0.13251   0.13657
  Beta virt. eigenvalues --    0.14288   0.14611   0.15098   0.16529   0.17069
  Beta virt. eigenvalues --    0.17705   0.27707   0.28338   0.28943   0.29184
  Beta virt. eigenvalues --    0.30514   0.31250   0.31934   0.32470   0.32618
  Beta virt. eigenvalues --    0.32972   0.33308   0.33366   0.33500   0.33988
  Beta virt. eigenvalues --    0.34557   0.36243   0.36768   0.37271   0.38104
  Beta virt. eigenvalues --    0.38341   0.38876   0.39483   0.39596   0.40376
  Beta virt. eigenvalues --    0.41006   0.41186   0.43016   0.43255   0.43349
  Beta virt. eigenvalues --    0.43508   0.43784   0.43850   0.44208   0.44326
  Beta virt. eigenvalues --    0.44555   0.44703   0.44834   0.45120   0.45396
  Beta virt. eigenvalues --    0.45573   0.46220   0.46745   0.47256   0.47893
  Beta virt. eigenvalues --    0.48579   0.48907   0.49836   0.50270   0.50582
  Beta virt. eigenvalues --    0.51001   0.52327   0.54677   0.58694   0.61780
  Beta virt. eigenvalues --    0.68658   0.72867   2.00513   2.06427   2.08264
  Beta virt. eigenvalues --    2.11137   2.13397   2.15201   2.17025   4.41696
  Beta virt. eigenvalues --    4.42455   4.43571   4.43703   4.43799   4.43928
  Beta virt. eigenvalues --    4.44366   4.44504   4.44654   4.44807   4.45317
  Beta virt. eigenvalues --    4.46011   4.46309   4.46581   4.46736   4.47499
  Beta virt. eigenvalues --    4.48011   4.48781   4.53055   4.61032   4.65779
  Beta virt. eigenvalues --   96.19324  96.26485  96.28719  96.32406  96.35251
  Beta virt. eigenvalues --   96.37657  96.39134
          Condensed to atoms (all electrons):
               1          2          3          4          5          6
     1  Na  11.317193   0.082053   0.121312   0.075157  -0.165882  -0.130696
     2  Na   0.082053  11.367122  -0.315263  -0.691336   0.777913  -0.102191
     3  Na   0.121312  -0.315263  11.178758   0.000271  -0.158890  -0.024559
     4  Na   0.075157  -0.691336   0.000271  11.702213  -1.338353   0.027984
     5  Na  -0.165882   0.777913  -0.158890  -1.338353  13.039973   0.041679
     6  Na  -0.130696  -0.102191  -0.024559   0.027984   0.041679  11.563075
     7  Na  -0.130302  -0.059668  -0.108236   0.094223  -0.101193   0.186005
               7
     1  Na  -0.130302
     2  Na  -0.059668
     3  Na  -0.108236
     4  Na   0.094223
     5  Na  -0.101193
     6  Na   0.186005
     7  Na  10.671617
          Atomic-Atomic Spin Densities.
               1          2          3          4          5          6
     1  Na  -0.272982   0.003971   0.026606   0.008886   0.051247   0.068443
     2  Na   0.003971   0.267769   0.004275  -0.162877   0.164954   0.007200
     3  Na   0.026606   0.004275   0.561938  -0.104328   0.018401  -0.084325
     4  Na   0.008886  -0.162877  -0.104328   0.689828  -0.489403   0.033848
     5  Na   0.051247   0.164954   0.018401  -0.489403   0.536404  -0.008980
     6  Na   0.068443   0.007200  -0.084325   0.033848  -0.008980  -0.098329
     7  Na   0.003777  -0.007740  -0.078785   0.050585  -0.029280   0.061157
               7
     1  Na   0.003777
     2  Na  -0.007740
     3  Na  -0.078785
     4  Na   0.050585
     5  Na  -0.029280
     6  Na   0.061157
     7  Na   0.240109
 Mulliken charges and spin densities:
               1          2
     1  Na  -0.168834  -0.110053
     2  Na  -0.058629   0.277551
     3  Na   0.306608   0.343781
     4  Na   1.129841   0.026539
     5  Na  -1.095246   0.243343
     6  Na  -0.561296  -0.020984
     7  Na   0.447555   0.239822
 Sum of Mulliken charges =  -0.00000   1.00000
 Mulliken charges and spin densities with hydrogens summed into heavy atoms:
               1          2
     1  Na  -0.168834  -0.110053
     2  Na  -0.058629   0.277551
     3  Na   0.306608   0.343781
     4  Na   1.129841   0.026539
     5  Na  -1.095246   0.243343
     6  Na  -0.561296  -0.020984
     7  Na   0.447555   0.239822
 Electronic spatial extent (au):  <R**2>=           6156.8682
 Charge=              0.0000 electrons
 Dipole moment (field-independent basis, Debye):
    X=             -0.0848    Y=              0.7514    Z=              0.0649  Tot=              0.7590
 Quadrupole moment (field-independent basis, Debye-Ang):
   XX=            -68.7069   YY=            -54.2995   ZZ=            -72.1919
   XY=              3.1347   XZ=              1.5530   YZ=             -0.8238
 Traceless Quadrupole moment (field-independent basis, Debye-Ang):
   XX=             -3.6408   YY=             10.7666   ZZ=             -7.1259
   XY=              3.1347   XZ=              1.5530   YZ=             -0.8238
 Octapole moment (field-independent basis, Debye-Ang**2):
  XXX=             -6.9863  YYY=             83.5662  ZZZ=              1.2602  XYY=             21.2392
  XXY=              1.3763  XXZ=            -12.8200  XZZ=              3.3815  YZZ=             -2.7116
  YYZ=              3.3267  XYZ=            -34.0772
 Hexadecapole moment (field-independent basis, Debye-Ang**3):
 XXXX=          -6314.9332 YYYY=          -2981.9732 ZZZZ=           -502.5115 XXXY=            304.6974
 XXXZ=             -3.6695 YYYX=             -2.1659 YYYZ=             14.2558 ZZZX=             18.8353
 ZZZY=            -10.6369 XXYY=          -1320.5539 XXZZ=          -1129.4700 YYZZ=           -632.8651
 XXYZ=            -77.4818 YYXZ=            -60.9536 ZZXY=              5.1121
 N-N= 2.357366578297D+02 E-N=-3.200356403554D+03  KE= 1.132848996434D+03
                          Isotropic Fermi Contact Couplings
        Atom                 a.u.       MegaHertz       Gauss      10(-4) cm-1
     1  Na(23)            -0.15172    -179.49352     -64.04775     -59.87259
     2  Na(23)             0.34193     404.51600     144.34137     134.93201
     3  Na(23)             0.32739     387.31713     138.20438     129.19509
     4  Na(23)             0.21441     253.65291      90.50967      84.60950
     5  Na(23)            -0.08275     -97.89538     -34.93150     -32.65438
     6  Na(23)            -0.10247    -121.21951     -43.25414     -40.43448
     7  Na(23)             0.27197     321.75058     114.80861     107.32444
 --------------------------------------------------------
       Center         ----  Spin Dipole Couplings  ----
                      3XX-RR        3YY-RR        3ZZ-RR
 --------------------------------------------------------
     1   Atom        0.038745     -0.022017     -0.016728
     2   Atom       -0.004525      0.000798      0.003726
     3   Atom       -0.002485     -0.003291      0.005776
     4   Atom        0.000874     -0.001570      0.000696
     5   Atom       -0.013098      0.028564     -0.015465
     6   Atom       -0.022874      0.042243     -0.019368
     7   Atom        0.001723     -0.002488      0.000765
 --------------------------------------------------------
                        XY            XZ            YZ
 --------------------------------------------------------
     1   Atom       -0.007106      0.020787     -0.001968
     2   Atom       -0.004483     -0.002029     -0.000411
     3   Atom        0.007370     -0.000294     -0.000991
     4   Atom       -0.001043      0.000364      0.000994
     5   Atom        0.019548     -0.006627     -0.016633
     6   Atom        0.003859      0.000954      0.017489
     7   Atom       -0.000163     -0.000158     -0.001104
 --------------------------------------------------------


 ---------------------------------------------------------------------------------
              Anisotropic Spin Dipole Couplings in Principal Axis System
 ---------------------------------------------------------------------------------

       Atom             a.u.   MegaHertz   Gauss  10(-4) cm-1        Axes

              Baa    -0.0238    -3.360    -1.199    -1.121 -0.3310 -0.3540  0.8747
     1 Na(23) Bbb    -0.0227    -3.201    -1.142    -1.068 -0.0175  0.9291  0.3694
              Bcc     0.0465     6.561     2.341     2.189  0.9435 -0.1069  0.3137
 
              Baa    -0.0074    -1.049    -0.374    -0.350  0.8609  0.4781  0.1742
     2 Na(23) Bbb     0.0030     0.421     0.150     0.140 -0.3435  0.7986 -0.4943
              Bcc     0.0044     0.628     0.224     0.209 -0.3754  0.3657  0.8517
 
              Baa    -0.0103    -1.453    -0.518    -0.485 -0.6857  0.7271  0.0323
     3 Na(23) Bbb     0.0040     0.570     0.203     0.190  0.6583  0.6007  0.4537
              Bcc     0.0062     0.882     0.315     0.294 -0.3105 -0.3324  0.8906
 
              Baa    -0.0023    -0.328    -0.117    -0.110  0.3264  0.8855 -0.3308
     4 Na(23) Bbb     0.0011     0.151     0.054     0.050  0.1251  0.3064  0.9436
              Bcc     0.0013     0.178     0.063     0.059  0.9369 -0.3494 -0.0108
 
              Baa    -0.0211    -2.974    -1.061    -0.992  0.2695  0.2089  0.9401
     5 Na(23) Bbb    -0.0208    -2.941    -1.049    -0.981  0.8966 -0.4107 -0.1658
              Bcc     0.0419     5.915     2.111     1.973  0.3514  0.8875 -0.2980
 
              Baa    -0.0240    -3.388    -1.209    -1.130  0.0698 -0.2585  0.9635
     6 Na(23) Bbb    -0.0231    -3.261    -1.164    -1.088  0.9959 -0.0369 -0.0820
              Bcc     0.0471     6.649     2.373     2.218  0.0567  0.9653  0.2549
 
              Baa    -0.0028    -0.401    -0.143    -0.134  0.0443  0.9546  0.2947
     7 Na(23) Bbb     0.0011     0.154     0.055     0.051  0.1578 -0.2980  0.9414
              Bcc     0.0017     0.247     0.088     0.082  0.9865  0.0048 -0.1638
 

 ---------------------------------------------------------------------------------

 No NMR shielding tensors so no spin-rotation constants.
 Leave Link  601 at Sun Dec  3 21:52:52 2023, MaxMem=  1879048192 cpu:               2.3 elap:               0.2
 (Enter /home/sekinelabo/g16/l701.exe)
 ... and contract with generalized density number  0.
 Compute integral first derivatives.
 Leave Link  701 at Sun Dec  3 21:52:52 2023, MaxMem=  1879048192 cpu:               1.6 elap:               0.1
 (Enter /home/sekinelabo/g16/l702.exe)
 L702 exits ... SP integral derivatives will be done elsewhere.
 Leave Link  702 at Sun Dec  3 21:52:52 2023, MaxMem=  1879048192 cpu:               0.5 elap:               0.0
 (Enter /home/sekinelabo/g16/l703.exe)
 Integral derivatives from FoFJK, PRISM(SPDF).
 Compute integral first derivatives, UseDBF=F ICtDFT=           0.
 Calling FoFJK, ICntrl=      2127 FMM=F ISym2X=0 I1Cent= 0 IOpClX= 1 NMat=1 NMatS=1 NMatT=0.
 FoFJK:  IHMeth= 1 ICntrl=    2127 DoSepK=F KAlg= 0 I1Cent=           0 FoldK=F
 IRaf=         0 NMat=       1 IRICut=       1 DoRegI=T DoRafI=F ISym2E= 0 IDoP0=0 IntGTp=1.
 FoFCou: FMM=F IPFlag=           0 FMFlag=      100000 FMFlg1=         800
         NFxFlg=           0 DoJE=F BraDBF=F KetDBF=F FulRan=T
         wScrn=  0.000000 ICntrl=      2127 IOpCl=  1 I1Cent=           0 NGrid=           0
         NMat0=    1 NMatS0=      1 NMatT0=    0 NMatD0=    1 NMtDS0=    0 NMtDT0=    0
 Symmetry not used in FoFCou.
 Leave Link  703 at Sun Dec  3 21:52:54 2023, MaxMem=  1879048192 cpu:              24.6 elap:               1.6
 (Enter /home/sekinelabo/g16/l716.exe)
 Dipole        =-3.33696332D-02 2.95626841D-01 2.55421482D-02
 ***** Axes restored to original set *****
 -------------------------------------------------------------------
 Center     Atomic                   Forces (Hartrees/Bohr)
 Number     Number              X              Y              Z
 -------------------------------------------------------------------
      1       11           0.001503076    0.001100817    0.000351772
      2       11           0.000582601   -0.001979206   -0.000713142
      3       11           0.000065151    0.000869560    0.000730670
      4       11           0.001886308   -0.000216542    0.000832138
      5       11          -0.003358010    0.000155285   -0.001648954
      6       11          -0.001075970    0.000079740    0.000553042
      7       11           0.000396845   -0.000009654   -0.000105525
 -------------------------------------------------------------------
 Cartesian Forces:  Max     0.003358010 RMS     0.001187431
 Z-matrix is all fixed cartesians, so copy forces.
 Force constants in Cartesian coordinates: 
                1             2             3             4             5 
      1  0.295568D-01
      2  0.528591D-02  0.238284D-01
      3 -0.581323D-02  0.140207D-01  0.193453D-01
      4 -0.147733D-01 -0.358655D-02 -0.668807D-03  0.223326D-01
      5  0.224221D-02 -0.147309D-01 -0.538114D-02 -0.355974D-02  0.256322D-01
      6  0.313964D-02 -0.637759D-02 -0.788339D-02  0.140059D-02  0.746706D-02
      7 -0.163582D-01 -0.203933D-02  0.659033D-02  0.456281D-02  0.255910D-03
      8 -0.748264D-02 -0.133274D-01 -0.669140D-02  0.228266D-02  0.458944D-03
      9  0.163936D-02 -0.972597D-02 -0.112337D-01 -0.430354D-03 -0.318065D-03
     10 -0.115999D-03 -0.124418D-03  0.215656D-03  0.134187D-02  0.140285D-02
     11 -0.208699D-03 -0.223845D-03  0.387996D-03  0.117665D-02  0.671342D-02
     12  0.192942D-03  0.206945D-03 -0.358703D-03 -0.283987D-02 -0.275399D-03
     13  0.644500D-03  0.611137D-04 -0.331956D-03 -0.134472D-01 -0.366437D-03
     14 -0.369847D-02  0.237407D-02 -0.184065D-02  0.365742D-02 -0.180290D-01
     15 -0.238124D-02  0.508529D-03  0.217044D-03  0.257054D-02 -0.154092D-02
     16  0.105715D-02  0.383837D-03  0.291093D-04 -0.166841D-04  0.252014D-04
     17  0.381562D-02  0.216133D-02 -0.584123D-03  0.295555D-04 -0.446439D-04
     18  0.323798D-02  0.133998D-02 -0.567816D-04 -0.320918D-04  0.484749D-04
     19 -0.109690D-04  0.194314D-04 -0.210989D-04  0.000000D+00  0.000000D+00
     20  0.460649D-04 -0.816033D-04  0.886060D-04  0.000000D+00  0.000000D+00
     21 -0.154590D-04  0.273854D-04 -0.297354D-04  0.000000D+00  0.000000D+00
                6             7             8             9            10 
      6  0.149064D-01
      7 -0.210715D-02  0.280954D-01
      8 -0.150905D-02  0.843705D-02  0.193307D-01
      9  0.602788D-03 -0.519778D-02  0.132367D-01  0.195290D-01
     10 -0.250451D-02  0.000000D+00  0.000000D+00  0.000000D+00  0.313625D-01
     11 -0.718390D-03  0.000000D+00  0.000000D+00  0.000000D+00 -0.419390D-02
     12  0.602633D-02  0.000000D+00  0.000000D+00  0.000000D+00  0.891872D-02
     13  0.996539D-04  0.178901D-04 -0.270232D-04  0.302646D-04 -0.325884D-01
     14  0.108798D-02  0.191885D-04 -0.289844D-04  0.324611D-04  0.291547D-02
     15 -0.135979D-01 -0.332598D-04  0.502392D-04 -0.562656D-04 -0.662987D-02
     16 -0.282244D-04 -0.160323D-01 -0.279915D-02  0.470197D-02  0.000000D+00
     17  0.499990D-04 -0.717219D-02 -0.739819D-02 -0.457733D-02  0.000000D+00
     18 -0.542896D-04 -0.132796D-02 -0.720068D-02 -0.140610D-01  0.000000D+00
     19  0.000000D+00 -0.285583D-03 -0.410899D-03 -0.743461D-03  0.000000D+00
     20  0.000000D+00  0.499371D-03  0.964920D-03  0.135220D-02  0.000000D+00
     21  0.000000D+00  0.207582D-02  0.211420D-02  0.521923D-02  0.000000D+00
               11            12            13            14            15 
     11  0.913950D-02
     12 -0.235158D-02  0.118009D-01
     13  0.322595D-02 -0.627179D-02  0.453732D-01
     14 -0.156291D-01  0.242004D-02 -0.289360D-02  0.313130D-01
     15  0.268198D-02 -0.174685D-01  0.647383D-02 -0.169982D-02  0.309056D-01
     16  0.000000D+00  0.000000D+00  0.000000D+00  0.000000D+00  0.000000D+00
     17  0.000000D+00  0.000000D+00  0.000000D+00  0.000000D+00  0.000000D+00
     18  0.000000D+00  0.000000D+00  0.000000D+00  0.000000D+00  0.000000D+00
     19  0.000000D+00  0.000000D+00  0.000000D+00  0.000000D+00  0.000000D+00
     20  0.000000D+00  0.000000D+00  0.000000D+00  0.000000D+00  0.000000D+00
     21  0.000000D+00  0.000000D+00  0.000000D+00  0.000000D+00  0.000000D+00
               16            17            18            19            20 
     16  0.433210D-01
     17  0.100711D-01  0.894899D-02
     18 -0.149296D-02  0.965344D-02  0.259782D-01
     19 -0.283292D-01 -0.674413D-02 -0.384969D-03  0.286257D-01
     20 -0.768104D-02 -0.366748D-02 -0.384121D-02  0.713560D-02  0.278417D-02
     21 -0.320989D-02 -0.454199D-02 -0.118061D-01  0.114953D-02  0.240041D-02
               21 
     21  0.661658D-02
 Leave Link  716 at Sun Dec  3 21:52:54 2023, MaxMem=  1879048192 cpu:               0.4 elap:               0.0
 (Enter /home/sekinelabo/g16/l103.exe)

 GradGradGradGradGradGradGradGradGradGradGradGradGradGradGradGradGradGrad
 Berny optimization.
 Search for a local minimum.
 Step number   1 out of a maximum of    2
 All quantities printed in internal units (Hartrees-Bohrs-Radians)
 Second derivative matrix not updated -- first step.
 ITU=  0
     Eigenvalues ---    0.00003   0.00038   0.00189   0.00320   0.00642
     Eigenvalues ---    0.01415   0.01595   0.02362   0.03661   0.04232
     Eigenvalues ---    0.05015   0.05859   0.06696   0.07769   0.08078
 Eigenvalue     1 is   2.58D-05 Eigenvector:
                          Z7        Z4        Z2        Y3        Z3
   1                    0.53647  -0.53365   0.25814   0.22986  -0.21458
                          Y2        X2        X4        Z5        Y6
   1                   -0.20223  -0.19521   0.18774  -0.16569   0.15139
 Angle between quadratic step and forces=  52.89 degrees.
 Linear search not attempted -- first point.
 B after Tr=     0.000000    0.000000    0.000000
         Rot=    1.000000   -0.000000   -0.000000   -0.000000 Ang=   0.00 deg.
 Variable       Old X    -DE/DX   Delta X   Delta X   Delta X     New X
                                 (Linear)    (Quad)   (Total)
    X1       17.76775   0.00150   0.00000   0.10088   0.10088  17.86863
    Y1       23.80488   0.00110   0.00000   0.00124   0.00124  23.80612
    Z1       24.19001   0.00035   0.00000   0.06751   0.06751  24.25751
    X2       19.24138   0.00058   0.00000   0.03543   0.03543  19.27681
    Y2       29.07041  -0.00198   0.00000  -0.07329  -0.07329  28.99713
    Z2       28.02048  -0.00071   0.00000  -0.06873  -0.06873  27.95176
    X3       19.41164   0.00007   0.00000   0.03650   0.03650  19.44815
    Y3       19.63350   0.00087   0.00000   0.07004   0.07004  19.70354
    Z3       19.49366   0.00073   0.00000   0.09512   0.09512  19.58878
    X4       30.96430   0.00189   0.00000  -0.04830  -0.04830  30.91599
    Y4       27.24664  -0.00022   0.00000  -0.01393  -0.01393  27.23270
    Z4       33.09572   0.00083   0.00000  -0.03292  -0.03292  33.06280
    X5       25.72598  -0.00336   0.00000  -0.09222  -0.09222  25.63376
    Y5       28.25689   0.00016   0.00000  -0.03675  -0.03675  28.22014
    Z5       31.03913  -0.00165   0.00000  -0.09327  -0.09327  30.94586
    X6       25.54910  -0.00108   0.00000  -0.04633  -0.04633  25.50277
    Y6       20.19890   0.00008   0.00000   0.11336   0.11336  20.31226
    Z6       16.82361   0.00055   0.00000   0.02937   0.02937  16.85298
    X7       31.24946   0.00040   0.00000   0.01404   0.01404  31.26350
    Y7       21.69840  -0.00001   0.00000  -0.06067  -0.06067  21.63774
    Z7       17.24711  -0.00011   0.00000   0.00292   0.00292  17.25004
         Item               Value     Threshold  Converged?
 Maximum Force            0.003358     0.000450     NO 
 RMS     Force            0.001187     0.000300     NO 
 Maximum Displacement     0.113356     0.001800     NO 
 RMS     Displacement     0.062975     0.001200     NO 
 Predicted change in Energy=-4.737578D-04
 GradGradGradGradGradGradGradGradGradGradGradGradGradGradGradGradGradGrad

 Leave Link  103 at Sun Dec  3 21:52:54 2023, MaxMem=  1879048192 cpu:               0.2 elap:               0.0
 (Enter /home/sekinelabo/g16/l9999.exe)
 1\1\GINC-SEKINELABO-XA7R-R37\Force\UB3LYP\6-311+G(d)\Na7(2)\SEKINELABO
 \03-Dec-2023\0\\#P B3LYP/6-311+g(d) force\\DPGEN\\0,2\Na,9.40229,12.59
 7,12.8008\Na,10.1821,15.3834,14.8278\Na,10.2722,10.3896,10.3156\Na,16.
 3856,14.4183,17.5135\Na,13.6136,14.9529,16.4252\Na,13.52,10.6888,8.902
 67\Na,16.5365,11.4823,9.12678\\Version=ES64L-G16RevB.01\State=2-A\HF=-
 1136.1063241\S2=0.8173\S2-1=0.\S2A=0.75236\RMSD=6.396e-09\RMSF=1.187e-
 03\Dipole=0.2915584,-0.0138054,-0.0629623\Quadrupole=8.3217774,-3.7262
 343,-4.5955431,-0.0729311,1.5216495,1.5577457\PG=C01 [X(Na7)]\\@


 ... UNTIL SCIENCE IS MIXED WITH EMOTION AND APPEALS TO THE HEART AND
 IMAGINATION , IT IS LIKE DEAD INORGANIC MATTER; AND WHEN IT IS SO MIXED
 AND SO TRANSFORMED IT IS LITERATURE.

                                  -- JOHN BURROUGHS
 Job cpu time:       0 days  0 hours  3 minutes  9.6 seconds.
 Elapsed time:       0 days  0 hours  0 minutes 16.5 seconds.
 File lengths (MBytes):  RWF=     32 Int=      0 D2E=      0 Chk=      4 Scr=      1
 Normal termination of Gaussian 16 at Sun Dec  3 21:52:54 2023.
