 Set GAUSS_MDEF to "14GB".
 Entering Gaussian System, Link 0=g16
 Initial command:
 /home/sekinelabo/g16/l1.exe "/home/sekinelabo/g16temp/Gau-178594.inp" -scrdir="/home/sekinelabo/g16temp/"
 Entering Link 1 = /home/sekinelabo/g16/l1.exe PID=    178596.
  
 Copyright (c) 1988-2017, Gaussian, Inc.  All Rights Reserved.
  
 This is part of the Gaussian(R) 16 program.  It is based on
 the Gaussian(R) 09 system (copyright 2009, Gaussian, Inc.),
 the Gaussian(R) 03 system (copyright 2003, Gaussian, Inc.),
 the Gaussian(R) 98 system (copyright 1998, Gaussian, Inc.),
 the Gaussian(R) 94 system (copyright 1995, Gaussian, Inc.),
 the Gaussian 92(TM) system (copyright 1992, Gaussian, Inc.),
 the Gaussian 90(TM) system (copyright 1990, Gaussian, Inc.),
 the Gaussian 88(TM) system (copyright 1988, Gaussian, Inc.),
 the Gaussian 86(TM) system (copyright 1986, Carnegie Mellon
 University), and the Gaussian 82(TM) system (copyright 1983,
 Carnegie Mellon University). Gaussian is a federally registered
 trademark of Gaussian, Inc.
  
 This software contains proprietary and confidential information,
 including trade secrets, belonging to Gaussian, Inc.
  
 This software is provided under written license and may be
 used, copied, transmitted, or stored only in accord with that
 written license.
  
 The following legend is applicable only to US Government
 contracts under FAR:
  
                    RESTRICTED RIGHTS LEGEND
  
 Use, reproduction and disclosure by the US Government is
 subject to restrictions as set forth in subparagraphs (a)
 and (c) of the Commercial Computer Software - Restricted
 Rights clause in FAR 52.227-19.
  
 Gaussian, Inc.
 340 Quinnipiac St., Bldg. 40, Wallingford CT 06492
  
  
 ---------------------------------------------------------------
 Warning -- This program may not be used in any manner that
 competes with the business of Gaussian, Inc. or will provide
 assistance to any competitor of Gaussian, Inc.  The licensee
 of this program is prohibited from giving any competitor of
 Gaussian, Inc. access to this program.  By using this program,
 the user acknowledges that Gaussian, Inc. is engaged in the
 business of creating and licensing software in the field of
 computational chemistry and represents and warrants to the
 licensee that it is not a competitor of Gaussian, Inc. and that
 it will not use this program in any manner prohibited above.
 ---------------------------------------------------------------
  

 Cite this work as:
 Gaussian 16, Revision B.01,
 M. J. Frisch, G. W. Trucks, H. B. Schlegel, G. E. Scuseria, 
 M. A. Robb, J. R. Cheeseman, G. Scalmani, V. Barone, 
 G. A. Petersson, H. Nakatsuji, X. Li, M. Caricato, A. V. Marenich, 
 J. Bloino, B. G. Janesko, R. Gomperts, B. Mennucci, H. P. Hratchian, 
 J. V. Ortiz, A. F. Izmaylov, J. L. Sonnenberg, D. Williams-Young, 
 F. Ding, F. Lipparini, F. Egidi, J. Goings, B. Peng, A. Petrone, 
 T. Henderson, D. Ranasinghe, V. G. Zakrzewski, J. Gao, N. Rega, 
 G. Zheng, W. Liang, M. Hada, M. Ehara, K. Toyota, R. Fukuda, 
 J. Hasegawa, M. Ishida, T. Nakajima, Y. Honda, O. Kitao, H. Nakai, 
 T. Vreven, K. Throssell, J. A. Montgomery, Jr., J. E. Peralta, 
 F. Ogliaro, M. J. Bearpark, J. J. Heyd, E. N. Brothers, K. N. Kudin, 
 V. N. Staroverov, T. A. Keith, R. Kobayashi, J. Normand, 
 K. Raghavachari, A. P. Rendell, J. C. Burant, S. S. Iyengar, 
 J. Tomasi, M. Cossi, J. M. Millam, M. Klene, C. Adamo, R. Cammi, 
 J. W. Ochterski, R. L. Martin, K. Morokuma, O. Farkas, 
 J. B. Foresman, and D. J. Fox, Gaussian, Inc., Wallingford CT, 2016.
 
 ******************************************
 Gaussian 16:  ES64L-G16RevB.01 20-Dec-2017
                28-Nov-2023 
 ******************************************
 %nproc=15
 Will use up to   15 processors via shared memory.
 -------------------------
 #P B3LYP/6-311+g(d) force
 -------------------------
 1/10=7,30=1,38=1/1,3;
 2/12=2,17=6,18=5,40=1/2;
 3/5=4,6=6,7=11,11=2,25=1,30=1,71=1,74=-5/1,2,3;
 4//1;
 5/5=2,38=5/2;
 6/7=2,8=2,9=2,10=2,28=1/1;
 7/29=1/1,2,3,16;
 1/10=7,30=1/3;
 99//99;
 Leave Link    1 at Tue Nov 28 23:03:35 2023, MaxMem=           0 cpu:               0.3 elap:               0.0
 (Enter /home/sekinelabo/g16/l101.exe)
 -----
 DPGEN
 -----
 Symbolic Z-matrix:
 Charge =  0 Multiplicity = 2
 Na                    13.2192   16.1539   12.204 
 Na                    15.3992   14.0983   10.4804 
 Na                    16.3597   13.0685   13.8264 
 Na                    17.6148   15.0613   15.8868 
 Na                    14.2087   15.139    15.7277 
 Na                    14.833    15.4687   18.8851 
 Na                    15.7909   18.4358   20.4152 
 
 ITRead=  0  0  0  0  0  0  0
 MicOpt= -1 -1 -1 -1 -1 -1 -1
 NAtoms=      7 NQM=        7 NQMF=       0 NMMI=      0 NMMIF=      0
                NMic=       0 NMicF=      0.
                    Isotopes and Nuclear Properties:
 (Nuclear quadrupole moments (NQMom) in fm**2, nuclear magnetic moments (NMagM)
  in nuclear magnetons)

  Atom         1           2           3           4           5           6           7
 IAtWgt=          23          23          23          23          23          23          23
 AtmWgt=  22.9897697  22.9897697  22.9897697  22.9897697  22.9897697  22.9897697  22.9897697
 NucSpn=           3           3           3           3           3           3           3
 AtZEff=  -0.0000000  -0.0000000  -0.0000000  -0.0000000  -0.0000000  -0.0000000  -0.0000000
 NQMom=   10.4000000  10.4000000  10.4000000  10.4000000  10.4000000  10.4000000  10.4000000
 NMagM=    2.2175200   2.2175200   2.2175200   2.2175200   2.2175200   2.2175200   2.2175200
 AtZNuc=  11.0000000  11.0000000  11.0000000  11.0000000  11.0000000  11.0000000  11.0000000
 Leave Link  101 at Tue Nov 28 23:03:35 2023, MaxMem=  1879048192 cpu:               2.4 elap:               0.2
 (Enter /home/sekinelabo/g16/l103.exe)

 GradGradGradGradGradGradGradGradGradGradGradGradGradGradGradGradGradGrad
 Berny optimization.
 Initialization pass.
 Trust Radius=3.00D-01 FncErr=1.00D-07 GrdErr=1.00D-07 EigMax=2.50D+02 EigMin=1.00D-04
 Number of steps in this run=      2 maximum allowed number of steps=      2.
 GradGradGradGradGradGradGradGradGradGradGradGradGradGradGradGradGradGrad

 Leave Link  103 at Tue Nov 28 23:03:35 2023, MaxMem=  1879048192 cpu:               0.2 elap:               0.0
 (Enter /home/sekinelabo/g16/l202.exe)
                          Input orientation:                          
 ---------------------------------------------------------------------
 Center     Atomic      Atomic             Coordinates (Angstroms)
 Number     Number       Type             X           Y           Z
 ---------------------------------------------------------------------
      1         11           0       13.219200   16.153900   12.204000
      2         11           0       15.399200   14.098300   10.480400
      3         11           0       16.359700   13.068500   13.826400
      4         11           0       17.614800   15.061300   15.886800
      5         11           0       14.208700   15.139000   15.727700
      6         11           0       14.833000   15.468700   18.885100
      7         11           0       15.790900   18.435800   20.415200
 ---------------------------------------------------------------------
                    Distance matrix (angstroms):
                    1          2          3          4          5
     1  Na   0.000000
     2  Na   3.456687   0.000000
     3  Na   4.691973   3.630257   0.000000
     4  Na   5.837644   5.921606   3.129181   0.000000
     5  Na   3.798104   5.480374   3.539592   3.410699   0.000000
     6  Na   6.907311   8.534492   5.803638   4.110254   3.235371
     7  Na   8.901939  10.847469   8.517261   5.934667   5.945158
                    6          7
     6  Na   0.000000
     7  Na   3.473105   0.000000
 Stoichiometry    Na7(2)
 Framework group  C1[X(Na7)]
 Deg. of freedom    15
 Full point group                 C1      NOp   1
 Largest Abelian subgroup         C1      NOp   1
 Largest concise Abelian subgroup C1      NOp   1
                         Standard orientation:                         
 ---------------------------------------------------------------------
 Center     Atomic      Atomic             Coordinates (Angstroms)
 Number     Number       Type             X           Y           Z
 ---------------------------------------------------------------------
      1         11           0       -2.845532    2.622657   -0.278054
      2         11           0       -4.992521   -0.072106   -0.556221
      3         11           0       -2.105729   -1.918256    0.642498
      4         11           0        0.569658   -2.060276   -0.974261
      5         11           0        0.215692    0.736535    0.945484
      6         11           0        3.343455   -0.023299    1.273174
      7         11           0        5.814978    0.714745   -1.052621
 ---------------------------------------------------------------------
 Rotational constants (GHZ):           1.0352891           0.2492613           0.2227639
 Leave Link  202 at Tue Nov 28 23:03:35 2023, MaxMem=  1879048192 cpu:               0.0 elap:               0.0
 (Enter /home/sekinelabo/g16/l301.exe)
 Standard basis: 6-311+G(d) (5D, 7F)
 Ernie: Thresh=  0.10000D-02 Tol=  0.10000D-05 Strict=F.
 There are   217 symmetry adapted cartesian basis functions of A   symmetry.
 There are   210 symmetry adapted basis functions of A   symmetry.
   210 basis functions,   350 primitive gaussians,   217 cartesian basis functions
    39 alpha electrons       38 beta electrons
       nuclear repulsion energy       281.2408313355 Hartrees.
 IExCor=  402 DFT=T Ex+Corr=B3LYP ExCW=0 ScaHFX=  0.200000
 ScaDFX=  0.800000  0.720000  1.000000  0.810000 ScalE2=  1.000000  1.000000
 IRadAn=      5 IRanWt=     -1 IRanGd=            0 ICorTp=0 IEmpDi=  4
 NAtoms=    7 NActive=    7 NUniq=    7 SFac= 1.00D+00 NAtFMM=   60 NAOKFM=F Big=F
 Integral buffers will be    131072 words long.
 Raffenetti 2 integral format.
 Two-electron integral symmetry is turned on.
 Leave Link  301 at Tue Nov 28 23:03:35 2023, MaxMem=  1879048192 cpu:               0.5 elap:               0.0
 (Enter /home/sekinelabo/g16/l302.exe)
 NPDir=0 NMtPBC=     1 NCelOv=     1 NCel=       1 NClECP=     1 NCelD=      1
         NCelK=      1 NCelE2=     1 NClLst=     1 CellRange=     0.0.
 One-electron integrals computed using PRISM.
 One-electron integral symmetry used in STVInt
 NBasis=   210 RedAO= T EigKep=  4.69D-06  NBF=   210
 NBsUse=   210 1.00D-06 EigRej= -1.00D+00 NBFU=   210
 Precomputing XC quadrature grid using
 IXCGrd= 4 IRadAn=           5 IRanWt=          -1 IRanGd=           0 AccXCQ= 0.00D+00.
 Generated NRdTot=       0 NPtTot=           0 NUsed=           0 NTot=          32
 NSgBfM=   206   206   206   206   206 MxSgAt=     7 MxSgA2=     7.
 Leave Link  302 at Tue Nov 28 23:03:35 2023, MaxMem=  1879048192 cpu:               1.9 elap:               0.1
 (Enter /home/sekinelabo/g16/l303.exe)
 DipDrv:  MaxL=1.
 Leave Link  303 at Tue Nov 28 23:03:35 2023, MaxMem=  1879048192 cpu:               0.5 elap:               0.0
 (Enter /home/sekinelabo/g16/l401.exe)
 ExpMin= 7.60D-03 ExpMax= 3.62D+04 ExpMxC= 1.21D+03 IAcc=3 IRadAn=         5 AccDes= 0.00D+00
 Harris functional with IExCor=  402 and IRadAn=       5 diagonalized for initial guess.
 HarFok:  IExCor=  402 AccDes= 0.00D+00 IRadAn=         5 IDoV= 1 UseB2=F ITyADJ=14
 ICtDFT=  3500011 ScaDFX=  1.000000  1.000000  1.000000  1.000000
 FoFCou: FMM=F IPFlag=           0 FMFlag=      100000 FMFlg1=           0
         NFxFlg=           0 DoJE=T BraDBF=F KetDBF=T FulRan=T
         wScrn=  0.000000 ICntrl=       500 IOpCl=  0 I1Cent=   200000004 NGrid=           0
         NMat0=    1 NMatS0=      1 NMatT0=    0 NMatD0=    1 NMtDS0=    0 NMtDT0=    0
 Petite list used in FoFCou.
 Harris En= -1135.88257763992    
 JPrj=0 DoOrth=F DoCkMO=F.
 Initial guess <Sx>= 0.0000 <Sy>= 0.0000 <Sz>= 0.5000 <S**2>= 0.7500 S= 0.5000
 Leave Link  401 at Tue Nov 28 23:03:36 2023, MaxMem=  1879048192 cpu:               4.1 elap:               0.3
 (Enter /home/sekinelabo/g16/l502.exe)
 Keep R1 and R2 ints in memory in canonical form, NReq=506573307.
 FoFCou: FMM=F IPFlag=           0 FMFlag=           0 FMFlg1=           0
         NFxFlg=           0 DoJE=F BraDBF=F KetDBF=F FulRan=T
         wScrn=  0.000000 ICntrl=       600 IOpCl=  0 I1Cent=           0 NGrid=           0
         NMat0=    1 NMatS0=  22155 NMatT0=    0 NMatD0=    1 NMtDS0=    0 NMtDT0=    0
 Symmetry not used in FoFCou.
 Two-electron integral symmetry not used.
 UHF open shell SCF:
 Using DIIS extrapolation, IDIIS=  1040.
 NGot=  1879048192 LenX=  1388082593 LenY=  1388035063
 Requested convergence on RMS density matrix=1.00D-08 within 128 cycles.
 Requested convergence on MAX density matrix=1.00D-06.
 Requested convergence on             energy=1.00D-06.
 No special actions if energy rises.

 Cycle   1  Pass 1  IDiag  1:
 E= -1136.08657224386    
 DIIS: error= 9.09D-03 at cycle   1 NSaved=   1.
 NSaved= 1 IEnMin= 1 EnMin= -1136.08657224386     IErMin= 1 ErrMin= 9.09D-03
 ErrMax= 9.09D-03  0.00D+00 EMaxC= 1.00D-01 BMatC= 1.83D-01 BMatP= 1.83D-01
 IDIUse=3 WtCom= 9.09D-01 WtEn= 9.09D-02
 Coeff-Com:  0.100D+01
 Coeff-En:   0.100D+01
 Coeff:      0.100D+01
 Gap=     0.041 Goal=   None    Shift=    0.000
 Gap=     0.033 Goal=   None    Shift=    0.000
 GapD=    0.033 DampG=0.250 DampE=1.000 DampFc=0.2500 IDamp=-1.
 Damping current iteration by 2.50D-01
 RMSDP=8.48D-03 MaxDP=5.93D-01              OVMax= 1.60D-01

 Cycle   2  Pass 1  IDiag  1:
 E= -1136.09477462503     Delta-E=       -0.008202381166 Rises=F Damp=T
 DIIS: error= 6.29D-03 at cycle   2 NSaved=   2.
 NSaved= 2 IEnMin= 2 EnMin= -1136.09477462503     IErMin= 2 ErrMin= 6.29D-03
 ErrMax= 6.29D-03  0.00D+00 EMaxC= 1.00D-01 BMatC= 7.09D-02 BMatP= 1.83D-01
 IDIUse=3 WtCom= 9.37D-01 WtEn= 6.29D-02
 Coeff-Com: -0.130D+01 0.230D+01
 Coeff-En:   0.000D+00 0.100D+01
 Coeff:     -0.122D+01 0.222D+01
 Gap=     0.044 Goal=   None    Shift=    0.000
 Gap=     0.033 Goal=   None    Shift=    0.000
 RMSDP=5.18D-03 MaxDP=2.57D-01 DE=-8.20D-03 OVMax= 1.97D-01

 Cycle   3  Pass 1  IDiag  1:
 E= -1136.10926689076     Delta-E=       -0.014492265733 Rises=F Damp=F
 DIIS: error= 2.53D-03 at cycle   3 NSaved=   3.
 NSaved= 3 IEnMin= 3 EnMin= -1136.10926689076     IErMin= 3 ErrMin= 2.53D-03
 ErrMax= 2.53D-03  0.00D+00 EMaxC= 1.00D-01 BMatC= 1.92D-03 BMatP= 7.09D-02
 IDIUse=3 WtCom= 9.75D-01 WtEn= 2.53D-02
 Coeff-Com: -0.184D+00 0.311D+00 0.873D+00
 Coeff-En:   0.000D+00 0.000D+00 0.100D+01
 Coeff:     -0.179D+00 0.303D+00 0.876D+00
 Gap=     0.048 Goal=   None    Shift=    0.000
 Gap=     0.036 Goal=   None    Shift=    0.000
 RMSDP=3.16D-03 MaxDP=1.56D-01 DE=-1.45D-02 OVMax= 1.66D-01

 Cycle   4  Pass 1  IDiag  1:
 E= -1136.10689999427     Delta-E=        0.002366896493 Rises=F Damp=F
 DIIS: error= 3.51D-03 at cycle   4 NSaved=   4.
 NSaved= 4 IEnMin= 3 EnMin= -1136.10926689076     IErMin= 3 ErrMin= 2.53D-03
 ErrMax= 3.51D-03  0.00D+00 EMaxC= 1.00D-01 BMatC= 3.87D-03 BMatP= 1.92D-03
 IDIUse=3 WtCom= 1.44D-01 WtEn= 8.56D-01
 Coeff-Com: -0.167D-01 0.227D-01 0.587D+00 0.407D+00
 Coeff-En:   0.000D+00 0.000D+00 0.622D+00 0.378D+00
 Coeff:     -0.241D-02 0.327D-02 0.617D+00 0.382D+00
 Gap=     0.044 Goal=   None    Shift=    0.000
 Gap=     0.036 Goal=   None    Shift=    0.000
 RMSDP=1.71D-03 MaxDP=1.07D-01 DE= 2.37D-03 OVMax= 9.77D-02

 Cycle   5  Pass 1  IDiag  1:
 E= -1136.11203316820     Delta-E=       -0.005133173927 Rises=F Damp=F
 DIIS: error= 3.77D-04 at cycle   5 NSaved=   5.
 NSaved= 5 IEnMin= 5 EnMin= -1136.11203316820     IErMin= 5 ErrMin= 3.77D-04
 ErrMax= 3.77D-04  0.00D+00 EMaxC= 1.00D-01 BMatC= 5.32D-05 BMatP= 1.92D-03
 IDIUse=3 WtCom= 9.96D-01 WtEn= 3.77D-03
 Coeff-Com:  0.850D-02-0.125D-01 0.141D+00 0.150D-01 0.848D+00
 Coeff-En:   0.000D+00 0.000D+00 0.000D+00 0.000D+00 0.100D+01
 Coeff:      0.847D-02-0.125D-01 0.141D+00 0.150D-01 0.849D+00
 Gap=     0.042 Goal=   None    Shift=    0.000
 Gap=     0.035 Goal=   None    Shift=    0.000
 RMSDP=4.84D-04 MaxDP=3.72D-02 DE=-5.13D-03 OVMax= 1.38D-02

 Cycle   6  Pass 1  IDiag  1:
 E= -1136.11212630845     Delta-E=       -0.000093140254 Rises=F Damp=F
 DIIS: error= 1.27D-04 at cycle   6 NSaved=   6.
 NSaved= 6 IEnMin= 6 EnMin= -1136.11212630845     IErMin= 6 ErrMin= 1.27D-04
 ErrMax= 1.27D-04  0.00D+00 EMaxC= 1.00D-01 BMatC= 8.91D-06 BMatP= 5.32D-05
 IDIUse=3 WtCom= 9.99D-01 WtEn= 1.27D-03
 Coeff-Com:  0.573D-02-0.828D-02-0.314D-01-0.646D-01 0.434D+00 0.665D+00
 Coeff-En:   0.000D+00 0.000D+00 0.000D+00 0.000D+00 0.000D+00 0.100D+01
 Coeff:      0.572D-02-0.827D-02-0.314D-01-0.645D-01 0.433D+00 0.665D+00
 Gap=     0.042 Goal=   None    Shift=    0.000
 Gap=     0.036 Goal=   None    Shift=    0.000
 RMSDP=2.55D-04 MaxDP=1.76D-02 DE=-9.31D-05 OVMax= 1.03D-02

 Cycle   7  Pass 1  IDiag  1:
 E= -1136.11215060005     Delta-E=       -0.000024291601 Rises=F Damp=F
 DIIS: error= 1.16D-04 at cycle   7 NSaved=   7.
 NSaved= 7 IEnMin= 7 EnMin= -1136.11215060005     IErMin= 7 ErrMin= 1.16D-04
 ErrMax= 1.16D-04  0.00D+00 EMaxC= 1.00D-01 BMatC= 3.52D-06 BMatP= 8.91D-06
 IDIUse=3 WtCom= 9.99D-01 WtEn= 1.16D-03
 Coeff-Com:  0.244D-03-0.326D-03-0.675D-01-0.418D-01-0.331D-01 0.406D+00
 Coeff-Com:  0.736D+00
 Coeff-En:   0.000D+00 0.000D+00 0.000D+00 0.000D+00 0.000D+00 0.000D+00
 Coeff-En:   0.100D+01
 Coeff:      0.243D-03-0.326D-03-0.674D-01-0.417D-01-0.331D-01 0.406D+00
 Coeff:      0.737D+00
 Gap=     0.042 Goal=   None    Shift=    0.000
 Gap=     0.036 Goal=   None    Shift=    0.000
 RMSDP=2.75D-04 MaxDP=2.42D-02 DE=-2.43D-05 OVMax= 8.37D-03

 Cycle   8  Pass 1  IDiag  1:
 E= -1136.11216610451     Delta-E=       -0.000015504464 Rises=F Damp=F
 DIIS: error= 4.91D-05 at cycle   8 NSaved=   8.
 NSaved= 8 IEnMin= 8 EnMin= -1136.11216610451     IErMin= 8 ErrMin= 4.91D-05
 ErrMax= 4.91D-05  0.00D+00 EMaxC= 1.00D-01 BMatC= 7.20D-07 BMatP= 3.52D-06
 IDIUse=1 WtCom= 1.00D+00 WtEn= 0.00D+00
 Coeff-Com:  0.394D-04 0.135D-03-0.207D-01-0.191D-02-0.987D-01-0.859D-01
 Coeff-Com:  0.117D+00 0.109D+01
 Coeff:      0.394D-04 0.135D-03-0.207D-01-0.191D-02-0.987D-01-0.859D-01
 Coeff:      0.117D+00 0.109D+01
 Gap=     0.043 Goal=   None    Shift=    0.000
 Gap=     0.036 Goal=   None    Shift=    0.000
 RMSDP=2.33D-04 MaxDP=2.02D-02 DE=-1.55D-05 OVMax= 6.79D-03

 Cycle   9  Pass 1  IDiag  1:
 E= -1136.11217334930     Delta-E=       -0.000007244787 Rises=F Damp=F
 DIIS: error= 4.38D-05 at cycle   9 NSaved=   9.
 NSaved= 9 IEnMin= 9 EnMin= -1136.11217334930     IErMin= 9 ErrMin= 4.38D-05
 ErrMax= 4.38D-05  0.00D+00 EMaxC= 1.00D-01 BMatC= 3.96D-07 BMatP= 7.20D-07
 IDIUse=1 WtCom= 1.00D+00 WtEn= 0.00D+00
 Coeff-Com:  0.286D-03-0.278D-03 0.105D-01 0.128D-01-0.283D-01-0.186D+00
 Coeff-Com: -0.251D+00 0.589D+00 0.853D+00
 Coeff:      0.286D-03-0.278D-03 0.105D-01 0.128D-01-0.283D-01-0.186D+00
 Coeff:     -0.251D+00 0.589D+00 0.853D+00
 Gap=     0.043 Goal=   None    Shift=    0.000
 Gap=     0.036 Goal=   None    Shift=    0.000
 RMSDP=1.47D-04 MaxDP=1.32D-02 DE=-7.24D-06 OVMax= 4.53D-03

 Cycle  10  Pass 1  IDiag  1:
 E= -1136.11217623481     Delta-E=       -0.000002885507 Rises=F Damp=F
 DIIS: error= 1.47D-05 at cycle  10 NSaved=  10.
 NSaved=10 IEnMin=10 EnMin= -1136.11217623481     IErMin=10 ErrMin= 1.47D-05
 ErrMax= 1.47D-05  0.00D+00 EMaxC= 1.00D-01 BMatC= 1.07D-07 BMatP= 3.96D-07
 IDIUse=1 WtCom= 1.00D+00 WtEn= 0.00D+00
 Coeff-Com:  0.148D-03-0.204D-03 0.104D-01 0.471D-02 0.405D-01-0.531D-01
 Coeff-Com: -0.171D+00-0.469D-01 0.288D+00 0.928D+00
 Coeff:      0.148D-03-0.204D-03 0.104D-01 0.471D-02 0.405D-01-0.531D-01
 Coeff:     -0.171D+00-0.469D-01 0.288D+00 0.928D+00
 Gap=     0.043 Goal=   None    Shift=    0.000
 Gap=     0.036 Goal=   None    Shift=    0.000
 RMSDP=6.46D-05 MaxDP=6.69D-03 DE=-2.89D-06 OVMax= 2.44D-03

 Cycle  11  Pass 1  IDiag  1:
 E= -1136.11217705163     Delta-E=       -0.000000816821 Rises=F Damp=F
 DIIS: error= 1.31D-05 at cycle  11 NSaved=  11.
 NSaved=11 IEnMin=11 EnMin= -1136.11217705163     IErMin=11 ErrMin= 1.31D-05
 ErrMax= 1.31D-05  0.00D+00 EMaxC= 1.00D-01 BMatC= 4.36D-08 BMatP= 1.07D-07
 IDIUse=1 WtCom= 1.00D+00 WtEn= 0.00D+00
 Coeff-Com: -0.461D-04 0.201D-04 0.251D-02-0.266D-02 0.463D-01 0.410D-01
 Coeff-Com: -0.185D-01-0.273D+00-0.181D+00 0.535D+00 0.850D+00
 Coeff:     -0.461D-04 0.201D-04 0.251D-02-0.266D-02 0.463D-01 0.410D-01
 Coeff:     -0.185D-01-0.273D+00-0.181D+00 0.535D+00 0.850D+00
 Gap=     0.043 Goal=   None    Shift=    0.000
 Gap=     0.036 Goal=   None    Shift=    0.000
 RMSDP=3.94D-05 MaxDP=3.72D-03 DE=-8.17D-07 OVMax= 1.76D-03

 Cycle  12  Pass 1  IDiag  1:
 E= -1136.11217736690     Delta-E=       -0.000000315272 Rises=F Damp=F
 DIIS: error= 4.15D-06 at cycle  12 NSaved=  12.
 NSaved=12 IEnMin=12 EnMin= -1136.11217736690     IErMin=12 ErrMin= 4.15D-06
 ErrMax= 4.15D-06  0.00D+00 EMaxC= 1.00D-01 BMatC= 6.22D-09 BMatP= 4.36D-08
 IDIUse=1 WtCom= 1.00D+00 WtEn= 0.00D+00
 Coeff-Com:  0.220D-04-0.406D-04-0.130D-02-0.149D-02 0.631D-02 0.177D-01
 Coeff-Com:  0.193D-01-0.572D-01-0.796D-01-0.700D-01 0.211D+00 0.955D+00
 Coeff:      0.220D-04-0.406D-04-0.130D-02-0.149D-02 0.631D-02 0.177D-01
 Coeff:      0.193D-01-0.572D-01-0.796D-01-0.700D-01 0.211D+00 0.955D+00
 Gap=     0.043 Goal=   None    Shift=    0.000
 Gap=     0.036 Goal=   None    Shift=    0.000
 RMSDP=1.04D-05 MaxDP=7.80D-04 DE=-3.15D-07 OVMax= 8.03D-04

 Cycle  13  Pass 1  IDiag  1:
 E= -1136.11217742305     Delta-E=       -0.000000056147 Rises=F Damp=F
 DIIS: error= 1.98D-06 at cycle  13 NSaved=  13.
 NSaved=13 IEnMin=13 EnMin= -1136.11217742305     IErMin=13 ErrMin= 1.98D-06
 ErrMax= 1.98D-06  0.00D+00 EMaxC= 1.00D-01 BMatC= 1.73D-09 BMatP= 6.22D-09
 IDIUse=1 WtCom= 1.00D+00 WtEn= 0.00D+00
 Coeff-Com:  0.622D-04-0.733D-04-0.104D-02 0.511D-03-0.106D-01-0.105D-01
 Coeff-Com:  0.189D-02 0.764D-01 0.412D-01-0.155D+00-0.219D+00 0.102D+00
 Coeff-Com:  0.117D+01
 Coeff:      0.622D-04-0.733D-04-0.104D-02 0.511D-03-0.106D-01-0.105D-01
 Coeff:      0.189D-02 0.764D-01 0.412D-01-0.155D+00-0.219D+00 0.102D+00
 Coeff:      0.117D+01
 Gap=     0.043 Goal=   None    Shift=    0.000
 Gap=     0.037 Goal=   None    Shift=    0.000
 RMSDP=7.59D-06 MaxDP=4.63D-04 DE=-5.61D-08 OVMax= 4.74D-04

 Cycle  14  Pass 1  IDiag  1:
 E= -1136.11217744127     Delta-E=       -0.000000018223 Rises=F Damp=F
 DIIS: error= 7.86D-07 at cycle  14 NSaved=  14.
 NSaved=14 IEnMin=14 EnMin= -1136.11217744127     IErMin=14 ErrMin= 7.86D-07
 ErrMax= 7.86D-07  0.00D+00 EMaxC= 1.00D-01 BMatC= 4.22D-10 BMatP= 1.73D-09
 IDIUse=1 WtCom= 1.00D+00 WtEn= 0.00D+00
 Coeff-Com:  0.125D-04-0.129D-04 0.267D-03 0.317D-03-0.496D-03-0.593D-02
 Coeff-Com: -0.854D-02 0.234D-01 0.201D-01 0.127D-01-0.583D-01-0.270D+00
 Coeff-Com:  0.414D-01 0.125D+01
 Coeff:      0.125D-04-0.129D-04 0.267D-03 0.317D-03-0.496D-03-0.593D-02
 Coeff:     -0.854D-02 0.234D-01 0.201D-01 0.127D-01-0.583D-01-0.270D+00
 Coeff:      0.414D-01 0.125D+01
 Gap=     0.043 Goal=   None    Shift=    0.000
 Gap=     0.036 Goal=   None    Shift=    0.000
 RMSDP=6.24D-06 MaxDP=4.21D-04 DE=-1.82D-08 OVMax= 2.42D-04

 Cycle  15  Pass 1  IDiag  1:
 E= -1136.11217744599     Delta-E=       -0.000000004717 Rises=F Damp=F
 DIIS: error= 4.99D-07 at cycle  15 NSaved=  15.
 NSaved=15 IEnMin=15 EnMin= -1136.11217744599     IErMin=15 ErrMin= 4.99D-07
 ErrMax= 4.99D-07  0.00D+00 EMaxC= 1.00D-01 BMatC= 7.98D-11 BMatP= 4.22D-10
 IDIUse=1 WtCom= 1.00D+00 WtEn= 0.00D+00
 Coeff-Com: -0.146D-04 0.185D-04 0.238D-03-0.129D-03 0.288D-02 0.181D-02
 Coeff-Com: -0.195D-02-0.156D-01-0.669D-02 0.357D-01 0.449D-01-0.308D-01
 Coeff-Com: -0.285D+00 0.184D+00 0.107D+01
 Coeff:     -0.146D-04 0.185D-04 0.238D-03-0.129D-03 0.288D-02 0.181D-02
 Coeff:     -0.195D-02-0.156D-01-0.669D-02 0.357D-01 0.449D-01-0.308D-01
 Coeff:     -0.285D+00 0.184D+00 0.107D+01
 Gap=     0.043 Goal=   None    Shift=    0.000
 Gap=     0.037 Goal=   None    Shift=    0.000
 RMSDP=3.08D-06 MaxDP=2.87D-04 DE=-4.72D-09 OVMax= 8.78D-05

 Cycle  16  Pass 1  IDiag  1:
 E= -1136.11217744672     Delta-E=       -0.000000000737 Rises=F Damp=F
 DIIS: error= 2.24D-07 at cycle  16 NSaved=  16.
 NSaved=16 IEnMin=16 EnMin= -1136.11217744672     IErMin=16 ErrMin= 2.24D-07
 ErrMax= 2.24D-07  0.00D+00 EMaxC= 1.00D-01 BMatC= 2.14D-11 BMatP= 7.98D-11
 IDIUse=1 WtCom= 1.00D+00 WtEn= 0.00D+00
 Coeff-Com: -0.376D-05 0.418D-05 0.390D-04-0.764D-04 0.897D-03 0.129D-02
 Coeff-Com:  0.766D-03-0.779D-02-0.487D-02 0.729D-02 0.196D-01 0.410D-01
 Coeff-Com: -0.740D-01-0.216D+00 0.315D+00 0.916D+00
 Coeff:     -0.376D-05 0.418D-05 0.390D-04-0.764D-04 0.897D-03 0.129D-02
 Coeff:      0.766D-03-0.779D-02-0.487D-02 0.729D-02 0.196D-01 0.410D-01
 Coeff:     -0.740D-01-0.216D+00 0.315D+00 0.916D+00
 Gap=     0.043 Goal=   None    Shift=    0.000
 Gap=     0.037 Goal=   None    Shift=    0.000
 RMSDP=1.21D-06 MaxDP=9.99D-05 DE=-7.37D-10 OVMax= 3.69D-05

 Cycle  17  Pass 1  IDiag  1:
 E= -1136.11217744687     Delta-E=       -0.000000000144 Rises=F Damp=F
 DIIS: error= 9.71D-08 at cycle  17 NSaved=  17.
 NSaved=17 IEnMin=17 EnMin= -1136.11217744687     IErMin=17 ErrMin= 9.71D-08
 ErrMax= 9.71D-08  0.00D+00 EMaxC= 1.00D-01 BMatC= 4.45D-12 BMatP= 2.14D-11
 IDIUse=1 WtCom= 1.00D+00 WtEn= 0.00D+00
 Coeff-Com:  0.558D-05-0.735D-05-0.614D-04 0.150D-04-0.564D-03-0.262D-03
 Coeff-Com:  0.459D-03 0.300D-02 0.116D-02-0.815D-02-0.943D-02 0.999D-02
 Coeff-Com:  0.719D-01-0.949D-01-0.236D+00 0.134D+00 0.113D+01
 Coeff:      0.558D-05-0.735D-05-0.614D-04 0.150D-04-0.564D-03-0.262D-03
 Coeff:      0.459D-03 0.300D-02 0.116D-02-0.815D-02-0.943D-02 0.999D-02
 Coeff:      0.719D-01-0.949D-01-0.236D+00 0.134D+00 0.113D+01
 Gap=     0.043 Goal=   None    Shift=    0.000
 Gap=     0.037 Goal=   None    Shift=    0.000
 RMSDP=6.82D-07 MaxDP=5.64D-05 DE=-1.44D-10 OVMax= 2.38D-05

 Cycle  18  Pass 1  IDiag  1:
 E= -1136.11217744691     Delta-E=       -0.000000000043 Rises=F Damp=F
 DIIS: error= 3.81D-08 at cycle  18 NSaved=  18.
 NSaved=18 IEnMin=18 EnMin= -1136.11217744691     IErMin=18 ErrMin= 3.81D-08
 ErrMax= 3.81D-08  0.00D+00 EMaxC= 1.00D-01 BMatC= 7.69D-13 BMatP= 4.45D-12
 IDIUse=1 WtCom= 1.00D+00 WtEn= 0.00D+00
 Coeff-Com:  0.932D-06-0.109D-05-0.162D-04 0.131D-04-0.233D-03-0.208D-03
 Coeff-Com: -0.114D-03 0.171D-02 0.898D-03-0.259D-02-0.393D-02-0.483D-02
 Coeff-Com:  0.179D-01 0.400D-01-0.977D-01-0.135D+00 0.608D-01 0.112D+01
 Coeff:      0.932D-06-0.109D-05-0.162D-04 0.131D-04-0.233D-03-0.208D-03
 Coeff:     -0.114D-03 0.171D-02 0.898D-03-0.259D-02-0.393D-02-0.483D-02
 Coeff:      0.179D-01 0.400D-01-0.977D-01-0.135D+00 0.608D-01 0.112D+01
 Gap=     0.043 Goal=   None    Shift=    0.000
 Gap=     0.037 Goal=   None    Shift=    0.000
 RMSDP=1.74D-07 MaxDP=1.41D-05 DE=-4.30D-11 OVMax= 8.32D-06

 Cycle  19  Pass 1  IDiag  1:
 E= -1136.11217744693     Delta-E=       -0.000000000018 Rises=F Damp=F
 DIIS: error= 1.75D-08 at cycle  19 NSaved=  19.
 NSaved=19 IEnMin=19 EnMin= -1136.11217744693     IErMin=19 ErrMin= 1.75D-08
 ErrMax= 1.75D-08  0.00D+00 EMaxC= 1.00D-01 BMatC= 1.24D-13 BMatP= 7.69D-13
 IDIUse=1 WtCom= 1.00D+00 WtEn= 0.00D+00
 Coeff-Com: -0.996D-06 0.132D-05 0.671D-05-0.270D-05 0.655D-04 0.319D-04
 Coeff-Com: -0.537D-05-0.423D-03-0.168D-03 0.126D-02 0.103D-02-0.258D-02
 Coeff-Com: -0.854D-02 0.167D-01 0.277D-01-0.350D-01-0.165D+00 0.688D-01
 Coeff-Com:  0.110D+01
 Coeff:     -0.996D-06 0.132D-05 0.671D-05-0.270D-05 0.655D-04 0.319D-04
 Coeff:     -0.537D-05-0.423D-03-0.168D-03 0.126D-02 0.103D-02-0.258D-02
 Coeff:     -0.854D-02 0.167D-01 0.277D-01-0.350D-01-0.165D+00 0.688D-01
 Coeff:      0.110D+01
 Gap=     0.043 Goal=   None    Shift=    0.000
 Gap=     0.037 Goal=   None    Shift=    0.000
 RMSDP=6.31D-08 MaxDP=4.29D-06 DE=-1.77D-11 OVMax= 3.25D-06

 Cycle  20  Pass 1  IDiag  1:
 E= -1136.11217744693     Delta-E=       -0.000000000004 Rises=F Damp=F
 DIIS: error= 8.17D-09 at cycle  20 NSaved=  20.
 NSaved=20 IEnMin=20 EnMin= -1136.11217744693     IErMin=20 ErrMin= 8.17D-09
 ErrMax= 8.17D-09  0.00D+00 EMaxC= 1.00D-01 BMatC= 3.01D-14 BMatP= 1.24D-13
 IDIUse=1 WtCom= 1.00D+00 WtEn= 0.00D+00
 Coeff-Com:  0.965D-08-0.305D-07 0.255D-05-0.830D-06 0.158D-04 0.406D-04
 Coeff-Com:  0.338D-04-0.233D-03-0.650D-04 0.269D-03 0.260D-03 0.935D-03
 Coeff-Com: -0.145D-02-0.767D-02 0.835D-02 0.319D-01 0.260D-01-0.252D+00
 Coeff-Com: -0.133D+00 0.133D+01
 Coeff:      0.965D-08-0.305D-07 0.255D-05-0.830D-06 0.158D-04 0.406D-04
 Coeff:      0.338D-04-0.233D-03-0.650D-04 0.269D-03 0.260D-03 0.935D-03
 Coeff:     -0.145D-02-0.767D-02 0.835D-02 0.319D-01 0.260D-01-0.252D+00
 Coeff:     -0.133D+00 0.133D+01
 Gap=     0.043 Goal=   None    Shift=    0.000
 Gap=     0.037 Goal=   None    Shift=    0.000
 RMSDP=1.96D-08 MaxDP=7.34D-07 DE=-3.87D-12 OVMax= 1.56D-06

 Cycle  21  Pass 1  IDiag  1:
 E= -1136.11217744693     Delta-E=        0.000000000003 Rises=F Damp=F
 DIIS: error= 3.61D-09 at cycle  21 NSaved=  20.
 NSaved=20 IEnMin=19 EnMin= -1136.11217744693     IErMin=20 ErrMin= 3.61D-09
 ErrMax= 3.61D-09  0.00D+00 EMaxC= 1.00D-01 BMatC= 5.09D-15 BMatP= 3.01D-14
 IDIUse=1 WtCom= 1.00D+00 WtEn= 0.00D+00
 Large coefficients: NSaved= 20 BigCof=    0.00 CofMax=   10.00 Det=-4.88D-15
 Inversion failed.  Reducing to 19 matrices.
 Large coefficients: NSaved= 19 BigCof=    0.00 CofMax=   10.00 Det=-4.89D-15
 Inversion failed.  Reducing to 18 matrices.
 Large coefficients: NSaved= 18 BigCof=    0.00 CofMax=   10.00 Det=-4.95D-15
 Inversion failed.  Reducing to 17 matrices.
 Large coefficients: NSaved= 17 BigCof=    0.00 CofMax=   10.00 Det=-5.31D-15
 Inversion failed.  Reducing to 16 matrices.
 Large coefficients: NSaved= 16 BigCof=    0.00 CofMax=   10.00 Det=-6.10D-15
 Inversion failed.  Reducing to 15 matrices.
 Coeff-Com: -0.525D-05-0.177D-05 0.122D-04 0.508D-04-0.390D-04-0.959D-04
 Coeff-Com:  0.691D-03-0.143D-02-0.217D-02 0.877D-02 0.180D-01-0.471D-01
 Coeff-Com: -0.103D+00 0.526D-01 0.107D+01
 Coeff:     -0.525D-05-0.177D-05 0.122D-04 0.508D-04-0.390D-04-0.959D-04
 Coeff:      0.691D-03-0.143D-02-0.217D-02 0.877D-02 0.180D-01-0.471D-01
 Coeff:     -0.103D+00 0.526D-01 0.107D+01
 Gap=     0.043 Goal=   None    Shift=    0.000
 Gap=     0.037 Goal=   None    Shift=    0.000
 RMSDP=9.48D-09 MaxDP=5.19D-07 DE= 2.50D-12 OVMax= 6.84D-07

 SCF Done:  E(UB3LYP) =  -1136.11217745     A.U. after   21 cycles
            NFock= 21  Conv=0.95D-08     -V/T= 2.0029
 <Sx>= 0.0000 <Sy>= 0.0000 <Sz>= 0.5000 <S**2>= 0.8043 S= 0.5268
 <L.S>= 0.000000000000E+00
 KE= 1.132855747608D+03 PE=-3.291523156379D+03 EE= 7.413143999883D+02
 Annihilation of the first spin contaminant:
 S**2 before annihilation     0.8043,   after     0.7514
 Leave Link  502 at Tue Nov 28 23:03:52 2023, MaxMem=  1879048192 cpu:             177.6 elap:              16.4
 (Enter /home/sekinelabo/g16/l601.exe)
 Copying SCF densities to generalized density rwf, IOpCl= 1 IROHF=0.

 **********************************************************************

            Population analysis using the SCF Density.

 **********************************************************************

 Orbital symmetries:
 Alpha Orbitals:
       Occupied  (A) (A) (A) (A) (A) (A) (A) (A) (A) (A) (A) (A)
                 (A) (A) (A) (A) (A) (A) (A) (A) (A) (A) (A) (A)
                 (A) (A) (A) (A) (A) (A) (A) (A) (A) (A) (A) (A)
                 (A) (A) (A)
       Virtual   (A) (A) (A) (A) (A) (A) (A) (A) (A) (A) (A) (A)
                 (A) (A) (A) (A) (A) (A) (A) (A) (A) (A) (A) (A)
                 (A) (A) (A) (A) (A) (A) (A) (A) (A) (A) (A) (A)
                 (A) (A) (A) (A) (A) (A) (A) (A) (A) (A) (A) (A)
                 (A) (A) (A) (A) (A) (A) (A) (A) (A) (A) (A) (A)
                 (A) (A) (A) (A) (A) (A) (A) (A) (A) (A) (A) (A)
                 (A) (A) (A) (A) (A) (A) (A) (A) (A) (A) (A) (A)
                 (A) (A) (A) (A) (A) (A) (A) (A) (A) (A) (A) (A)
                 (A) (A) (A) (A) (A) (A) (A) (A) (A) (A) (A) (A)
                 (A) (A) (A) (A) (A) (A) (A) (A) (A) (A) (A) (A)
                 (A) (A) (A) (A) (A) (A) (A) (A) (A) (A) (A) (A)
                 (A) (A) (A) (A) (A) (A) (A) (A) (A) (A) (A) (A)
                 (A) (A) (A) (A) (A) (A) (A) (A) (A) (A) (A) (A)
                 (A) (A) (A) (A) (A) (A) (A) (A) (A) (A) (A) (A)
                 (A) (A) (A)
 Beta  Orbitals:
       Occupied  (A) (A) (A) (A) (A) (A) (A) (A) (A) (A) (A) (A)
                 (A) (A) (A) (A) (A) (A) (A) (A) (A) (A) (A) (A)
                 (A) (A) (A) (A) (A) (A) (A) (A) (A) (A) (A) (A)
                 (A) (A)
       Virtual   (A) (A) (A) (A) (A) (A) (A) (A) (A) (A) (A) (A)
                 (A) (A) (A) (A) (A) (A) (A) (A) (A) (A) (A) (A)
                 (A) (A) (A) (A) (A) (A) (A) (A) (A) (A) (A) (A)
                 (A) (A) (A) (A) (A) (A) (A) (A) (A) (A) (A) (A)
                 (A) (A) (A) (A) (A) (A) (A) (A) (A) (A) (A) (A)
                 (A) (A) (A) (A) (A) (A) (A) (A) (A) (A) (A) (A)
                 (A) (A) (A) (A) (A) (A) (A) (A) (A) (A) (A) (A)
                 (A) (A) (A) (A) (A) (A) (A) (A) (A) (A) (A) (A)
                 (A) (A) (A) (A) (A) (A) (A) (A) (A) (A) (A) (A)
                 (A) (A) (A) (A) (A) (A) (A) (A) (A) (A) (A) (A)
                 (A) (A) (A) (A) (A) (A) (A) (A) (A) (A) (A) (A)
                 (A) (A) (A) (A) (A) (A) (A) (A) (A) (A) (A) (A)
                 (A) (A) (A) (A) (A) (A) (A) (A) (A) (A) (A) (A)
                 (A) (A) (A) (A) (A) (A) (A) (A) (A) (A) (A) (A)
                 (A) (A) (A) (A)
 The electronic state is 2-A.
 Alpha  occ. eigenvalues --  -38.44586 -38.44319 -38.44314 -38.44272 -38.44196
 Alpha  occ. eigenvalues --  -38.44113 -38.44094  -2.20419  -2.20199  -2.20093
 Alpha  occ. eigenvalues --   -2.20056  -2.19974  -2.19969  -2.19894  -1.14102
 Alpha  occ. eigenvalues --   -1.14089  -1.14056  -1.13877  -1.13873  -1.13801
 Alpha  occ. eigenvalues --   -1.13744  -1.13742  -1.13726  -1.13717  -1.13714
 Alpha  occ. eigenvalues --   -1.13699  -1.13652  -1.13648  -1.13631  -1.13625
 Alpha  occ. eigenvalues --   -1.13589  -1.13584  -1.13573  -1.13560  -1.13525
 Alpha  occ. eigenvalues --   -0.17002  -0.13827  -0.11837  -0.11096
 Alpha virt. eigenvalues --   -0.06824  -0.06094  -0.04268  -0.03509  -0.02919
 Alpha virt. eigenvalues --   -0.02617  -0.02061  -0.01699  -0.01068  -0.00469
 Alpha virt. eigenvalues --   -0.00360  -0.00275   0.00107   0.00374   0.00516
 Alpha virt. eigenvalues --    0.00615   0.00747   0.00968   0.01127   0.01207
 Alpha virt. eigenvalues --    0.01276   0.01471   0.01670   0.01700   0.01807
 Alpha virt. eigenvalues --    0.01953   0.02051   0.02123   0.02201   0.02317
 Alpha virt. eigenvalues --    0.02388   0.02556   0.02587   0.02722   0.02822
 Alpha virt. eigenvalues --    0.02947   0.03192   0.03298   0.03462   0.03497
 Alpha virt. eigenvalues --    0.03631   0.03872   0.03931   0.03974   0.04200
 Alpha virt. eigenvalues --    0.04601   0.04854   0.05126   0.05306   0.05643
 Alpha virt. eigenvalues --    0.05949   0.06266   0.06700   0.07120   0.07329
 Alpha virt. eigenvalues --    0.07660   0.07668   0.08070   0.08160   0.08374
 Alpha virt. eigenvalues --    0.08468   0.08631   0.09010   0.09255   0.10093
 Alpha virt. eigenvalues --    0.10434   0.10708   0.11646   0.11767   0.11932
 Alpha virt. eigenvalues --    0.12286   0.12592   0.13326   0.13614   0.13977
 Alpha virt. eigenvalues --    0.14339   0.14728   0.15479   0.15815   0.17752
 Alpha virt. eigenvalues --    0.25991   0.26193   0.28545   0.29675   0.29788
 Alpha virt. eigenvalues --    0.30580   0.30764   0.31269   0.31619   0.32452
 Alpha virt. eigenvalues --    0.33146   0.33901   0.34759   0.35612   0.35897
 Alpha virt. eigenvalues --    0.36591   0.37176   0.38040   0.40089   0.40679
 Alpha virt. eigenvalues --    0.41389   0.41890   0.42178   0.43100   0.43166
 Alpha virt. eigenvalues --    0.43440   0.43832   0.43921   0.44206   0.44440
 Alpha virt. eigenvalues --    0.44784   0.45008   0.45163   0.45363   0.45460
 Alpha virt. eigenvalues --    0.46100   0.46394   0.46764   0.47550   0.48438
 Alpha virt. eigenvalues --    0.48582   0.49355   0.49881   0.50134   0.51220
 Alpha virt. eigenvalues --    0.51383   0.53098   0.53489   0.53989   0.55878
 Alpha virt. eigenvalues --    0.57401   0.59345   0.60861   0.61742   0.66812
 Alpha virt. eigenvalues --    0.68546   2.02877   2.06984   2.08460   2.12334
 Alpha virt. eigenvalues --    2.16568   2.18080   2.21363   4.41978   4.43478
 Alpha virt. eigenvalues --    4.43899   4.44090   4.44382   4.44627   4.44909
 Alpha virt. eigenvalues --    4.45229   4.45311   4.45563   4.46170   4.46369
 Alpha virt. eigenvalues --    4.47197   4.48003   4.49482   4.50040   4.50727
 Alpha virt. eigenvalues --    4.52075   4.53033   4.59155   4.62318  96.22249
 Alpha virt. eigenvalues --   96.27287  96.28876  96.33514  96.38884  96.41111
 Alpha virt. eigenvalues --   96.44653
  Beta  occ. eigenvalues --  -38.44584 -38.44256 -38.44252 -38.44250 -38.44169
  Beta  occ. eigenvalues --  -38.44110 -38.44085  -2.20415  -2.20080  -2.20018
  Beta  occ. eigenvalues --   -2.19973  -2.19929  -2.19923  -2.19918  -1.14104
  Beta  occ. eigenvalues --   -1.14082  -1.14046  -1.13806  -1.13796  -1.13712
  Beta  occ. eigenvalues --   -1.13701  -1.13685  -1.13674  -1.13663  -1.13660
  Beta  occ. eigenvalues --   -1.13642  -1.13616  -1.13611  -1.13601  -1.13591
  Beta  occ. eigenvalues --   -1.13589  -1.13583  -1.13552  -1.13534  -1.13519
  Beta  occ. eigenvalues --   -0.16508  -0.13486  -0.11435
  Beta virt. eigenvalues --   -0.07785  -0.06178  -0.05771  -0.04021  -0.03190
  Beta virt. eigenvalues --   -0.02621  -0.02343  -0.01750  -0.01451  -0.00840
  Beta virt. eigenvalues --   -0.00269  -0.00198  -0.00074   0.00249   0.00495
  Beta virt. eigenvalues --    0.00573   0.00706   0.00831   0.01046   0.01172
  Beta virt. eigenvalues --    0.01261   0.01338   0.01555   0.01725   0.01757
  Beta virt. eigenvalues --    0.01945   0.02016   0.02123   0.02187   0.02316
  Beta virt. eigenvalues --    0.02391   0.02470   0.02617   0.02668   0.02751
  Beta virt. eigenvalues --    0.02887   0.03027   0.03247   0.03337   0.03489
  Beta virt. eigenvalues --    0.03535   0.03680   0.03892   0.03989   0.04065
  Beta virt. eigenvalues --    0.04378   0.04647   0.04998   0.05194   0.05383
  Beta virt. eigenvalues --    0.05721   0.06033   0.06343   0.06772   0.07152
  Beta virt. eigenvalues --    0.07389   0.07694   0.07879   0.08139   0.08264
  Beta virt. eigenvalues --    0.08507   0.08681   0.08803   0.09212   0.09483
  Beta virt. eigenvalues --    0.10191   0.10598   0.10836   0.11896   0.12029
  Beta virt. eigenvalues --    0.12163   0.12431   0.12767   0.13414   0.13942
  Beta virt. eigenvalues --    0.14036   0.14516   0.14788   0.15622   0.15987
  Beta virt. eigenvalues --    0.18006   0.26155   0.26576   0.28935   0.29902
  Beta virt. eigenvalues --    0.29981   0.30709   0.30947   0.31467   0.31786
  Beta virt. eigenvalues --    0.32607   0.33318   0.34120   0.34990   0.36192
  Beta virt. eigenvalues --    0.36445   0.36836   0.37412   0.38305   0.40363
  Beta virt. eigenvalues --    0.40955   0.41509   0.42026   0.42325   0.43179
  Beta virt. eigenvalues --    0.43280   0.43653   0.43988   0.44138   0.44379
  Beta virt. eigenvalues --    0.44596   0.44897   0.45100   0.45316   0.45470
  Beta virt. eigenvalues --    0.45568   0.46273   0.46588   0.46910   0.47573
  Beta virt. eigenvalues --    0.48577   0.48702   0.49504   0.49931   0.50272
  Beta virt. eigenvalues --    0.51383   0.51531   0.53221   0.53588   0.54154
  Beta virt. eigenvalues --    0.56077   0.57570   0.59470   0.61103   0.61898
  Beta virt. eigenvalues --    0.67014   0.68635   2.02979   2.07133   2.08597
  Beta virt. eigenvalues --    2.12457   2.16569   2.18173   2.21548   4.42004
  Beta virt. eigenvalues --    4.43518   4.43932   4.44124   4.44413   4.44671
  Beta virt. eigenvalues --    4.44999   4.45267   4.45349   4.45599   4.46195
  Beta virt. eigenvalues --    4.46414   4.47274   4.48037   4.49530   4.50084
  Beta virt. eigenvalues --    4.50761   4.52090   4.53086   4.59199   4.62345
  Beta virt. eigenvalues --   96.22285  96.27337  96.28923  96.33556  96.38887
  Beta virt. eigenvalues --   96.41140  96.44709
          Condensed to atoms (all electrons):
               1          2          3          4          5          6
     1  Na  11.055640  -0.441977   0.436924   0.136046  -0.455040  -0.678484
     2  Na  -0.441977  11.256152  -0.458484  -0.111859   0.786641   0.412009
     3  Na   0.436924  -0.458484  11.613480   0.051204  -1.230726  -0.231424
     4  Na   0.136046  -0.111859   0.051204  11.057591   0.218804  -0.466513
     5  Na  -0.455040   0.786641  -1.230726   0.218804  12.944533   0.072411
     6  Na  -0.678484   0.412009  -0.231424  -0.466513   0.072411  11.991175
     7  Na   0.045879  -0.060651   0.195704  -0.038743  -0.250883   0.168604
               7
     1  Na   0.045879
     2  Na  -0.060651
     3  Na   0.195704
     4  Na  -0.038743
     5  Na  -0.250883
     6  Na   0.168604
     7  Na  10.882544
          Atomic-Atomic Spin Densities.
               1          2          3          4          5          6
     1  Na   0.270360  -0.143147  -0.000353   0.191348  -0.096959  -0.332443
     2  Na  -0.143147   0.027380   0.107843  -0.127999   0.106341   0.078449
     3  Na  -0.000353   0.107843   0.597539   0.143657  -0.589200   0.076504
     4  Na   0.191348  -0.127999   0.143657   0.068719  -0.118171  -0.233834
     5  Na  -0.096959   0.106341  -0.589200  -0.118171   1.382138  -0.126356
     6  Na  -0.332443   0.078449   0.076504  -0.233834  -0.126356   0.482158
     7  Na  -0.008081  -0.002161   0.067902  -0.006506  -0.160329   0.071557
               7
     1  Na  -0.008081
     2  Na  -0.002161
     3  Na   0.067902
     4  Na  -0.006506
     5  Na  -0.160329
     6  Na   0.071557
     7  Na   0.375583
 Mulliken charges and spin densities:
               1          2
     1  Na   0.901013  -0.119275
     2  Na  -0.381832   0.046705
     3  Na   0.623321   0.403892
     4  Na   0.153470  -0.082785
     5  Na  -1.085740   0.397464
     6  Na  -0.267777   0.016034
     7  Na   0.057545   0.337965
 Sum of Mulliken charges =  -0.00000   1.00000
 Mulliken charges and spin densities with hydrogens summed into heavy atoms:
               1          2
     1  Na   0.901013  -0.119275
     2  Na  -0.381832   0.046705
     3  Na   0.623321   0.403892
     4  Na   0.153470  -0.082785
     5  Na  -1.085740   0.397464
     6  Na  -0.267777   0.016034
     7  Na   0.057545   0.337965
 Electronic spatial extent (au):  <R**2>=           4238.7727
 Charge=             -0.0000 electrons
 Dipole moment (field-independent basis, Debye):
    X=             -0.3860    Y=             -0.6739    Z=             -0.6754  Tot=              1.0292
 Quadrupole moment (field-independent basis, Debye-Ang):
   XX=            -67.8479   YY=            -70.8014   ZZ=            -64.9485
   XY=              0.2125   XZ=             -3.3994   YZ=             -0.9358
 Traceless Quadrupole moment (field-independent basis, Debye-Ang):
   XX=              0.0181   YY=             -2.9355   ZZ=              2.9174
   XY=              0.2125   XZ=             -3.3994   YZ=             -0.9358
 Octapole moment (field-independent basis, Debye-Ang**2):
  XXX=            -35.9533  YYY=              5.8398  ZZZ=              2.1404  XYY=             -5.0324
  XXY=             -9.9309  XXZ=            -37.4895  XZZ=             14.1005  YZZ=            -10.1761
  YYZ=             -8.0738  XYZ=              1.9451
 Hexadecapole moment (field-independent basis, Debye-Ang**3):
 XXXX=          -5041.8205 YYYY=          -1264.3002 ZZZZ=           -542.2123 XXXY=            176.9760
 XXXZ=           -141.6464 YYYX=            -72.6214 YYYZ=            -15.4914 ZZZX=             -5.3450
 ZZZY=             -3.3682 XXYY=          -1140.9436 XXZZ=           -946.2707 YYZZ=           -297.6885
 XXYZ=            -51.2503 YYXZ=            -25.9330 ZZXY=              6.9679
 N-N= 2.812408313355D+02 E-N=-3.291523156882D+03  KE= 1.132855747608D+03
                          Isotropic Fermi Contact Couplings
        Atom                 a.u.       MegaHertz       Gauss      10(-4) cm-1
     1  Na(23)             0.10112     119.63120      42.68739      39.90467
     2  Na(23)             0.07948      94.02534      33.55058      31.36348
     3  Na(23)             0.10001     118.31148      42.21648      39.46446
     4  Na(23)             0.00393       4.64548       1.65762       1.54957
     5  Na(23)             0.26886     318.07378     113.49664     106.09799
     6  Na(23)            -0.11491    -135.94167     -48.50737     -45.34526
     7  Na(23)             0.27915     330.23819     117.83720     110.15560
 --------------------------------------------------------
       Center         ----  Spin Dipole Couplings  ----
                      3XX-RR        3YY-RR        3ZZ-RR
 --------------------------------------------------------
     1   Atom        0.011513     -0.007784     -0.003729
     2   Atom       -0.002690      0.005668     -0.002978
     3   Atom        0.002045      0.000157     -0.002202
     4   Atom       -0.004435      0.007324     -0.002889
     5   Atom       -0.010482      0.014699     -0.004217
     6   Atom        0.029136     -0.017818     -0.011318
     7   Atom       -0.001713      0.002689     -0.000976
 --------------------------------------------------------
                        XY            XZ            YZ
 --------------------------------------------------------
     1   Atom       -0.000836      0.007533     -0.000000
     2   Atom       -0.007141      0.001273     -0.003071
     3   Atom        0.004427      0.010906      0.008064
     4   Atom        0.007432      0.003330      0.001777
     5   Atom       -0.014405     -0.002893     -0.002471
     6   Atom       -0.006682     -0.016948      0.001518
     7   Atom       -0.000621      0.003828      0.000165
 --------------------------------------------------------


 ---------------------------------------------------------------------------------
              Anisotropic Spin Dipole Couplings in Principal Axis System
 ---------------------------------------------------------------------------------

       Atom             a.u.   MegaHertz   Gauss  10(-4) cm-1        Axes

              Baa    -0.0079    -1.116    -0.398    -0.372  0.1375  0.9590 -0.2480
     1 Na(23) Bbb    -0.0067    -0.950    -0.339    -0.317 -0.3552  0.2815  0.8914
              Bcc     0.0146     2.067     0.737     0.689  0.9246 -0.0345  0.3793
 
              Baa    -0.0068    -0.966    -0.345    -0.322  0.8469  0.5155  0.1307
     2 Na(23) Bbb    -0.0037    -0.526    -0.188    -0.175 -0.2326  0.1379  0.9628
              Bcc     0.0106     1.492     0.532     0.498 -0.4783  0.8457 -0.2367
 
              Baa    -0.0124    -1.753    -0.626    -0.585 -0.4993 -0.3363  0.7985
     3 Na(23) Bbb    -0.0034    -0.481    -0.172    -0.160 -0.5920  0.8053 -0.0309
              Bcc     0.0158     2.234     0.797     0.745  0.6327  0.4882  0.6012
 
              Baa    -0.0089    -1.260    -0.450    -0.420  0.8593 -0.3526 -0.3705
     4 Na(23) Bbb    -0.0027    -0.375    -0.134    -0.125  0.2482 -0.3460  0.9048
              Bcc     0.0116     1.635     0.583     0.545  0.4473  0.8695  0.2098
 
              Baa    -0.0180    -2.541    -0.907    -0.848  0.8771  0.4059  0.2570
     5 Na(23) Bbb    -0.0033    -0.464    -0.166    -0.155 -0.2512 -0.0685  0.9655
              Bcc     0.0213     3.006     1.073     1.003 -0.4095  0.9114 -0.0419
 
              Baa    -0.0191    -2.699    -0.963    -0.900  0.2609  0.8805  0.3957
     6 Na(23) Bbb    -0.0170    -2.406    -0.859    -0.803  0.2474 -0.4572  0.8542
              Bcc     0.0362     5.105     1.822     1.703  0.9331 -0.1250 -0.3371
 
              Baa    -0.0052    -0.739    -0.264    -0.246  0.7401  0.0720 -0.6686
     7 Na(23) Bbb     0.0023     0.325     0.116     0.108  0.5231  0.5633  0.6396
              Bcc     0.0029     0.414     0.148     0.138 -0.4227  0.8231 -0.3792
 

 ---------------------------------------------------------------------------------

 No NMR shielding tensors so no spin-rotation constants.
 Leave Link  601 at Tue Nov 28 23:03:52 2023, MaxMem=  1879048192 cpu:               2.2 elap:               0.2
 (Enter /home/sekinelabo/g16/l701.exe)
 ... and contract with generalized density number  0.
 Compute integral first derivatives.
 Leave Link  701 at Tue Nov 28 23:03:52 2023, MaxMem=  1879048192 cpu:               1.5 elap:               0.1
 (Enter /home/sekinelabo/g16/l702.exe)
 L702 exits ... SP integral derivatives will be done elsewhere.
 Leave Link  702 at Tue Nov 28 23:03:53 2023, MaxMem=  1879048192 cpu:               0.5 elap:               0.0
 (Enter /home/sekinelabo/g16/l703.exe)
 Integral derivatives from FoFJK, PRISM(SPDF).
 Compute integral first derivatives, UseDBF=F ICtDFT=           0.
 Calling FoFJK, ICntrl=      2127 FMM=F ISym2X=0 I1Cent= 0 IOpClX= 1 NMat=1 NMatS=1 NMatT=0.
 FoFJK:  IHMeth= 1 ICntrl=    2127 DoSepK=F KAlg= 0 I1Cent=           0 FoldK=F
 IRaf=         0 NMat=       1 IRICut=       1 DoRegI=T DoRafI=F ISym2E= 0 IDoP0=0 IntGTp=1.
 FoFCou: FMM=F IPFlag=           0 FMFlag=      100000 FMFlg1=         800
         NFxFlg=           0 DoJE=F BraDBF=F KetDBF=F FulRan=T
         wScrn=  0.000000 ICntrl=      2127 IOpCl=  1 I1Cent=           0 NGrid=           0
         NMat0=    1 NMatS0=      1 NMatT0=    0 NMatD0=    1 NMtDS0=    0 NMtDT0=    0
 Symmetry not used in FoFCou.
 Leave Link  703 at Tue Nov 28 23:03:54 2023, MaxMem=  1879048192 cpu:              29.2 elap:               2.0
 (Enter /home/sekinelabo/g16/l716.exe)
 Dipole        =-1.51848374D-01-2.65117807D-01-2.65717879D-01
 ***** Axes restored to original set *****
 -------------------------------------------------------------------
 Center     Atomic                   Forces (Hartrees/Bohr)
 Number     Number              X              Y              Z
 -------------------------------------------------------------------
      1       11           0.001574297   -0.002642078    0.000244128
      2       11          -0.001492610    0.001219567    0.002210644
      3       11          -0.000379234   -0.000281725   -0.003084968
      4       11           0.000262107   -0.000062100    0.002617865
      5       11          -0.001045476    0.001142880   -0.004017421
      6       11           0.002300152    0.003737882    0.003431515
      7       11          -0.001219235   -0.003114425   -0.001401764
 -------------------------------------------------------------------
 Cartesian Forces:  Max     0.004017421 RMS     0.002154889
 Z-matrix is all fixed cartesians, so copy forces.
 Force constants in Cartesian coordinates: 
                1             2             3             4             5 
      1  0.229416D-01
      2 -0.158305D-01  0.211721D-01
      3 -0.100311D-02  0.445814D-03  0.235866D-01
      4 -0.927321D-02  0.841677D-02  0.649465D-02  0.133001D-01
      5  0.871554D-02 -0.849696D-02 -0.595288D-02 -0.101516D-01  0.163112D-01
      6 -0.126644D-02  0.157566D-02 -0.137956D-01 -0.369203D-02  0.395370D-02
      7 -0.202763D-02  0.312261D-02 -0.251132D-02 -0.667839D-02  0.430978D-02
      8  0.310589D-02 -0.214279D-02  0.229029D-02  0.285306D-02 -0.147767D-01
      9 -0.225546D-02  0.205876D-02  0.353211D-02 -0.382297D-02  0.816283D-02
     10  0.235260D-03 -0.115959D-04 -0.700423D-04  0.564578D-05 -0.332660D-03
     11  0.182051D-02  0.824640D-03 -0.273549D-03  0.143104D-02  0.422497D-02
     12 -0.510058D-02 -0.334802D-03  0.133611D-02 -0.143609D-02 -0.393440D-02
     13 -0.134568D-01  0.488200D-02 -0.229945D-02  0.249640D-02 -0.267030D-02
     14  0.221577D-02 -0.175877D-01  0.168811D-02 -0.256886D-02  0.266997D-02
     15  0.993530D-02 -0.320935D-02 -0.145918D-01  0.246424D-02 -0.219064D-02
     16  0.172767D-02 -0.548168D-03 -0.643036D-03  0.149413D-03  0.129183D-03
     17 -0.614992D-04  0.622345D-02  0.180975D-02  0.195280D-04  0.675699D-04
     18 -0.335183D-03 -0.541474D-03 -0.618322D-04 -0.779411D-05 -0.386081D-04
     19 -0.146934D-03 -0.311085D-04  0.323011D-04  0.000000D+00  0.000000D+00
     20  0.343012D-04  0.726216D-05 -0.754057D-05  0.000000D+00  0.000000D+00
     21  0.254709D-04  0.539263D-05 -0.559937D-05  0.000000D+00  0.000000D+00
                6             7             8             9            10 
      6  0.325991D-01
      7  0.273693D-02  0.391166D-01
      8 -0.432955D-02 -0.701109D-02  0.520876D-01
      9 -0.144725D-01  0.663274D-02  0.828891D-02  0.511006D-01
     10 -0.103998D-03 -0.198689D-01 -0.137966D-02  0.317283D-02  0.593669D-01
     11  0.890081D-03 -0.177762D-01 -0.240577D-01 -0.968186D-02  0.137735D-01
     12 -0.798491D-03 -0.108600D-01 -0.684373D-02 -0.192777D-01  0.355763D-02
     13  0.233017D-02 -0.163170D-01  0.263256D-02 -0.576271D-02 -0.292052D-01
     14 -0.210476D-02  0.159439D-01 -0.131918D-01 -0.297950D-02 -0.605054D-02
     15 -0.352324D-02  0.231115D-02  0.441190D-03 -0.189561D-01 -0.231708D-02
     16 -0.462012D-05  0.571937D-02 -0.226535D-03  0.203090D-02 -0.121383D-01
     17  0.148752D-04  0.143386D-02  0.206935D-02 -0.583654D-02 -0.619052D-02
     18 -0.931789D-05  0.168127D-02  0.192402D-03 -0.194809D-02 -0.286346D-02
     19  0.000000D+00  0.559586D-04  0.257735D-04  0.465937D-05  0.160451D-02
     20  0.000000D+00 -0.228370D-04  0.120530D-04 -0.126109D-04  0.191522D-03
     21  0.000000D+00  0.925227D-05 -0.395078D-04  0.215375D-04 -0.137588D-02
               11            12            13            14            15 
     11  0.307616D-01
     12  0.124873D-01  0.421202D-01
     13  0.267333D-02 -0.346728D-03  0.775924D-01
     14 -0.643554D-02 -0.327936D-03 -0.120297D-01  0.604663D-01
     15  0.589205D-05 -0.162999D-01  0.309450D-02  0.472774D-02  0.814884D-01
     16 -0.519045D-02  0.131412D-01 -0.214310D-01  0.290267D-02 -0.154677D-01
     17 -0.568213D-02 -0.117469D-02  0.400068D-02 -0.288701D-01  0.634225D-03
     18 -0.675666D-03 -0.617778D-02  0.417709D-02  0.445600D-02 -0.289234D-01
     19  0.326833D-02  0.104456D-02  0.321160D-03 -0.413189D-03 -0.203560D-04
     20  0.364150D-03  0.128213D-03  0.511464D-03  0.294888D-02 -0.409056D-03
     21 -0.275224D-02 -0.902561D-03 -0.119287D-02 -0.545966D-02  0.805966D-03
               16            17            18            19            20 
     16  0.328443D-01
     17  0.833449D-02  0.448479D-01
     18 -0.188152D-02  0.674953D-03  0.478400D-01
     19 -0.687158D-02 -0.753654D-02 -0.770401D-03  0.503689D-02
     20 -0.540118D-02 -0.186560D-01 -0.406760D-02  0.468673D-02  0.153237D-01
     21  0.282479D-02  0.387742D-02 -0.107196D-01 -0.290768D-03  0.436860D-02
               21 
     21  0.108002D-01
 Leave Link  716 at Tue Nov 28 23:03:55 2023, MaxMem=  1879048192 cpu:               0.4 elap:               0.0
 (Enter /home/sekinelabo/g16/l103.exe)

 GradGradGradGradGradGradGradGradGradGradGradGradGradGradGradGradGradGrad
 Berny optimization.
 Search for a local minimum.
 Step number   1 out of a maximum of    2
 All quantities printed in internal units (Hartrees-Bohrs-Radians)
 Second derivative matrix not updated -- first step.
 ITU=  0
     Eigenvalues ---    0.00339   0.00468   0.01180   0.01978   0.02308
     Eigenvalues ---    0.02594   0.04283   0.04529   0.05304   0.05960
     Eigenvalues ---    0.07619   0.08968   0.09825   0.11066   0.11494
 Angle between quadratic step and forces=  38.52 degrees.
 Linear search not attempted -- first point.
 B after Tr=    -0.000000    0.000000   -0.000000
         Rot=    1.000000   -0.000000    0.000000    0.000000 Ang=   0.00 deg.
 Variable       Old X    -DE/DX   Delta X   Delta X   Delta X     New X
                                 (Linear)    (Quad)   (Total)
    X1       24.98067   0.00157   0.00000   0.00875   0.00875  24.98942
    Y1       30.52645  -0.00264   0.00000  -0.08067  -0.08067  30.44578
    Z1       23.06222   0.00024   0.00000   0.03972   0.03972  23.10194
    X2       29.10027  -0.00149   0.00000  -0.00107  -0.00107  29.09920
    Y2       26.64193   0.00122   0.00000   0.07657   0.07657  26.71849
    Z2       19.80509   0.00221   0.00000   0.06277   0.06277  19.86786
    X3       30.91535  -0.00038   0.00000  -0.01769  -0.01769  30.89766
    Y3       24.69589  -0.00028   0.00000   0.01152   0.01152  24.70741
    Z3       26.12811  -0.00308   0.00000  -0.04618  -0.04618  26.08193
    X4       33.28715   0.00026   0.00000   0.01922   0.01922  33.30637
    Y4       28.46173  -0.00006   0.00000  -0.04180  -0.04180  28.41993
    Z4       30.02170   0.00262   0.00000   0.04608   0.04608  30.06778
    X5       26.85055  -0.00105   0.00000  -0.00147  -0.00147  26.84908
    Y5       28.60856   0.00114   0.00000   0.02828   0.02828  28.63684
    Z5       29.72105  -0.00402   0.00000  -0.03303  -0.03303  29.68802
    X6       28.03031   0.00230   0.00000   0.01050   0.01050  28.04081
    Y6       29.23161   0.00374   0.00000   0.07791   0.07791  29.30951
    Z6       35.68767   0.00343   0.00000   0.02527   0.02527  35.71294
    X7       29.84048  -0.00122   0.00000  -0.01825  -0.01825  29.82223
    Y7       34.83861  -0.00311   0.00000  -0.07180  -0.07180  34.76681
    Z7       38.57914  -0.00140   0.00000  -0.09464  -0.09464  38.48449
         Item               Value     Threshold  Converged?
 Maximum Force            0.004017     0.000450     NO 
 RMS     Force            0.002155     0.000300     NO 
 Maximum Displacement     0.094643     0.001800     NO 
 RMS     Displacement     0.047780     0.001200     NO 
 Predicted change in Energy=-8.458398D-04
 GradGradGradGradGradGradGradGradGradGradGradGradGradGradGradGradGradGrad

 Leave Link  103 at Tue Nov 28 23:03:55 2023, MaxMem=  1879048192 cpu:               0.2 elap:               0.0
 (Enter /home/sekinelabo/g16/l9999.exe)
 1\1\GINC-SEKINELABO-XA7R-R37\Force\UB3LYP\6-311+G(d)\Na7(2)\SEKINELABO
 \28-Nov-2023\0\\#P B3LYP/6-311+g(d) force\\DPGEN\\0,2\Na,13.2192,16.15
 39,12.204\Na,15.3992,14.0983,10.4804\Na,16.3597,13.0685,13.8264\Na,17.
 6148,15.0613,15.8868\Na,14.2087,15.139,15.7277\Na,14.833,15.4687,18.88
 51\Na,15.7909,18.4358,20.4152\\Version=ES64L-G16RevB.01\State=2-A\HF=-
 1136.1121774\S2=0.804288\S2-1=0.\S2A=0.751353\RMSD=9.480e-09\RMSF=2.15
 5e-03\Dipole=0.3601968,-0.0050874,-0.1848884\Quadrupole=-1.11172,2.360
 3064,-1.2485864,2.3832338,0.7186163,1.118624\PG=C01 [X(Na7)]\\@


 NATURE WILL TELL YOU A DIRECT LIE IF SHE CAN.

                                -- CHARLES DARWIN
 Job cpu time:       0 days  0 hours  3 minutes 42.3 seconds.
 Elapsed time:       0 days  0 hours  0 minutes 19.4 seconds.
 File lengths (MBytes):  RWF=     32 Int=      0 D2E=      0 Chk=      4 Scr=      1
 Normal termination of Gaussian 16 at Tue Nov 28 23:03:55 2023.
