 Set GAUSS_MDEF to "14GB".
 Entering Gaussian System, Link 0=g16
 Initial command:
 /home/sekinelabo/g16/l1.exe "/home/sekinelabo/g16temp/Gau-1608993.inp" -scrdir="/home/sekinelabo/g16temp/"
 Entering Link 1 = /home/sekinelabo/g16/l1.exe PID=   1608995.
  
 Copyright (c) 1988-2017, Gaussian, Inc.  All Rights Reserved.
  
 This is part of the Gaussian(R) 16 program.  It is based on
 the Gaussian(R) 09 system (copyright 2009, Gaussian, Inc.),
 the Gaussian(R) 03 system (copyright 2003, Gaussian, Inc.),
 the Gaussian(R) 98 system (copyright 1998, Gaussian, Inc.),
 the Gaussian(R) 94 system (copyright 1995, Gaussian, Inc.),
 the Gaussian 92(TM) system (copyright 1992, Gaussian, Inc.),
 the Gaussian 90(TM) system (copyright 1990, Gaussian, Inc.),
 the Gaussian 88(TM) system (copyright 1988, Gaussian, Inc.),
 the Gaussian 86(TM) system (copyright 1986, Carnegie Mellon
 University), and the Gaussian 82(TM) system (copyright 1983,
 Carnegie Mellon University). Gaussian is a federally registered
 trademark of Gaussian, Inc.
  
 This software contains proprietary and confidential information,
 including trade secrets, belonging to Gaussian, Inc.
  
 This software is provided under written license and may be
 used, copied, transmitted, or stored only in accord with that
 written license.
  
 The following legend is applicable only to US Government
 contracts under FAR:
  
                    RESTRICTED RIGHTS LEGEND
  
 Use, reproduction and disclosure by the US Government is
 subject to restrictions as set forth in subparagraphs (a)
 and (c) of the Commercial Computer Software - Restricted
 Rights clause in FAR 52.227-19.
  
 Gaussian, Inc.
 340 Quinnipiac St., Bldg. 40, Wallingford CT 06492
  
  
 ---------------------------------------------------------------
 Warning -- This program may not be used in any manner that
 competes with the business of Gaussian, Inc. or will provide
 assistance to any competitor of Gaussian, Inc.  The licensee
 of this program is prohibited from giving any competitor of
 Gaussian, Inc. access to this program.  By using this program,
 the user acknowledges that Gaussian, Inc. is engaged in the
 business of creating and licensing software in the field of
 computational chemistry and represents and warrants to the
 licensee that it is not a competitor of Gaussian, Inc. and that
 it will not use this program in any manner prohibited above.
 ---------------------------------------------------------------
  

 Cite this work as:
 Gaussian 16, Revision B.01,
 M. J. Frisch, G. W. Trucks, H. B. Schlegel, G. E. Scuseria, 
 M. A. Robb, J. R. Cheeseman, G. Scalmani, V. Barone, 
 G. A. Petersson, H. Nakatsuji, X. Li, M. Caricato, A. V. Marenich, 
 J. Bloino, B. G. Janesko, R. Gomperts, B. Mennucci, H. P. Hratchian, 
 J. V. Ortiz, A. F. Izmaylov, J. L. Sonnenberg, D. Williams-Young, 
 F. Ding, F. Lipparini, F. Egidi, J. Goings, B. Peng, A. Petrone, 
 T. Henderson, D. Ranasinghe, V. G. Zakrzewski, J. Gao, N. Rega, 
 G. Zheng, W. Liang, M. Hada, M. Ehara, K. Toyota, R. Fukuda, 
 J. Hasegawa, M. Ishida, T. Nakajima, Y. Honda, O. Kitao, H. Nakai, 
 T. Vreven, K. Throssell, J. A. Montgomery, Jr., J. E. Peralta, 
 F. Ogliaro, M. J. Bearpark, J. J. Heyd, E. N. Brothers, K. N. Kudin, 
 V. N. Staroverov, T. A. Keith, R. Kobayashi, J. Normand, 
 K. Raghavachari, A. P. Rendell, J. C. Burant, S. S. Iyengar, 
 J. Tomasi, M. Cossi, J. M. Millam, M. Klene, C. Adamo, R. Cammi, 
 J. W. Ochterski, R. L. Martin, K. Morokuma, O. Farkas, 
 J. B. Foresman, and D. J. Fox, Gaussian, Inc., Wallingford CT, 2016.
 
 ******************************************
 Gaussian 16:  ES64L-G16RevB.01 20-Dec-2017
                 7-Dec-2023 
 ******************************************
 %nproc=15
 Will use up to   15 processors via shared memory.
 -------------------------
 #P B3LYP/6-311+g(d) force
 -------------------------
 1/10=7,30=1,38=1/1,3;
 2/12=2,17=6,18=5,40=1/2;
 3/5=4,6=6,7=11,11=2,25=1,30=1,71=1,74=-5/1,2,3;
 4//1;
 5/5=2,38=5/2;
 6/7=2,8=2,9=2,10=2,28=1/1;
 7/29=1/1,2,3,16;
 1/10=7,30=1/3;
 99//99;
 Leave Link    1 at Thu Dec  7 17:49:26 2023, MaxMem=           0 cpu:               0.3 elap:               0.0
 (Enter /home/sekinelabo/g16/l101.exe)
 -----
 DPGEN
 -----
 Symbolic Z-matrix:
 Charge =  0 Multiplicity = 2
 Na                    13.5299   15.1742   14.8299 
 Na                    12.7865   11.2361   14.3683 
 Na                    12.7891   13.8037   11.4421 
 Na                    10.0581   13.9171   13.6606 
 Na                    15.8099   13.2284   12.9678 
 Na                    10.6119   11.589    11.4813 
 Na                    13.9615   10.5985   10.797 
 
 ITRead=  0  0  0  0  0  0  0
 MicOpt= -1 -1 -1 -1 -1 -1 -1
 NAtoms=      7 NQM=        7 NQMF=       0 NMMI=      0 NMMIF=      0
                NMic=       0 NMicF=      0.
                    Isotopes and Nuclear Properties:
 (Nuclear quadrupole moments (NQMom) in fm**2, nuclear magnetic moments (NMagM)
  in nuclear magnetons)

  Atom         1           2           3           4           5           6           7
 IAtWgt=          23          23          23          23          23          23          23
 AtmWgt=  22.9897697  22.9897697  22.9897697  22.9897697  22.9897697  22.9897697  22.9897697
 NucSpn=           3           3           3           3           3           3           3
 AtZEff=  -0.0000000  -0.0000000  -0.0000000  -0.0000000  -0.0000000  -0.0000000  -0.0000000
 NQMom=   10.4000000  10.4000000  10.4000000  10.4000000  10.4000000  10.4000000  10.4000000
 NMagM=    2.2175200   2.2175200   2.2175200   2.2175200   2.2175200   2.2175200   2.2175200
 AtZNuc=  11.0000000  11.0000000  11.0000000  11.0000000  11.0000000  11.0000000  11.0000000
 Leave Link  101 at Thu Dec  7 17:49:27 2023, MaxMem=  1879048192 cpu:               2.5 elap:               0.2
 (Enter /home/sekinelabo/g16/l103.exe)

 GradGradGradGradGradGradGradGradGradGradGradGradGradGradGradGradGradGrad
 Berny optimization.
 Initialization pass.
 Trust Radius=3.00D-01 FncErr=1.00D-07 GrdErr=1.00D-07 EigMax=2.50D+02 EigMin=1.00D-04
 Number of steps in this run=      2 maximum allowed number of steps=      2.
 GradGradGradGradGradGradGradGradGradGradGradGradGradGradGradGradGradGrad

 Leave Link  103 at Thu Dec  7 17:49:27 2023, MaxMem=  1879048192 cpu:               0.2 elap:               0.0
 (Enter /home/sekinelabo/g16/l202.exe)
                          Input orientation:                          
 ---------------------------------------------------------------------
 Center     Atomic      Atomic             Coordinates (Angstroms)
 Number     Number       Type             X           Y           Z
 ---------------------------------------------------------------------
      1         11           0       13.529900   15.174200   14.829900
      2         11           0       12.786500   11.236100   14.368300
      3         11           0       12.789100   13.803700   11.442100
      4         11           0       10.058100   13.917100   13.660600
      5         11           0       15.809900   13.228400   12.967800
      6         11           0       10.611900   11.589000   11.481300
      7         11           0       13.961500   10.598500   10.797000
 ---------------------------------------------------------------------
                    Distance matrix (angstroms):
                    1          2          3          4          5
     1  Na   0.000000
     2  Na   4.034148   0.000000
     3  Na   3.728839   3.892971   0.000000
     4  Na   3.873107   3.890086   3.520364   0.000000
     5  Na   3.528733   3.882217   3.432778   5.834165   0.000000
     6  Na   5.708021   3.631555   3.105903   3.236679   5.649471
     7  Na   6.114539   3.813311   3.473324   5.869399   3.878831
                    6          7
     6  Na   0.000000
     7  Na   3.559379   0.000000
 Stoichiometry    Na7(2)
 Framework group  C1[X(Na7)]
 Deg. of freedom    15
 Full point group                 C1      NOp   1
 Largest Abelian subgroup         C1      NOp   1
 Largest concise Abelian subgroup C1      NOp   1
                         Standard orientation:                         
 ---------------------------------------------------------------------
 Center     Atomic      Atomic             Coordinates (Angstroms)
 Number     Number       Type             X           Y           Z
 ---------------------------------------------------------------------
      1         11           0        3.218594   -0.067041   -0.064561
      2         11           0       -0.111755   -0.031368    2.211807
      3         11           0       -0.141277   -0.016435   -1.681023
      4         11           0        0.815543    2.970391   -0.082170
      5         11           0        1.061970   -2.857800   -0.176761
      6         11           0       -2.186759    1.764124   -0.167008
      7         11           0       -2.656315   -1.761870   -0.040285
 ---------------------------------------------------------------------
 Rotational constants (GHZ):           0.7090779           0.6910168           0.4653925
 Leave Link  202 at Thu Dec  7 17:49:27 2023, MaxMem=  1879048192 cpu:               0.0 elap:               0.0
 (Enter /home/sekinelabo/g16/l301.exe)
 Standard basis: 6-311+G(d) (5D, 7F)
 Ernie: Thresh=  0.10000D-02 Tol=  0.10000D-05 Strict=F.
 There are   217 symmetry adapted cartesian basis functions of A   symmetry.
 There are   210 symmetry adapted basis functions of A   symmetry.
   210 basis functions,   350 primitive gaussians,   217 cartesian basis functions
    39 alpha electrons       38 beta electrons
       nuclear repulsion energy       336.6243230611 Hartrees.
 IExCor=  402 DFT=T Ex+Corr=B3LYP ExCW=0 ScaHFX=  0.200000
 ScaDFX=  0.800000  0.720000  1.000000  0.810000 ScalE2=  1.000000  1.000000
 IRadAn=      5 IRanWt=     -1 IRanGd=            0 ICorTp=0 IEmpDi=  4
 NAtoms=    7 NActive=    7 NUniq=    7 SFac= 1.00D+00 NAtFMM=   60 NAOKFM=F Big=F
 Integral buffers will be    131072 words long.
 Raffenetti 2 integral format.
 Two-electron integral symmetry is turned on.
 Leave Link  301 at Thu Dec  7 17:49:27 2023, MaxMem=  1879048192 cpu:               0.5 elap:               0.0
 (Enter /home/sekinelabo/g16/l302.exe)
 NPDir=0 NMtPBC=     1 NCelOv=     1 NCel=       1 NClECP=     1 NCelD=      1
         NCelK=      1 NCelE2=     1 NClLst=     1 CellRange=     0.0.
 One-electron integrals computed using PRISM.
 One-electron integral symmetry used in STVInt
 NBasis=   210 RedAO= T EigKep=  4.37D-06  NBF=   210
 NBsUse=   210 1.00D-06 EigRej= -1.00D+00 NBFU=   210
 Precomputing XC quadrature grid using
 IXCGrd= 4 IRadAn=           5 IRanWt=          -1 IRanGd=           0 AccXCQ= 0.00D+00.
 Generated NRdTot=       0 NPtTot=           0 NUsed=           0 NTot=          32
 NSgBfM=   211   211   211   211   211 MxSgAt=     7 MxSgA2=     7.
 Leave Link  302 at Thu Dec  7 17:49:27 2023, MaxMem=  1879048192 cpu:               2.3 elap:               0.2
 (Enter /home/sekinelabo/g16/l303.exe)
 DipDrv:  MaxL=1.
 Leave Link  303 at Thu Dec  7 17:49:27 2023, MaxMem=  1879048192 cpu:               0.5 elap:               0.0
 (Enter /home/sekinelabo/g16/l401.exe)
 ExpMin= 7.60D-03 ExpMax= 3.62D+04 ExpMxC= 1.21D+03 IAcc=3 IRadAn=         5 AccDes= 0.00D+00
 Harris functional with IExCor=  402 and IRadAn=       5 diagonalized for initial guess.
 HarFok:  IExCor=  402 AccDes= 0.00D+00 IRadAn=         5 IDoV= 1 UseB2=F ITyADJ=14
 ICtDFT=  3500011 ScaDFX=  1.000000  1.000000  1.000000  1.000000
 FoFCou: FMM=F IPFlag=           0 FMFlag=      100000 FMFlg1=           0
         NFxFlg=           0 DoJE=T BraDBF=F KetDBF=T FulRan=T
         wScrn=  0.000000 ICntrl=       500 IOpCl=  0 I1Cent=   200000004 NGrid=           0
         NMat0=    1 NMatS0=      1 NMatT0=    0 NMatD0=    1 NMtDS0=    0 NMtDT0=    0
 Petite list used in FoFCou.
 Harris En= -1135.90715924796    
 JPrj=0 DoOrth=F DoCkMO=F.
 Initial guess <Sx>= 0.0000 <Sy>= 0.0000 <Sz>= 0.5000 <S**2>= 0.7500 S= 0.5000
 Leave Link  401 at Thu Dec  7 17:49:27 2023, MaxMem=  1879048192 cpu:               4.4 elap:               0.3
 (Enter /home/sekinelabo/g16/l502.exe)
 Keep R1 and R2 ints in memory in canonical form, NReq=506573321.
 FoFCou: FMM=F IPFlag=           0 FMFlag=           0 FMFlg1=           0
         NFxFlg=           0 DoJE=F BraDBF=F KetDBF=F FulRan=T
         wScrn=  0.000000 ICntrl=       600 IOpCl=  0 I1Cent=           0 NGrid=           0
         NMat0=    1 NMatS0=  22155 NMatT0=    0 NMatD0=    1 NMtDS0=    0 NMtDT0=    0
 Symmetry not used in FoFCou.
 Two-electron integral symmetry not used.
 UHF open shell SCF:
 Using DIIS extrapolation, IDIIS=  1040.
 NGot=  1879048192 LenX=  1388082579 LenY=  1388035049
 Requested convergence on RMS density matrix=1.00D-08 within 128 cycles.
 Requested convergence on MAX density matrix=1.00D-06.
 Requested convergence on             energy=1.00D-06.
 No special actions if energy rises.

 Cycle   1  Pass 1  IDiag  1:
 E= -1136.10079071186    
 DIIS: error= 1.58D-02 at cycle   1 NSaved=   1.
 NSaved= 1 IEnMin= 1 EnMin= -1136.10079071186     IErMin= 1 ErrMin= 1.58D-02
 ErrMax= 1.58D-02  0.00D+00 EMaxC= 1.00D-01 BMatC= 1.94D-01 BMatP= 1.94D-01
 IDIUse=3 WtCom= 8.42D-01 WtEn= 1.58D-01
 Coeff-Com:  0.100D+01
 Coeff-En:   0.100D+01
 Coeff:      0.100D+01
 Gap=     0.040 Goal=   None    Shift=    0.000
 Gap=     0.055 Goal=   None    Shift=    0.000
 GapD=    0.040 DampG=0.250 DampE=0.500 DampFc=0.2500 IDamp=-1.
 Damping current iteration by 2.50D-01
 RMSDP=2.87D-02 MaxDP=2.80D+00              OVMax= 2.38D-01

 Cycle   2  Pass 1  IDiag  1:
 E= -1136.11374773197     Delta-E=       -0.012957020107 Rises=F Damp=T
 DIIS: error= 1.10D-02 at cycle   2 NSaved=   2.
 NSaved= 2 IEnMin= 2 EnMin= -1136.11374773197     IErMin= 2 ErrMin= 1.10D-02
 ErrMax= 1.10D-02  0.00D+00 EMaxC= 1.00D-01 BMatC= 7.35D-02 BMatP= 1.94D-01
 IDIUse=3 WtCom= 8.90D-01 WtEn= 1.10D-01
 Coeff-Com: -0.127D+01 0.227D+01
 Coeff-En:   0.000D+00 0.100D+01
 Coeff:     -0.113D+01 0.213D+01
 Gap=     0.056 Goal=   None    Shift=    0.000
 Gap=     0.054 Goal=   None    Shift=    0.000
 RMSDP=1.66D-02 MaxDP=1.72D+00 DE=-1.30D-02 OVMax= 1.48D-01

 Cycle   3  Pass 1  IDiag  1:
 E= -1136.13547522388     Delta-E=       -0.021727491915 Rises=F Damp=F
 DIIS: error= 2.34D-03 at cycle   3 NSaved=   3.
 NSaved= 3 IEnMin= 3 EnMin= -1136.13547522388     IErMin= 3 ErrMin= 2.34D-03
 ErrMax= 2.34D-03  0.00D+00 EMaxC= 1.00D-01 BMatC= 2.76D-03 BMatP= 7.35D-02
 IDIUse=3 WtCom= 9.77D-01 WtEn= 2.34D-02
 Coeff-Com: -0.160D+00 0.309D+00 0.851D+00
 Coeff-En:   0.000D+00 0.000D+00 0.100D+01
 Coeff:     -0.157D+00 0.302D+00 0.855D+00
 Gap=     0.050 Goal=   None    Shift=    0.000
 Gap=     0.054 Goal=   None    Shift=    0.000
 RMSDP=5.79D-03 MaxDP=7.23D-01 DE=-2.17D-02 OVMax= 1.04D-01

 Cycle   4  Pass 1  IDiag  1:
 E= -1136.13258404953     Delta-E=        0.002891174350 Rises=F Damp=F
 DIIS: error= 4.07D-03 at cycle   4 NSaved=   4.
 NSaved= 4 IEnMin= 3 EnMin= -1136.13547522388     IErMin= 3 ErrMin= 2.34D-03
 ErrMax= 4.07D-03  0.00D+00 EMaxC= 1.00D-01 BMatC= 4.64D-03 BMatP= 2.76D-03
 IDIUse=3 WtCom= 1.35D-01 WtEn= 8.65D-01
 Coeff-Com:  0.311D-01-0.384D-01 0.571D+00 0.436D+00
 Coeff-En:   0.000D+00 0.000D+00 0.650D+00 0.350D+00
 Coeff:      0.422D-02-0.520D-02 0.639D+00 0.362D+00
 Gap=     0.053 Goal=   None    Shift=    0.000
 Gap=     0.054 Goal=   None    Shift=    0.000
 RMSDP=2.46D-03 MaxDP=3.85D-01 DE= 2.89D-03 OVMax= 6.01D-02

 Cycle   5  Pass 1  IDiag  1:
 E= -1136.13780348961     Delta-E=       -0.005219440073 Rises=F Damp=F
 DIIS: error= 7.47D-04 at cycle   5 NSaved=   5.
 NSaved= 5 IEnMin= 5 EnMin= -1136.13780348961     IErMin= 5 ErrMin= 7.47D-04
 ErrMax= 7.47D-04  0.00D+00 EMaxC= 1.00D-01 BMatC= 2.15D-04 BMatP= 2.76D-03
 IDIUse=3 WtCom= 9.93D-01 WtEn= 7.47D-03
 Coeff-Com:  0.717D-02-0.103D-01 0.332D+00 0.180D+00 0.491D+00
 Coeff-En:   0.000D+00 0.000D+00 0.000D+00 0.000D+00 0.100D+01
 Coeff:      0.712D-02-0.102D-01 0.329D+00 0.179D+00 0.495D+00
 Gap=     0.053 Goal=   None    Shift=    0.000
 Gap=     0.054 Goal=   None    Shift=    0.000
 RMSDP=8.27D-04 MaxDP=1.18D-01 DE=-5.22D-03 OVMax= 1.00D-02

 Cycle   6  Pass 1  IDiag  1:
 E= -1136.13793495631     Delta-E=       -0.000131466707 Rises=F Damp=F
 DIIS: error= 1.14D-04 at cycle   6 NSaved=   6.
 NSaved= 6 IEnMin= 6 EnMin= -1136.13793495631     IErMin= 6 ErrMin= 1.14D-04
 ErrMax= 1.14D-04  0.00D+00 EMaxC= 1.00D-01 BMatC= 3.82D-06 BMatP= 2.15D-04
 IDIUse=3 WtCom= 9.99D-01 WtEn= 1.14D-03
 Coeff-Com: -0.382D-02 0.473D-02 0.488D-01 0.148D-01 0.157D+00 0.778D+00
 Coeff-En:   0.000D+00 0.000D+00 0.000D+00 0.000D+00 0.000D+00 0.100D+01
 Coeff:     -0.381D-02 0.472D-02 0.487D-01 0.148D-01 0.157D+00 0.778D+00
 Gap=     0.054 Goal=   None    Shift=    0.000
 Gap=     0.054 Goal=   None    Shift=    0.000
 RMSDP=2.27D-04 MaxDP=3.01D-02 DE=-1.31D-04 OVMax= 3.78D-03

 Cycle   7  Pass 1  IDiag  1:
 E= -1136.13793780260     Delta-E=       -0.000002846290 Rises=F Damp=F
 DIIS: error= 9.14D-05 at cycle   7 NSaved=   7.
 NSaved= 7 IEnMin= 7 EnMin= -1136.13793780260     IErMin= 7 ErrMin= 9.14D-05
 ErrMax= 9.14D-05  0.00D+00 EMaxC= 1.00D-01 BMatC= 2.01D-06 BMatP= 3.82D-06
 IDIUse=1 WtCom= 1.00D+00 WtEn= 0.00D+00
 Coeff-Com: -0.380D-02 0.490D-02-0.273D-01-0.226D-01 0.164D-01 0.495D+00
 Coeff-Com:  0.537D+00
 Coeff:     -0.380D-02 0.490D-02-0.273D-01-0.226D-01 0.164D-01 0.495D+00
 Coeff:      0.537D+00
 Gap=     0.054 Goal=   None    Shift=    0.000
 Gap=     0.054 Goal=   None    Shift=    0.000
 RMSDP=1.73D-04 MaxDP=3.13D-02 DE=-2.85D-06 OVMax= 1.36D-03

 Cycle   8  Pass 1  IDiag  1:
 E= -1136.13794020103     Delta-E=       -0.000002398425 Rises=F Damp=F
 DIIS: error= 1.28D-05 at cycle   8 NSaved=   8.
 NSaved= 8 IEnMin= 8 EnMin= -1136.13794020103     IErMin= 8 ErrMin= 1.28D-05
 ErrMax= 1.28D-05  0.00D+00 EMaxC= 1.00D-01 BMatC= 4.62D-08 BMatP= 2.01D-06
 IDIUse=1 WtCom= 1.00D+00 WtEn= 0.00D+00
 Coeff-Com: -0.253D-03 0.313D-03-0.941D-02-0.537D-02-0.830D-02 0.279D-01
 Coeff-Com:  0.838D-01 0.911D+00
 Coeff:     -0.253D-03 0.313D-03-0.941D-02-0.537D-02-0.830D-02 0.279D-01
 Coeff:      0.838D-01 0.911D+00
 Gap=     0.054 Goal=   None    Shift=    0.000
 Gap=     0.054 Goal=   None    Shift=    0.000
 RMSDP=5.12D-05 MaxDP=6.46D-03 DE=-2.40D-06 OVMax= 6.07D-04

 Cycle   9  Pass 1  IDiag  1:
 E= -1136.13794022972     Delta-E=       -0.000000028695 Rises=F Damp=F
 DIIS: error= 1.82D-05 at cycle   9 NSaved=   9.
 NSaved= 9 IEnMin= 9 EnMin= -1136.13794022972     IErMin= 8 ErrMin= 1.28D-05
 ErrMax= 1.82D-05  0.00D+00 EMaxC= 1.00D-01 BMatC= 7.18D-08 BMatP= 4.62D-08
 IDIUse=1 WtCom= 1.00D+00 WtEn= 0.00D+00
 Coeff-Com:  0.635D-03-0.830D-03-0.168D-02 0.605D-03-0.103D-01-0.799D-01
 Coeff-Com: -0.496D-01 0.685D+00 0.456D+00
 Coeff:      0.635D-03-0.830D-03-0.168D-02 0.605D-03-0.103D-01-0.799D-01
 Coeff:     -0.496D-01 0.685D+00 0.456D+00
 Gap=     0.054 Goal=   None    Shift=    0.000
 Gap=     0.054 Goal=   None    Shift=    0.000
 RMSDP=1.52D-05 MaxDP=1.86D-03 DE=-2.87D-08 OVMax= 4.00D-04

 Cycle  10  Pass 1  IDiag  1:
 E= -1136.13794033687     Delta-E=       -0.000000107147 Rises=F Damp=F
 DIIS: error= 3.52D-06 at cycle  10 NSaved=  10.
 NSaved=10 IEnMin=10 EnMin= -1136.13794033687     IErMin=10 ErrMin= 3.52D-06
 ErrMax= 3.52D-06  0.00D+00 EMaxC= 1.00D-01 BMatC= 2.99D-09 BMatP= 4.62D-08
 IDIUse=1 WtCom= 1.00D+00 WtEn= 0.00D+00
 Coeff-Com:  0.219D-03-0.281D-03 0.990D-03 0.102D-02-0.201D-02-0.183D-01
 Coeff-Com: -0.216D-01-0.169D-01 0.105D+00 0.952D+00
 Coeff:      0.219D-03-0.281D-03 0.990D-03 0.102D-02-0.201D-02-0.183D-01
 Coeff:     -0.216D-01-0.169D-01 0.105D+00 0.952D+00
 Gap=     0.054 Goal=   None    Shift=    0.000
 Gap=     0.054 Goal=   None    Shift=    0.000
 RMSDP=8.27D-06 MaxDP=9.81D-04 DE=-1.07D-07 OVMax= 1.71D-04

 Cycle  11  Pass 1  IDiag  1:
 E= -1136.13794034961     Delta-E=       -0.000000012741 Rises=F Damp=F
 DIIS: error= 1.77D-06 at cycle  11 NSaved=  11.
 NSaved=11 IEnMin=11 EnMin= -1136.13794034961     IErMin=11 ErrMin= 1.77D-06
 ErrMax= 1.77D-06  0.00D+00 EMaxC= 1.00D-01 BMatC= 6.06D-10 BMatP= 2.99D-09
 IDIUse=1 WtCom= 1.00D+00 WtEn= 0.00D+00
 Coeff-Com: -0.908D-04 0.120D-03 0.673D-03 0.115D-03 0.190D-02 0.982D-02
 Coeff-Com:  0.690D-02-0.128D+00-0.874D-01-0.137D-01 0.121D+01
 Coeff:     -0.908D-04 0.120D-03 0.673D-03 0.115D-03 0.190D-02 0.982D-02
 Coeff:      0.690D-02-0.128D+00-0.874D-01-0.137D-01 0.121D+01
 Gap=     0.054 Goal=   None    Shift=    0.000
 Gap=     0.054 Goal=   None    Shift=    0.000
 RMSDP=5.14D-06 MaxDP=3.88D-04 DE=-1.27D-08 OVMax= 1.37D-04

 Cycle  12  Pass 1  IDiag  1:
 E= -1136.13794035434     Delta-E=       -0.000000004725 Rises=F Damp=F
 DIIS: error= 7.02D-07 at cycle  12 NSaved=  12.
 NSaved=12 IEnMin=12 EnMin= -1136.13794035434     IErMin=12 ErrMin= 7.02D-07
 ErrMax= 7.02D-07  0.00D+00 EMaxC= 1.00D-01 BMatC= 1.74D-10 BMatP= 6.06D-10
 IDIUse=1 WtCom= 1.00D+00 WtEn= 0.00D+00
 Coeff-Com: -0.971D-04 0.126D-03 0.612D-04-0.201D-03 0.137D-02 0.887D-02
 Coeff-Com:  0.702D-02-0.548D-01-0.550D-01-0.170D+00 0.393D+00 0.870D+00
 Coeff:     -0.971D-04 0.126D-03 0.612D-04-0.201D-03 0.137D-02 0.887D-02
 Coeff:      0.702D-02-0.548D-01-0.550D-01-0.170D+00 0.393D+00 0.870D+00
 Gap=     0.054 Goal=   None    Shift=    0.000
 Gap=     0.054 Goal=   None    Shift=    0.000
 RMSDP=2.39D-06 MaxDP=2.28D-04 DE=-4.73D-09 OVMax= 6.01D-05

 Cycle  13  Pass 1  IDiag  1:
 E= -1136.13794035522     Delta-E=       -0.000000000881 Rises=F Damp=F
 DIIS: error= 2.89D-07 at cycle  13 NSaved=  13.
 NSaved=13 IEnMin=13 EnMin= -1136.13794035522     IErMin=13 ErrMin= 2.89D-07
 ErrMax= 2.89D-07  0.00D+00 EMaxC= 1.00D-01 BMatC= 2.80D-11 BMatP= 1.74D-10
 IDIUse=1 WtCom= 1.00D+00 WtEn= 0.00D+00
 Coeff-Com:  0.693D-05-0.990D-05-0.149D-03-0.487D-04-0.217D-03-0.140D-02
 Coeff-Com: -0.770D-03 0.243D-01 0.140D-01-0.187D-01-0.242D+00 0.606D-01
 Coeff-Com:  0.116D+01
 Coeff:      0.693D-05-0.990D-05-0.149D-03-0.487D-04-0.217D-03-0.140D-02
 Coeff:     -0.770D-03 0.243D-01 0.140D-01-0.187D-01-0.242D+00 0.606D-01
 Coeff:      0.116D+01
 Gap=     0.054 Goal=   None    Shift=    0.000
 Gap=     0.054 Goal=   None    Shift=    0.000
 RMSDP=1.24D-06 MaxDP=8.04D-05 DE=-8.81D-10 OVMax= 3.32D-05

 Cycle  14  Pass 1  IDiag  1:
 E= -1136.13794035546     Delta-E=       -0.000000000243 Rises=F Damp=F
 DIIS: error= 1.04D-07 at cycle  14 NSaved=  14.
 NSaved=14 IEnMin=14 EnMin= -1136.13794035546     IErMin=14 ErrMin= 1.04D-07
 ErrMax= 1.04D-07  0.00D+00 EMaxC= 1.00D-01 BMatC= 3.53D-12 BMatP= 2.80D-11
 IDIUse=1 WtCom= 1.00D+00 WtEn= 0.00D+00
 Coeff-Com:  0.158D-04-0.206D-04-0.194D-04 0.266D-04-0.218D-03-0.122D-02
 Coeff-Com: -0.103D-02 0.774D-02 0.792D-02 0.254D-01-0.522D-01-0.123D+00
 Coeff-Com: -0.592D-01 0.120D+01
 Coeff:      0.158D-04-0.206D-04-0.194D-04 0.266D-04-0.218D-03-0.122D-02
 Coeff:     -0.103D-02 0.774D-02 0.792D-02 0.254D-01-0.522D-01-0.123D+00
 Coeff:     -0.592D-01 0.120D+01
 Gap=     0.054 Goal=   None    Shift=    0.000
 Gap=     0.054 Goal=   None    Shift=    0.000
 RMSDP=4.08D-07 MaxDP=3.60D-05 DE=-2.43D-10 OVMax= 1.08D-05

 Cycle  15  Pass 1  IDiag  1:
 E= -1136.13794035547     Delta-E=       -0.000000000007 Rises=F Damp=F
 DIIS: error= 4.91D-08 at cycle  15 NSaved=  15.
 NSaved=15 IEnMin=15 EnMin= -1136.13794035547     IErMin=15 ErrMin= 4.91D-08
 ErrMax= 4.91D-08  0.00D+00 EMaxC= 1.00D-01 BMatC= 5.33D-13 BMatP= 3.53D-12
 IDIUse=1 WtCom= 1.00D+00 WtEn= 0.00D+00
 Coeff-Com: -0.229D-05 0.318D-05 0.230D-04 0.362D-05 0.473D-04 0.262D-03
 Coeff-Com:  0.171D-03-0.368D-02-0.279D-02-0.367D-02 0.479D-01 0.344D-03
 Coeff-Com: -0.185D+00-0.576D-01 0.120D+01
 Coeff:     -0.229D-05 0.318D-05 0.230D-04 0.362D-05 0.473D-04 0.262D-03
 Coeff:      0.171D-03-0.368D-02-0.279D-02-0.367D-02 0.479D-01 0.344D-03
 Coeff:     -0.185D+00-0.576D-01 0.120D+01
 Gap=     0.054 Goal=   None    Shift=    0.000
 Gap=     0.054 Goal=   None    Shift=    0.000
 RMSDP=1.55D-07 MaxDP=1.52D-05 DE=-7.05D-12 OVMax= 4.63D-06

 Cycle  16  Pass 1  IDiag  1:
 E= -1136.13794035548     Delta-E=       -0.000000000017 Rises=F Damp=F
 DIIS: error= 1.58D-08 at cycle  16 NSaved=  16.
 NSaved=16 IEnMin=16 EnMin= -1136.13794035548     IErMin=16 ErrMin= 1.58D-08
 ErrMax= 1.58D-08  0.00D+00 EMaxC= 1.00D-01 BMatC= 8.73D-14 BMatP= 5.33D-13
 IDIUse=1 WtCom= 1.00D+00 WtEn= 0.00D+00
 Coeff-Com: -0.199D-05 0.260D-05 0.394D-05-0.204D-05 0.255D-04 0.134D-03
 Coeff-Com:  0.161D-03-0.976D-03-0.996D-03-0.270D-02 0.533D-02 0.158D-01
 Coeff-Com:  0.114D-01-0.160D+00 0.198D-01 0.111D+01
 Coeff:     -0.199D-05 0.260D-05 0.394D-05-0.204D-05 0.255D-04 0.134D-03
 Coeff:      0.161D-03-0.976D-03-0.996D-03-0.270D-02 0.533D-02 0.158D-01
 Coeff:      0.114D-01-0.160D+00 0.198D-01 0.111D+01
 Gap=     0.054 Goal=   None    Shift=    0.000
 Gap=     0.054 Goal=   None    Shift=    0.000
 RMSDP=6.39D-08 MaxDP=4.02D-06 DE=-1.66D-11 OVMax= 1.69D-06

 Cycle  17  Pass 1  IDiag  1:
 E= -1136.13794035547     Delta-E=        0.000000000010 Rises=F Damp=F
 DIIS: error= 7.85D-09 at cycle  17 NSaved=  17.
 NSaved=17 IEnMin=16 EnMin= -1136.13794035548     IErMin=17 ErrMin= 7.85D-09
 ErrMax= 7.85D-09  0.00D+00 EMaxC= 1.00D-01 BMatC= 2.12D-14 BMatP= 8.73D-14
 IDIUse=1 WtCom= 1.00D+00 WtEn= 0.00D+00
 Coeff-Com:  0.568D-06-0.787D-06-0.437D-05-0.387D-06-0.108D-04-0.504D-04
 Coeff-Com: -0.450D-04 0.753D-03 0.598D-03 0.961D-03-0.105D-01 0.204D-03
 Coeff-Com:  0.415D-01 0.290D-02-0.273D+00 0.143D+00 0.109D+01
 Coeff:      0.568D-06-0.787D-06-0.437D-05-0.387D-06-0.108D-04-0.504D-04
 Coeff:     -0.450D-04 0.753D-03 0.598D-03 0.961D-03-0.105D-01 0.204D-03
 Coeff:      0.415D-01 0.290D-02-0.273D+00 0.143D+00 0.109D+01
 Gap=     0.054 Goal=   None    Shift=    0.000
 Gap=     0.054 Goal=   None    Shift=    0.000
 RMSDP=4.40D-08 MaxDP=3.95D-06 DE= 9.55D-12 OVMax= 8.56D-07

 Cycle  18  Pass 1  IDiag  1:
 E= -1136.13794035548     Delta-E=       -0.000000000009 Rises=F Damp=F
 DIIS: error= 2.57D-09 at cycle  18 NSaved=  18.
 NSaved=18 IEnMin=16 EnMin= -1136.13794035548     IErMin=18 ErrMin= 2.57D-09
 ErrMax= 2.57D-09  0.00D+00 EMaxC= 1.00D-01 BMatC= 3.33D-15 BMatP= 2.12D-14
 IDIUse=1 WtCom= 1.00D+00 WtEn= 0.00D+00
 Large coefficients: NSaved= 18 BigCof=    0.00 CofMax=   10.00 Det=-8.31D-15
 Inversion failed.  Reducing to 17 matrices.
 Large coefficients: NSaved= 17 BigCof=    0.00 CofMax=   10.00 Det=-8.74D-15
 Inversion failed.  Reducing to 16 matrices.
 Large coefficients: NSaved= 16 BigCof=    0.00 CofMax=   10.00 Det=-8.75D-15
 Inversion failed.  Reducing to 15 matrices.
 Coeff-Com: -0.987D-07 0.783D-06 0.111D-04-0.523D-05-0.463D-04 0.458D-05
 Coeff-Com:  0.129D-03 0.208D-03-0.141D-02-0.229D-02 0.192D-01-0.573D-03
 Coeff-Com: -0.210D+00 0.763D-01 0.112D+01
 Coeff:     -0.987D-07 0.783D-06 0.111D-04-0.523D-05-0.463D-04 0.458D-05
 Coeff:      0.129D-03 0.208D-03-0.141D-02-0.229D-02 0.192D-01-0.573D-03
 Coeff:     -0.210D+00 0.763D-01 0.112D+01
 Gap=     0.054 Goal=   None    Shift=    0.000
 Gap=     0.054 Goal=   None    Shift=    0.000
 RMSDP=2.02D-08 MaxDP=1.43D-06 DE=-9.09D-12 OVMax= 3.68D-07

 Cycle  19  Pass 1  IDiag  1:
 E= -1136.13794035549     Delta-E=       -0.000000000003 Rises=F Damp=F
 DIIS: error= 1.45D-09 at cycle  19 NSaved=  16.
 NSaved=16 IEnMin=16 EnMin= -1136.13794035549     IErMin=16 ErrMin= 1.45D-09
 ErrMax= 1.45D-09  0.00D+00 EMaxC= 1.00D-01 BMatC= 4.77D-16 BMatP= 3.33D-15
 IDIUse=1 WtCom= 1.00D+00 WtEn= 0.00D+00
 Large coefficients: NSaved= 16 BigCof=    0.00 CofMax=   10.00 Det=-1.50D-15
 Inversion failed.  Reducing to 15 matrices.
 Coeff-Com: -0.216D-07-0.267D-05-0.600D-05-0.193D-04-0.389D-05 0.109D-04
 Coeff-Com:  0.821D-03-0.614D-03-0.571D-02 0.828D-02 0.321D-01-0.698D-01
 Coeff-Com: -0.140D+00 0.225D+00 0.949D+00
 Coeff:     -0.216D-07-0.267D-05-0.600D-05-0.193D-04-0.389D-05 0.109D-04
 Coeff:      0.821D-03-0.614D-03-0.571D-02 0.828D-02 0.321D-01-0.698D-01
 Coeff:     -0.140D+00 0.225D+00 0.949D+00
 Gap=     0.054 Goal=   None    Shift=    0.000
 Gap=     0.054 Goal=   None    Shift=    0.000
 RMSDP=6.94D-09 MaxDP=7.06D-07 DE=-2.96D-12 OVMax= 1.06D-07

 SCF Done:  E(UB3LYP) =  -1136.13794036     A.U. after   19 cycles
            NFock= 19  Conv=0.69D-08     -V/T= 2.0029
 <Sx>= 0.0000 <Sy>= 0.0000 <Sz>= 0.5000 <S**2>= 0.7589 S= 0.5045
 <L.S>= 0.000000000000E+00
 KE= 1.132879199752D+03 PE=-3.402733647656D+03 EE= 7.970921844874D+02
 Annihilation of the first spin contaminant:
 S**2 before annihilation     0.7589,   after     0.7501
 Leave Link  502 at Thu Dec  7 17:49:43 2023, MaxMem=  1879048192 cpu:             178.3 elap:              15.8
 (Enter /home/sekinelabo/g16/l601.exe)
 Copying SCF densities to generalized density rwf, IOpCl= 1 IROHF=0.

 **********************************************************************

            Population analysis using the SCF Density.

 **********************************************************************

 Orbital symmetries:
 Alpha Orbitals:
       Occupied  (A) (A) (A) (A) (A) (A) (A) (A) (A) (A) (A) (A)
                 (A) (A) (A) (A) (A) (A) (A) (A) (A) (A) (A) (A)
                 (A) (A) (A) (A) (A) (A) (A) (A) (A) (A) (A) (A)
                 (A) (A) (A)
       Virtual   (A) (A) (A) (A) (A) (A) (A) (A) (A) (A) (A) (A)
                 (A) (A) (A) (A) (A) (A) (A) (A) (A) (A) (A) (A)
                 (A) (A) (A) (A) (A) (A) (A) (A) (A) (A) (A) (A)
                 (A) (A) (A) (A) (A) (A) (A) (A) (A) (A) (A) (A)
                 (A) (A) (A) (A) (A) (A) (A) (A) (A) (A) (A) (A)
                 (A) (A) (A) (A) (A) (A) (A) (A) (A) (A) (A) (A)
                 (A) (A) (A) (A) (A) (A) (A) (A) (A) (A) (A) (A)
                 (A) (A) (A) (A) (A) (A) (A) (A) (A) (A) (A) (A)
                 (A) (A) (A) (A) (A) (A) (A) (A) (A) (A) (A) (A)
                 (A) (A) (A) (A) (A) (A) (A) (A) (A) (A) (A) (A)
                 (A) (A) (A) (A) (A) (A) (A) (A) (A) (A) (A) (A)
                 (A) (A) (A) (A) (A) (A) (A) (A) (A) (A) (A) (A)
                 (A) (A) (A) (A) (A) (A) (A) (A) (A) (A) (A) (A)
                 (A) (A) (A) (A) (A) (A) (A) (A) (A) (A) (A) (A)
                 (A) (A) (A)
 Beta  Orbitals:
       Occupied  (A) (A) (A) (A) (A) (A) (A) (A) (A) (A) (A) (A)
                 (A) (A) (A) (A) (A) (A) (A) (A) (A) (A) (A) (A)
                 (A) (A) (A) (A) (A) (A) (A) (A) (A) (A) (A) (A)
                 (A) (A)
       Virtual   (A) (A) (A) (A) (A) (A) (A) (A) (A) (A) (A) (A)
                 (A) (A) (A) (A) (A) (A) (A) (A) (A) (A) (A) (A)
                 (A) (A) (A) (A) (A) (A) (A) (A) (A) (A) (A) (A)
                 (A) (A) (A) (A) (A) (A) (A) (A) (A) (A) (A) (A)
                 (A) (A) (A) (A) (A) (A) (A) (A) (A) (A) (A) (A)
                 (A) (A) (A) (A) (A) (A) (A) (A) (A) (A) (A) (A)
                 (A) (A) (A) (A) (A) (A) (A) (A) (A) (A) (A) (A)
                 (A) (A) (A) (A) (A) (A) (A) (A) (A) (A) (A) (A)
                 (A) (A) (A) (A) (A) (A) (A) (A) (A) (A) (A) (A)
                 (A) (A) (A) (A) (A) (A) (A) (A) (A) (A) (A) (A)
                 (A) (A) (A) (A) (A) (A) (A) (A) (A) (A) (A) (A)
                 (A) (A) (A) (A) (A) (A) (A) (A) (A) (A) (A) (A)
                 (A) (A) (A) (A) (A) (A) (A) (A) (A) (A) (A) (A)
                 (A) (A) (A) (A) (A) (A) (A) (A) (A) (A) (A) (A)
                 (A) (A) (A) (A)
 The electronic state is 2-A.
 Alpha  occ. eigenvalues --  -38.43910 -38.43894 -38.43821 -38.43701 -38.43544
 Alpha  occ. eigenvalues --  -38.43462 -38.43336  -2.19743  -2.19699  -2.19635
 Alpha  occ. eigenvalues --   -2.19517  -2.19382  -2.19370  -2.19299  -1.13401
 Alpha  occ. eigenvalues --   -1.13376  -1.13373  -1.13364  -1.13358  -1.13348
 Alpha  occ. eigenvalues --   -1.13322  -1.13297  -1.13256  -1.13196  -1.13180
 Alpha  occ. eigenvalues --   -1.13163  -1.13150  -1.13078  -1.13048  -1.13030
 Alpha  occ. eigenvalues --   -1.13016  -1.12963  -1.12953  -1.12912  -1.12904
 Alpha  occ. eigenvalues --   -0.18430  -0.12794  -0.12472  -0.10850
 Alpha virt. eigenvalues --   -0.05487  -0.05096  -0.05017  -0.03120  -0.02943
 Alpha virt. eigenvalues --   -0.02792  -0.01383  -0.01218  -0.00509  -0.00355
 Alpha virt. eigenvalues --   -0.00039   0.00358   0.00798   0.00853   0.00880
 Alpha virt. eigenvalues --    0.00893   0.01058   0.01169   0.01233   0.01272
 Alpha virt. eigenvalues --    0.01323   0.01389   0.01730   0.01736   0.02179
 Alpha virt. eigenvalues --    0.02220   0.02278   0.02516   0.02567   0.02928
 Alpha virt. eigenvalues --    0.02962   0.03024   0.03031   0.03114   0.03173
 Alpha virt. eigenvalues --    0.03181   0.03237   0.03252   0.03283   0.03651
 Alpha virt. eigenvalues --    0.04229   0.04421   0.04534   0.04566   0.04685
 Alpha virt. eigenvalues --    0.04872   0.04992   0.04997   0.05361   0.05427
 Alpha virt. eigenvalues --    0.05767   0.07142   0.07271   0.07414   0.07499
 Alpha virt. eigenvalues --    0.07629   0.07726   0.07922   0.08110   0.09125
 Alpha virt. eigenvalues --    0.09548   0.09780   0.10609   0.10991   0.11377
 Alpha virt. eigenvalues --    0.11768   0.12321   0.12362   0.12897   0.13121
 Alpha virt. eigenvalues --    0.13534   0.13737   0.14432   0.14945   0.15164
 Alpha virt. eigenvalues --    0.15363   0.15582   0.15881   0.16184   0.17091
 Alpha virt. eigenvalues --    0.25686   0.27627   0.27848   0.28241   0.29280
 Alpha virt. eigenvalues --    0.29377   0.30156   0.30537   0.31448   0.34467
 Alpha virt. eigenvalues --    0.35172   0.36274   0.36708   0.37218   0.38075
 Alpha virt. eigenvalues --    0.38420   0.39081   0.41097   0.42089   0.43315
 Alpha virt. eigenvalues --    0.43653   0.43771   0.44030   0.44391   0.44526
 Alpha virt. eigenvalues --    0.44824   0.44988   0.45273   0.45536   0.45554
 Alpha virt. eigenvalues --    0.46399   0.46636   0.47834   0.48764   0.49271
 Alpha virt. eigenvalues --    0.49541   0.50386   0.50688   0.51183   0.51589
 Alpha virt. eigenvalues --    0.52209   0.53333   0.54439   0.55699   0.56227
 Alpha virt. eigenvalues --    0.56550   0.57131   0.57697   0.58747   0.59572
 Alpha virt. eigenvalues --    0.60501   0.61444   0.63960   0.66708   0.67492
 Alpha virt. eigenvalues --    0.70574   2.02517   2.13530   2.15344   2.17254
 Alpha virt. eigenvalues --    2.18104   2.22545   2.25380   4.43593   4.44182
 Alpha virt. eigenvalues --    4.45351   4.45553   4.45744   4.45955   4.46134
 Alpha virt. eigenvalues --    4.46834   4.47054   4.47475   4.47673   4.48514
 Alpha virt. eigenvalues --    4.49607   4.50289   4.50816   4.51768   4.53339
 Alpha virt. eigenvalues --    4.54662   4.59061   4.64600   4.67432  96.22175
 Alpha virt. eigenvalues --   96.34421  96.36847  96.38972  96.40034  96.45991
 Alpha virt. eigenvalues --   96.49488
  Beta  occ. eigenvalues --  -38.43910 -38.43817 -38.43789 -38.43699 -38.43542
  Beta  occ. eigenvalues --  -38.43453 -38.43274  -2.19702  -2.19631  -2.19549
  Beta  occ. eigenvalues --   -2.19516  -2.19381  -2.19358  -2.19186  -1.13368
  Beta  occ. eigenvalues --   -1.13362  -1.13352  -1.13310  -1.13288  -1.13271
  Beta  occ. eigenvalues --   -1.13257  -1.13232  -1.13224  -1.13188  -1.13167
  Beta  occ. eigenvalues --   -1.13160  -1.13132  -1.13066  -1.13035  -1.13020
  Beta  occ. eigenvalues --   -1.12985  -1.12951  -1.12891  -1.12837  -1.12825
  Beta  occ. eigenvalues --   -0.17689  -0.12576  -0.12279
  Beta virt. eigenvalues --   -0.06880  -0.05508  -0.05104  -0.04899  -0.02320
  Beta virt. eigenvalues --   -0.02198  -0.01698  -0.01306  -0.01138  -0.00569
  Beta virt. eigenvalues --   -0.00415   0.00118   0.00383   0.00829   0.00876
  Beta virt. eigenvalues --    0.00898   0.00959   0.01226   0.01300   0.01372
  Beta virt. eigenvalues --    0.01420   0.01436   0.01464   0.01762   0.01780
  Beta virt. eigenvalues --    0.02195   0.02251   0.02377   0.02492   0.02539
  Beta virt. eigenvalues --    0.02965   0.03041   0.03061   0.03164   0.03225
  Beta virt. eigenvalues --    0.03254   0.03280   0.03309   0.03341   0.03378
  Beta virt. eigenvalues --    0.03627   0.04286   0.04506   0.04578   0.04648
  Beta virt. eigenvalues --    0.04826   0.05023   0.05147   0.05184   0.05512
  Beta virt. eigenvalues --    0.05615   0.06079   0.07114   0.07369   0.07599
  Beta virt. eigenvalues --    0.07668   0.07691   0.07797   0.08007   0.08227
  Beta virt. eigenvalues --    0.09486   0.09692   0.09956   0.10746   0.11256
  Beta virt. eigenvalues --    0.11572   0.11977   0.12812   0.12853   0.12937
  Beta virt. eigenvalues --    0.13146   0.13683   0.13999   0.14688   0.15316
  Beta virt. eigenvalues --    0.15389   0.15560   0.15743   0.16072   0.16422
  Beta virt. eigenvalues --    0.17479   0.26028   0.27768   0.27987   0.28597
  Beta virt. eigenvalues --    0.29380   0.29573   0.30494   0.30783   0.32098
  Beta virt. eigenvalues --    0.34885   0.35280   0.36482   0.36985   0.37517
  Beta virt. eigenvalues --    0.38190   0.38757   0.39403   0.41192   0.42329
  Beta virt. eigenvalues --    0.43539   0.43870   0.43973   0.44206   0.44506
  Beta virt. eigenvalues --    0.44671   0.45036   0.45252   0.45441   0.45535
  Beta virt. eigenvalues --    0.45704   0.46502   0.46740   0.48035   0.48795
  Beta virt. eigenvalues --    0.49234   0.49783   0.50374   0.50761   0.51356
  Beta virt. eigenvalues --    0.51594   0.52493   0.53703   0.54721   0.56084
  Beta virt. eigenvalues --    0.56472   0.56738   0.57451   0.57895   0.59047
  Beta virt. eigenvalues --    0.59850   0.60463   0.61842   0.64107   0.66640
  Beta virt. eigenvalues --    0.67708   0.70752   2.02660   2.13550   2.15343
  Beta virt. eigenvalues --    2.17316   2.18385   2.22595   2.25616   4.43644
  Beta virt. eigenvalues --    4.44205   4.45405   4.45613   4.45764   4.45972
  Beta virt. eigenvalues --    4.46177   4.46866   4.47061   4.47593   4.47761
  Beta virt. eigenvalues --    4.48571   4.49647   4.50339   4.50866   4.51804
  Beta virt. eigenvalues --    4.53393   4.54687   4.59077   4.64678   4.67511
  Beta virt. eigenvalues --   96.22217  96.34429  96.36849  96.39009  96.40101
  Beta virt. eigenvalues --   96.46013  96.49554
          Condensed to atoms (all electrons):
               1          2          3          4          5          6
     1  Na  10.635165   0.092500  -0.126368   0.323031   0.166037  -0.020725
     2  Na   0.092500  14.462533  -2.559586   0.111287  -0.099189  -0.417585
     3  Na  -0.126368  -2.559586  15.071129  -0.206625  -0.009008  -0.665728
     4  Na   0.323031   0.111287  -0.206625  10.897061   0.024028  -0.009053
     5  Na   0.166037  -0.099189  -0.009008   0.024028  10.776166  -0.228170
     6  Na  -0.020725  -0.417585  -0.665728  -0.009053  -0.228170  11.637915
     7  Na  -0.070305   0.013749  -0.370817  -0.193758   0.292736   0.282089
               7
     1  Na  -0.070305
     2  Na   0.013749
     3  Na  -0.370817
     4  Na  -0.193758
     5  Na   0.292736
     6  Na   0.282089
     7  Na  10.862946
          Atomic-Atomic Spin Densities.
               1          2          3          4          5          6
     1  Na  -0.064069   0.050675  -0.003391  -0.066194  -0.031189   0.027845
     2  Na   0.050675   3.512263  -2.876850   0.087627  -0.105481   0.039148
     3  Na  -0.003391  -2.876850   3.295098  -0.061533   0.113366   0.036035
     4  Na  -0.066194   0.087627  -0.061533  -0.108233  -0.021677   0.070492
     5  Na  -0.031189  -0.105481   0.113366  -0.021677  -0.085227   0.084338
     6  Na   0.027845   0.039148   0.036035   0.070492   0.084338  -0.207609
     7  Na   0.013001   0.101990  -0.093384   0.049042  -0.042949  -0.003837
               7
     1  Na   0.013001
     2  Na   0.101990
     3  Na  -0.093384
     4  Na   0.049042
     5  Na  -0.042949
     6  Na  -0.003837
     7  Na  -0.076372
 Mulliken charges and spin densities:
               1          2
     1  Na   0.000664  -0.073322
     2  Na  -0.603709   0.809372
     3  Na  -0.132997   0.409342
     4  Na   0.054028  -0.050475
     5  Na   0.077400  -0.088819
     6  Na   0.421256   0.046412
     7  Na   0.183358  -0.052510
 Sum of Mulliken charges =  -0.00000   1.00000
 Mulliken charges and spin densities with hydrogens summed into heavy atoms:
               1          2
     1  Na   0.000664  -0.073322
     2  Na  -0.603709   0.809372
     3  Na  -0.132997   0.409342
     4  Na   0.054028  -0.050475
     5  Na   0.077400  -0.088819
     6  Na   0.421256   0.046412
     7  Na   0.183358  -0.052510
 Electronic spatial extent (au):  <R**2>=           2305.7251
 Charge=             -0.0000 electrons
 Dipole moment (field-independent basis, Debye):
    X=              0.1194    Y=             -0.1841    Z=              0.1511  Tot=              0.2664
 Quadrupole moment (field-independent basis, Debye-Ang):
   XX=            -59.4661   YY=            -60.5307   ZZ=            -74.0476
   XY=              1.3024   XZ=             -0.0027   YZ=              0.0259
 Traceless Quadrupole moment (field-independent basis, Debye-Ang):
   XX=              5.2154   YY=              4.1508   ZZ=             -9.3662
   XY=              1.3024   XZ=             -0.0027   YZ=              0.0259
 Octapole moment (field-independent basis, Debye-Ang**2):
  XXX=              1.7341  YYY=             -4.1522  ZZZ=              0.1717  XYY=              0.0916
  XXY=             -0.8727  XXZ=             -0.2618  XZZ=              1.0578  YZZ=             -0.7143
  YYZ=             -0.6977  XYZ=              0.2472
 Hexadecapole moment (field-independent basis, Debye-Ang**3):
 XXXX=          -1443.8550 YYYY=          -1429.2420 ZZZZ=           -785.8896 XXXY=             32.4325
 XXXZ=              0.9979 YYYX=              5.4246 YYYZ=              4.7549 ZZZX=              0.9456
 ZZZY=             -0.8872 XXYY=           -490.7606 XXZZ=           -453.2508 YYZZ=           -445.2630
 XXYZ=             -3.0671 YYXZ=             -1.7387 ZZXY=              1.0139
 N-N= 3.366243230611D+02 E-N=-3.402733647460D+03  KE= 1.132879199752D+03
                          Isotropic Fermi Contact Couplings
        Atom                 a.u.       MegaHertz       Gauss      10(-4) cm-1
     1  Na(23)            -0.02242     -26.52095      -9.46333      -8.84644
     2  Na(23)             0.43412     513.57624     183.25677     171.31059
     3  Na(23)             0.24151     285.71897     101.95163      95.30559
     4  Na(23)            -0.02205     -26.08559      -9.30799      -8.70122
     5  Na(23)            -0.01204     -14.24927      -5.08449      -4.75304
     6  Na(23)            -0.01089     -12.88048      -4.59607      -4.29646
     7  Na(23)            -0.02407     -28.47945     -10.16218      -9.49972
 --------------------------------------------------------
       Center         ----  Spin Dipole Couplings  ----
                      3XX-RR        3YY-RR        3ZZ-RR
 --------------------------------------------------------
     1   Atom       -0.005043     -0.010763      0.015806
     2   Atom        0.002841      0.001961     -0.004803
     3   Atom       -0.000284      0.001019     -0.000736
     4   Atom       -0.013606     -0.009186      0.022792
     5   Atom       -0.012918     -0.008214      0.021133
     6   Atom       -0.018000     -0.019671      0.037671
     7   Atom       -0.011011     -0.012623      0.023634
 --------------------------------------------------------
                        XY            XZ            YZ
 --------------------------------------------------------
     1   Atom       -0.000089      0.000149      0.001743
     2   Atom        0.000831     -0.001470      0.000642
     3   Atom       -0.002005      0.003593     -0.001301
     4   Atom        0.001468      0.002434      0.000115
     5   Atom       -0.001902     -0.000162     -0.002385
     6   Atom       -0.002642     -0.003674      0.000845
     7   Atom        0.001981      0.000048     -0.000004
 --------------------------------------------------------


 ---------------------------------------------------------------------------------
              Anisotropic Spin Dipole Couplings in Principal Axis System
 ---------------------------------------------------------------------------------

       Atom             a.u.   MegaHertz   Gauss  10(-4) cm-1        Axes

              Baa    -0.0109    -1.536    -0.548    -0.512  0.0168  0.9977 -0.0653
     1 Na(23) Bbb    -0.0050    -0.712    -0.254    -0.238  0.9998 -0.0172 -0.0057
              Bcc     0.0159     2.248     0.802     0.750  0.0068  0.0652  0.9979
 
              Baa    -0.0052    -0.729    -0.260    -0.243  0.1906 -0.1101  0.9755
     2 Na(23) Bbb     0.0017     0.241     0.086     0.080 -0.4159  0.8911  0.1819
              Bcc     0.0035     0.488     0.174     0.163  0.8892  0.4403 -0.1240
 
              Baa    -0.0042    -0.586    -0.209    -0.196 -0.7037 -0.0957  0.7040
     3 Na(23) Bbb    -0.0005    -0.068    -0.024    -0.023  0.3326  0.8312  0.4456
              Bcc     0.0046     0.654     0.233     0.218  0.6278 -0.5477  0.5531
 
              Baa    -0.0142    -2.004    -0.715    -0.668  0.9581 -0.2795 -0.0622
     4 Na(23) Bbb    -0.0088    -1.238    -0.442    -0.413  0.2784  0.9601 -0.0250
              Bcc     0.0230     3.242     1.157     1.081  0.0667  0.0066  0.9978
 
              Baa    -0.0136    -1.923    -0.686    -0.641  0.9390  0.3428  0.0279
     5 Na(23) Bbb    -0.0077    -1.088    -0.388    -0.363 -0.3440  0.9359  0.0755
              Bcc     0.0213     3.011     1.075     1.005 -0.0002 -0.0805  0.9968
 
              Baa    -0.0216    -3.057    -1.091    -1.020  0.6037  0.7968  0.0260
     6 Na(23) Bbb    -0.0163    -2.300    -0.821    -0.767  0.7944 -0.6040  0.0636
              Bcc     0.0379     5.356     1.911     1.787 -0.0664  0.0177  0.9976
 
              Baa    -0.0140    -1.971    -0.703    -0.657 -0.5581  0.8298  0.0008
     7 Na(23) Bbb    -0.0097    -1.367    -0.488    -0.456  0.8298  0.5581 -0.0011
              Bcc     0.0236     3.337     1.191     1.113  0.0014 -0.0000  1.0000
 

 ---------------------------------------------------------------------------------

 No NMR shielding tensors so no spin-rotation constants.
 Leave Link  601 at Thu Dec  7 17:49:43 2023, MaxMem=  1879048192 cpu:               2.3 elap:               0.2
 (Enter /home/sekinelabo/g16/l701.exe)
 ... and contract with generalized density number  0.
 Compute integral first derivatives.
 Leave Link  701 at Thu Dec  7 17:49:43 2023, MaxMem=  1879048192 cpu:               1.5 elap:               0.1
 (Enter /home/sekinelabo/g16/l702.exe)
 L702 exits ... SP integral derivatives will be done elsewhere.
 Leave Link  702 at Thu Dec  7 17:49:44 2023, MaxMem=  1879048192 cpu:               0.5 elap:               0.0
 (Enter /home/sekinelabo/g16/l703.exe)
 Integral derivatives from FoFJK, PRISM(SPDF).
 Compute integral first derivatives, UseDBF=F ICtDFT=           0.
 Calling FoFJK, ICntrl=      2127 FMM=F ISym2X=0 I1Cent= 0 IOpClX= 1 NMat=1 NMatS=1 NMatT=0.
 FoFJK:  IHMeth= 1 ICntrl=    2127 DoSepK=F KAlg= 0 I1Cent=           0 FoldK=F
 IRaf=         0 NMat=       1 IRICut=       1 DoRegI=T DoRafI=F ISym2E= 0 IDoP0=0 IntGTp=1.
 FoFCou: FMM=F IPFlag=           0 FMFlag=      100000 FMFlg1=         800
         NFxFlg=           0 DoJE=F BraDBF=F KetDBF=F FulRan=T
         wScrn=  0.000000 ICntrl=      2127 IOpCl=  1 I1Cent=           0 NGrid=           0
         NMat0=    1 NMatS0=      1 NMatT0=    0 NMatD0=    1 NMtDS0=    0 NMtDT0=    0
 Symmetry not used in FoFCou.
 Leave Link  703 at Thu Dec  7 17:49:46 2023, MaxMem=  1879048192 cpu:              33.3 elap:               2.2
 (Enter /home/sekinelabo/g16/l716.exe)
 Dipole        = 4.69726711D-02-7.24379628D-02 5.94593279D-02
 ***** Axes restored to original set *****
 -------------------------------------------------------------------
 Center     Atomic                   Forces (Hartrees/Bohr)
 Number     Number              X              Y              Z
 -------------------------------------------------------------------
      1       11          -0.001122440   -0.002978239   -0.002349836
      2       11           0.000472717    0.002574248   -0.001887731
      3       11           0.002579381    0.003152148    0.001036368
      4       11           0.001855398    0.001327056    0.002032577
      5       11          -0.002076722   -0.001142009    0.000196521
      6       11          -0.001889702   -0.004472450   -0.001161504
      7       11           0.000181368    0.001539247    0.002133606
 -------------------------------------------------------------------
 Cartesian Forces:  Max     0.004472450 RMS     0.002077045
 Z-matrix is all fixed cartesians, so copy forces.
 Force constants in Cartesian coordinates: 
                1             2             3             4             5 
      1  0.563695D-01
      2  0.426864D-02  0.660273D-01
      3  0.283580D-02  0.215380D-01  0.592166D-01
      4 -0.850046D-02 -0.311895D-02  0.262812D-02  0.796513D-01
      5  0.106287D-02 -0.217416D-01  0.188088D-01 -0.107569D-02  0.107535D+00
      6 -0.278187D-02 -0.128899D-01 -0.123302D-01 -0.670889D-03 -0.276980D-01
      7 -0.128529D-01  0.203661D-02 -0.347102D-02 -0.109017D-01  0.123110D-02
      8 -0.278037D-02 -0.160747D-01 -0.136565D-01 -0.341045D-03 -0.208736D-01
      9  0.111170D-02  0.165799D-01 -0.288044D-01  0.172598D-02  0.956293D-02
     10 -0.197646D-01  0.122158D-01  0.966243D-02 -0.149528D-01 -0.386514D-02
     11 -0.118789D-01 -0.123934D-01 -0.672993D-02  0.142950D-01 -0.186855D-01
     12 -0.108928D-01 -0.605304D-02 -0.901249D-02 -0.122791D-01  0.138615D-01
     13 -0.248079D-01 -0.121655D-01 -0.847999D-02 -0.165381D-01  0.755086D-02
     14  0.125773D-01 -0.164704D-01 -0.965567D-02 -0.146790D-01 -0.156949D-01
     15  0.131439D-01 -0.804257D-02 -0.129200D-01  0.153870D-01  0.776969D-02
     16  0.327172D-02 -0.390588D-02 -0.434716D-02 -0.175129D-01 -0.954190D-02
     17 -0.368137D-02  0.867384D-03 -0.463074D-02  0.916091D-02 -0.161573D-01
     18 -0.443102D-02 -0.501564D-02  0.250576D-02 -0.158738D-01 -0.788947D-02
     19  0.628457D-02  0.669219D-03  0.117183D-02 -0.112453D-01  0.463791D-02
     20  0.431878D-03 -0.214664D-03 -0.567395D-02 -0.424114D-02 -0.143823D-01
     21  0.101429D-02 -0.611667D-02  0.134462D-02  0.908267D-02 -0.144155D-01
                6             7             8             9            10 
      6  0.112326D+00
      7 -0.527641D-04  0.121616D+00
      8  0.911431D-02  0.284765D-02  0.147640D+00
      9 -0.225990D-01 -0.136438D-02 -0.288421D-01  0.150620D+00
     10  0.102402D-01 -0.226033D-01  0.955845D-02 -0.248837D-02  0.887455D-01
     11 -0.389439D-02 -0.109435D-01 -0.172194D-01  0.133612D-01 -0.127363D-01
     12 -0.129398D-01  0.164937D-01 -0.424042D-02 -0.267387D-01 -0.923770D-02
     13 -0.811731D-02 -0.265169D-01 -0.646537D-02  0.732848D-02 -0.587171D-02
     14  0.290923D-02  0.145702D-01 -0.224485D-01  0.867458D-02  0.151275D-02
     15 -0.156693D-01 -0.183216D-01  0.317424D-02 -0.252492D-01  0.180506D-02
     16  0.355453D-02 -0.318934D-01 -0.170933D-02 -0.107562D-01 -0.274397D-01
     17  0.142015D-01 -0.191672D-01 -0.383844D-01 -0.677978D-02 -0.119647D-01
     18 -0.243727D-01  0.116355D-01  0.159968D-01 -0.272742D-01 -0.144004D-01
     19 -0.217186D-02 -0.168478D-01 -0.110998D-02  0.444275D-02  0.188655D-02
     20  0.182572D-01  0.942527D-02 -0.326393D-01 -0.125567D-01  0.527915D-02
     21 -0.244152D-01 -0.491945D-02  0.184537D-01 -0.199541D-01  0.441882D-02
               11            12            13            14            15 
     11  0.622215D-01
     12  0.146226D-01  0.592523D-01
     13  0.154188D-02  0.151296D-02  0.953149D-01
     14  0.530250D-02 -0.155119D-03  0.341153D-02  0.546616D-01
     15 -0.213982D-03  0.684941D-02  0.331769D-03  0.750896D-02  0.523290D-01
     16  0.145078D-01  0.105955D-01 -0.467337D-02 -0.341192D-02 -0.220542D-02
     17 -0.223850D-01 -0.148181D-01 -0.376311D-02  0.667768D-02 -0.183903D-02
     18 -0.134518D-01 -0.209464D-01 -0.321363D-02 -0.204854D-02  0.531732D-02
     19  0.521416D-02  0.380752D-02 -0.169070D-01 -0.139808D-01 -0.101407D-01
     20  0.315928D-02 -0.321741D-02  0.988969D-02 -0.120281D-01 -0.835731D-02
     21 -0.369372D-02  0.353560D-02  0.106377D-01 -0.723345D-02 -0.106572D-01
               16            17            18            19            20 
     16  0.104551D+00
     17  0.154088D-01  0.815835D-01
     18  0.153002D-01  0.210356D-01  0.782324D-01
     19 -0.263035D-01  0.140067D-01  0.109831D-01  0.631325D-01
     20 -0.113476D-01 -0.122018D-01 -0.862695D-02 -0.943730D-02  0.683070D-01
     21 -0.121415D-01 -0.716942D-02 -0.134622D-01 -0.809257D-02  0.201751D-01
               21 
     21  0.636085D-01
 Leave Link  716 at Thu Dec  7 17:49:46 2023, MaxMem=  1879048192 cpu:               0.4 elap:               0.0
 (Enter /home/sekinelabo/g16/l103.exe)

 GradGradGradGradGradGradGradGradGradGradGradGradGradGradGradGradGradGrad
 Berny optimization.
 Search for a local minimum.
 Step number   1 out of a maximum of    2
 All quantities printed in internal units (Hartrees-Bohrs-Radians)
 Second derivative matrix not updated -- first step.
 ITU=  0
     Eigenvalues ---    0.05499   0.05706   0.06390   0.07918   0.08466
     Eigenvalues ---    0.08948   0.10452   0.11416   0.11684   0.14215
     Eigenvalues ---    0.14645   0.15541   0.16244   0.17512   0.21281
 Angle between quadratic step and forces=  28.59 degrees.
 Linear search not attempted -- first point.
 B after Tr=     0.000000    0.000000    0.000000
         Rot=    1.000000   -0.000000   -0.000000   -0.000000 Ang=   0.00 deg.
 Variable       Old X    -DE/DX   Delta X   Delta X   Delta X     New X
                                 (Linear)    (Quad)   (Total)
    X1       25.56781  -0.00112   0.00000  -0.01352  -0.01352  25.55428
    Y1       28.67508  -0.00298   0.00000  -0.03842  -0.03842  28.63666
    Z1       28.02445  -0.00235   0.00000  -0.03363  -0.03363  27.99082
    X2       24.16298   0.00047   0.00000   0.00320   0.00320  24.16618
    Y2       21.23315   0.00257   0.00000   0.02364   0.02364  21.25679
    Z2       27.15215  -0.00189   0.00000  -0.01710  -0.01710  27.13506
    X3       24.16790   0.00258   0.00000   0.01357   0.01357  24.18147
    Y3       26.08521   0.00315   0.00000   0.01365   0.01365  26.09886
    Z3       21.62244   0.00104   0.00000   0.01241   0.01241  21.63485
    X4       19.00705   0.00186   0.00000   0.02794   0.02794  19.03499
    Y4       26.29951   0.00133   0.00000   0.01184   0.01184  26.31135
    Z4       25.81479   0.00203   0.00000   0.01318   0.01318  25.82797
    X5       29.87638  -0.00208   0.00000  -0.03590  -0.03590  29.84048
    Y5       24.99805  -0.00114   0.00000  -0.01391  -0.01391  24.98414
    Z5       24.50559   0.00020   0.00000   0.00203   0.00203  24.50762
    X6       20.05358  -0.00189   0.00000   0.00074   0.00074  20.05433
    Y6       21.90004  -0.00447   0.00000  -0.02443  -0.02443  21.87560
    Z6       21.69651  -0.00116   0.00000   0.00124   0.00124  21.69775
    X7       26.38341   0.00018   0.00000   0.00397   0.00397  26.38738
    Y7       20.02826   0.00154   0.00000   0.02763   0.02763  20.05590
    Z7       20.40337   0.00213   0.00000   0.02187   0.02187  20.42525
         Item               Value     Threshold  Converged?
 Maximum Force            0.004472     0.000450     NO 
 RMS     Force            0.002077     0.000300     NO 
 Maximum Displacement     0.038422     0.001800     NO 
 RMS     Displacement     0.020253     0.001200     NO 
 Predicted change in Energy=-3.878564D-04
 GradGradGradGradGradGradGradGradGradGradGradGradGradGradGradGradGradGrad

 Leave Link  103 at Thu Dec  7 17:49:46 2023, MaxMem=  1879048192 cpu:               0.2 elap:               0.0
 (Enter /home/sekinelabo/g16/l9999.exe)
 1\1\GINC-SEKINELABO-XA7R-R37\Force\UB3LYP\6-311+G(d)\Na7(2)\SEKINELABO
 \07-Dec-2023\0\\#P B3LYP/6-311+g(d) force\\DPGEN\\0,2\Na,13.5299,15.17
 42,14.8299\Na,12.7865,11.2361,14.3683\Na,12.7891,13.8037,11.4421\Na,10
 .0581,13.9171,13.6606\Na,15.8099,13.2284,12.9678\Na,10.6119,11.589,11.
 4813\Na,13.9615,10.5985,10.797\\Version=ES64L-G16RevB.01\State=2-A\HF=
 -1136.1379404\S2=0.758932\S2-1=0.\S2A=0.75005\RMSD=6.945e-09\RMSF=2.07
 7e-03\Dipole=0.080286,-0.016797,0.0652772\Quadrupole=2.725193,-0.70581
 47,-2.0193782,-0.5657256,-0.4510152,5.5621726\PG=C01 [X(Na7)]\\@


 WE ARE PERHAPS NOT FAR REMOVED FROM THE TIME WHEN WE SHALL BE ABLE TO SUBMIT
 THE BULK OF CHEMICAL PHENOMENA TO CALCULATION.

            -- JOSEPH LOUIS GAY-LUSSAC
               MEMOIRES DE LA SOCIETE D'ARCUEIL, 2, 207 (1808)
 Job cpu time:       0 days  0 hours  3 minutes 47.9 seconds.
 Elapsed time:       0 days  0 hours  0 minutes 19.1 seconds.
 File lengths (MBytes):  RWF=     32 Int=      0 D2E=      0 Chk=      4 Scr=      1
 Normal termination of Gaussian 16 at Thu Dec  7 17:49:46 2023.
