 Set GAUSS_MDEF to "14GB".
 Entering Gaussian System, Link 0=g16
 Initial command:
 /home/sekinelabo/g16/l1.exe "/home/sekinelabo/g16temp/Gau-351259.inp" -scrdir="/home/sekinelabo/g16temp/"
 Entering Link 1 = /home/sekinelabo/g16/l1.exe PID=    351261.
  
 Copyright (c) 1988-2017, Gaussian, Inc.  All Rights Reserved.
  
 This is part of the Gaussian(R) 16 program.  It is based on
 the Gaussian(R) 09 system (copyright 2009, Gaussian, Inc.),
 the Gaussian(R) 03 system (copyright 2003, Gaussian, Inc.),
 the Gaussian(R) 98 system (copyright 1998, Gaussian, Inc.),
 the Gaussian(R) 94 system (copyright 1995, Gaussian, Inc.),
 the Gaussian 92(TM) system (copyright 1992, Gaussian, Inc.),
 the Gaussian 90(TM) system (copyright 1990, Gaussian, Inc.),
 the Gaussian 88(TM) system (copyright 1988, Gaussian, Inc.),
 the Gaussian 86(TM) system (copyright 1986, Carnegie Mellon
 University), and the Gaussian 82(TM) system (copyright 1983,
 Carnegie Mellon University). Gaussian is a federally registered
 trademark of Gaussian, Inc.
  
 This software contains proprietary and confidential information,
 including trade secrets, belonging to Gaussian, Inc.
  
 This software is provided under written license and may be
 used, copied, transmitted, or stored only in accord with that
 written license.
  
 The following legend is applicable only to US Government
 contracts under FAR:
  
                    RESTRICTED RIGHTS LEGEND
  
 Use, reproduction and disclosure by the US Government is
 subject to restrictions as set forth in subparagraphs (a)
 and (c) of the Commercial Computer Software - Restricted
 Rights clause in FAR 52.227-19.
  
 Gaussian, Inc.
 340 Quinnipiac St., Bldg. 40, Wallingford CT 06492
  
  
 ---------------------------------------------------------------
 Warning -- This program may not be used in any manner that
 competes with the business of Gaussian, Inc. or will provide
 assistance to any competitor of Gaussian, Inc.  The licensee
 of this program is prohibited from giving any competitor of
 Gaussian, Inc. access to this program.  By using this program,
 the user acknowledges that Gaussian, Inc. is engaged in the
 business of creating and licensing software in the field of
 computational chemistry and represents and warrants to the
 licensee that it is not a competitor of Gaussian, Inc. and that
 it will not use this program in any manner prohibited above.
 ---------------------------------------------------------------
  

 Cite this work as:
 Gaussian 16, Revision B.01,
 M. J. Frisch, G. W. Trucks, H. B. Schlegel, G. E. Scuseria, 
 M. A. Robb, J. R. Cheeseman, G. Scalmani, V. Barone, 
 G. A. Petersson, H. Nakatsuji, X. Li, M. Caricato, A. V. Marenich, 
 J. Bloino, B. G. Janesko, R. Gomperts, B. Mennucci, H. P. Hratchian, 
 J. V. Ortiz, A. F. Izmaylov, J. L. Sonnenberg, D. Williams-Young, 
 F. Ding, F. Lipparini, F. Egidi, J. Goings, B. Peng, A. Petrone, 
 T. Henderson, D. Ranasinghe, V. G. Zakrzewski, J. Gao, N. Rega, 
 G. Zheng, W. Liang, M. Hada, M. Ehara, K. Toyota, R. Fukuda, 
 J. Hasegawa, M. Ishida, T. Nakajima, Y. Honda, O. Kitao, H. Nakai, 
 T. Vreven, K. Throssell, J. A. Montgomery, Jr., J. E. Peralta, 
 F. Ogliaro, M. J. Bearpark, J. J. Heyd, E. N. Brothers, K. N. Kudin, 
 V. N. Staroverov, T. A. Keith, R. Kobayashi, J. Normand, 
 K. Raghavachari, A. P. Rendell, J. C. Burant, S. S. Iyengar, 
 J. Tomasi, M. Cossi, J. M. Millam, M. Klene, C. Adamo, R. Cammi, 
 J. W. Ochterski, R. L. Martin, K. Morokuma, O. Farkas, 
 J. B. Foresman, and D. J. Fox, Gaussian, Inc., Wallingford CT, 2016.
 
 ******************************************
 Gaussian 16:  ES64L-G16RevB.01 20-Dec-2017
                29-Nov-2023 
 ******************************************
 %nproc=15
 Will use up to   15 processors via shared memory.
 -------------------------
 #P B3LYP/6-311+g(d) force
 -------------------------
 1/10=7,30=1,38=1/1,3;
 2/12=2,17=6,18=5,40=1/2;
 3/5=4,6=6,7=11,11=2,25=1,30=1,71=1,74=-5/1,2,3;
 4//1;
 5/5=2,38=5/2;
 6/7=2,8=2,9=2,10=2,28=1/1;
 7/29=1/1,2,3,16;
 1/10=7,30=1/3;
 99//99;
 Leave Link    1 at Wed Nov 29 03:22:30 2023, MaxMem=           0 cpu:               0.3 elap:               0.0
 (Enter /home/sekinelabo/g16/l101.exe)
 -----
 DPGEN
 -----
 Symbolic Z-matrix:
 Charge =  0 Multiplicity = 2
 Na                    14.6248   15.9898   17.2921 
 Na                    17.4982   17.2689   15.0661 
 Na                    15.7506   13.777    14.5173 
 Na                    13.36     12.6579   16.7187 
 Na                    12.4463   13.8369   13.7016 
 Na                    18.7197   14.844    13.4845 
 Na                    15.0259   19.051    16.6453 
 
 ITRead=  0  0  0  0  0  0  0
 MicOpt= -1 -1 -1 -1 -1 -1 -1
 NAtoms=      7 NQM=        7 NQMF=       0 NMMI=      0 NMMIF=      0
                NMic=       0 NMicF=      0.
                    Isotopes and Nuclear Properties:
 (Nuclear quadrupole moments (NQMom) in fm**2, nuclear magnetic moments (NMagM)
  in nuclear magnetons)

  Atom         1           2           3           4           5           6           7
 IAtWgt=          23          23          23          23          23          23          23
 AtmWgt=  22.9897697  22.9897697  22.9897697  22.9897697  22.9897697  22.9897697  22.9897697
 NucSpn=           3           3           3           3           3           3           3
 AtZEff=  -0.0000000  -0.0000000  -0.0000000  -0.0000000  -0.0000000  -0.0000000  -0.0000000
 NQMom=   10.4000000  10.4000000  10.4000000  10.4000000  10.4000000  10.4000000  10.4000000
 NMagM=    2.2175200   2.2175200   2.2175200   2.2175200   2.2175200   2.2175200   2.2175200
 AtZNuc=  11.0000000  11.0000000  11.0000000  11.0000000  11.0000000  11.0000000  11.0000000
 Leave Link  101 at Wed Nov 29 03:22:30 2023, MaxMem=  1879048192 cpu:               2.4 elap:               0.2
 (Enter /home/sekinelabo/g16/l103.exe)

 GradGradGradGradGradGradGradGradGradGradGradGradGradGradGradGradGradGrad
 Berny optimization.
 Initialization pass.
 Trust Radius=3.00D-01 FncErr=1.00D-07 GrdErr=1.00D-07 EigMax=2.50D+02 EigMin=1.00D-04
 Number of steps in this run=      2 maximum allowed number of steps=      2.
 GradGradGradGradGradGradGradGradGradGradGradGradGradGradGradGradGradGrad

 Leave Link  103 at Wed Nov 29 03:22:31 2023, MaxMem=  1879048192 cpu:               0.2 elap:               0.0
 (Enter /home/sekinelabo/g16/l202.exe)
                          Input orientation:                          
 ---------------------------------------------------------------------
 Center     Atomic      Atomic             Coordinates (Angstroms)
 Number     Number       Type             X           Y           Z
 ---------------------------------------------------------------------
      1         11           0       14.624800   15.989800   17.292100
      2         11           0       17.498200   17.268900   15.066100
      3         11           0       15.750600   13.777000   14.517300
      4         11           0       13.360000   12.657900   16.718700
      5         11           0       12.446300   13.836900   13.701600
      6         11           0       18.719700   14.844000   13.484500
      7         11           0       15.025900   19.051000   16.645300
 ---------------------------------------------------------------------
                    Distance matrix (angstroms):
                    1          2          3          4          5
     1  Na   0.000000
     2  Na   3.853258   0.000000
     3  Na   3.723362   3.943178   0.000000
     4  Na   3.609718   6.412262   3.437079   0.000000
     5  Na   4.719378   6.257969   3.404020   3.365677   0.000000
     6  Na   5.707791   3.142238   3.319747   6.630646   6.357431
     7  Na   3.154390   3.432495   5.733119   6.606992   6.519704
                    6          7
     6  Na   0.000000
     7  Na   6.429126   0.000000
 Stoichiometry    Na7(2)
 Framework group  C1[X(Na7)]
 Deg. of freedom    15
 Full point group                 C1      NOp   1
 Largest Abelian subgroup         C1      NOp   1
 Largest concise Abelian subgroup C1      NOp   1
                         Standard orientation:                         
 ---------------------------------------------------------------------
 Center     Atomic      Atomic             Coordinates (Angstroms)
 Number     Number       Type             X           Y           Z
 ---------------------------------------------------------------------
      1         11           0       -0.044198   -1.944036   -0.968896
      2         11           0        2.878084    0.338165    0.079639
      3         11           0       -0.849016    1.601732   -0.166884
      4         11           0       -3.321482   -0.477334   -1.340729
      5         11           0       -3.089781    0.165014    1.954947
      6         11           0        1.981119    3.336655   -0.199953
      7         11           0        2.445273   -3.020196    0.641877
 ---------------------------------------------------------------------
 Rotational constants (GHZ):           0.6462973           0.4724061           0.3307748
 Leave Link  202 at Wed Nov 29 03:22:31 2023, MaxMem=  1879048192 cpu:               0.0 elap:               0.0
 (Enter /home/sekinelabo/g16/l301.exe)
 Standard basis: 6-311+G(d) (5D, 7F)
 Ernie: Thresh=  0.10000D-02 Tol=  0.10000D-05 Strict=F.
 There are   217 symmetry adapted cartesian basis functions of A   symmetry.
 There are   210 symmetry adapted basis functions of A   symmetry.
   210 basis functions,   350 primitive gaussians,   217 cartesian basis functions
    39 alpha electrons       38 beta electrons
       nuclear repulsion energy       308.2449163732 Hartrees.
 IExCor=  402 DFT=T Ex+Corr=B3LYP ExCW=0 ScaHFX=  0.200000
 ScaDFX=  0.800000  0.720000  1.000000  0.810000 ScalE2=  1.000000  1.000000
 IRadAn=      5 IRanWt=     -1 IRanGd=            0 ICorTp=0 IEmpDi=  4
 NAtoms=    7 NActive=    7 NUniq=    7 SFac= 1.00D+00 NAtFMM=   60 NAOKFM=F Big=F
 Integral buffers will be    131072 words long.
 Raffenetti 2 integral format.
 Two-electron integral symmetry is turned on.
 Leave Link  301 at Wed Nov 29 03:22:31 2023, MaxMem=  1879048192 cpu:               0.5 elap:               0.0
 (Enter /home/sekinelabo/g16/l302.exe)
 NPDir=0 NMtPBC=     1 NCelOv=     1 NCel=       1 NClECP=     1 NCelD=      1
         NCelK=      1 NCelE2=     1 NClLst=     1 CellRange=     0.0.
 One-electron integrals computed using PRISM.
 One-electron integral symmetry used in STVInt
 NBasis=   210 RedAO= T EigKep=  8.81D-06  NBF=   210
 NBsUse=   210 1.00D-06 EigRej= -1.00D+00 NBFU=   210
 Precomputing XC quadrature grid using
 IXCGrd= 4 IRadAn=           5 IRanWt=          -1 IRanGd=           0 AccXCQ= 0.00D+00.
 Generated NRdTot=       0 NPtTot=           0 NUsed=           0 NTot=          32
 NSgBfM=   208   208   208   208   208 MxSgAt=     7 MxSgA2=     7.
 Leave Link  302 at Wed Nov 29 03:22:31 2023, MaxMem=  1879048192 cpu:               2.0 elap:               0.1
 (Enter /home/sekinelabo/g16/l303.exe)
 DipDrv:  MaxL=1.
 Leave Link  303 at Wed Nov 29 03:22:31 2023, MaxMem=  1879048192 cpu:               0.5 elap:               0.0
 (Enter /home/sekinelabo/g16/l401.exe)
 ExpMin= 7.60D-03 ExpMax= 3.62D+04 ExpMxC= 1.21D+03 IAcc=3 IRadAn=         5 AccDes= 0.00D+00
 Harris functional with IExCor=  402 and IRadAn=       5 diagonalized for initial guess.
 HarFok:  IExCor=  402 AccDes= 0.00D+00 IRadAn=         5 IDoV= 1 UseB2=F ITyADJ=14
 ICtDFT=  3500011 ScaDFX=  1.000000  1.000000  1.000000  1.000000
 FoFCou: FMM=F IPFlag=           0 FMFlag=      100000 FMFlg1=           0
         NFxFlg=           0 DoJE=T BraDBF=F KetDBF=T FulRan=T
         wScrn=  0.000000 ICntrl=       500 IOpCl=  0 I1Cent=   200000004 NGrid=           0
         NMat0=    1 NMatS0=      1 NMatT0=    0 NMatD0=    1 NMtDS0=    0 NMtDT0=    0
 Petite list used in FoFCou.
 Harris En= -1135.89523196382    
 JPrj=0 DoOrth=F DoCkMO=F.
 Initial guess <Sx>= 0.0000 <Sy>= 0.0000 <Sz>= 0.5000 <S**2>= 0.7500 S= 0.5000
 Leave Link  401 at Wed Nov 29 03:22:31 2023, MaxMem=  1879048192 cpu:               4.3 elap:               0.3
 (Enter /home/sekinelabo/g16/l502.exe)
 Keep R1 and R2 ints in memory in canonical form, NReq=506573307.
 FoFCou: FMM=F IPFlag=           0 FMFlag=           0 FMFlg1=           0
         NFxFlg=           0 DoJE=F BraDBF=F KetDBF=F FulRan=T
         wScrn=  0.000000 ICntrl=       600 IOpCl=  0 I1Cent=           0 NGrid=           0
         NMat0=    1 NMatS0=  22155 NMatT0=    0 NMatD0=    1 NMtDS0=    0 NMtDT0=    0
 Symmetry not used in FoFCou.
 Two-electron integral symmetry not used.
 UHF open shell SCF:
 Using DIIS extrapolation, IDIIS=  1040.
 NGot=  1879048192 LenX=  1388082593 LenY=  1388035063
 Requested convergence on RMS density matrix=1.00D-08 within 128 cycles.
 Requested convergence on MAX density matrix=1.00D-06.
 Requested convergence on             energy=1.00D-06.
 No special actions if energy rises.

 Cycle   1  Pass 1  IDiag  1:
 E= -1136.09902912439    
 DIIS: error= 9.37D-03 at cycle   1 NSaved=   1.
 NSaved= 1 IEnMin= 1 EnMin= -1136.09902912439     IErMin= 1 ErrMin= 9.37D-03
 ErrMax= 9.37D-03  0.00D+00 EMaxC= 1.00D-01 BMatC= 1.84D-01 BMatP= 1.84D-01
 IDIUse=3 WtCom= 9.06D-01 WtEn= 9.37D-02
 Coeff-Com:  0.100D+01
 Coeff-En:   0.100D+01
 Coeff:      0.100D+01
 Gap=     0.037 Goal=   None    Shift=    0.000
 Gap=     0.054 Goal=   None    Shift=    0.000
 GapD=    0.037 DampG=0.250 DampE=1.000 DampFc=0.2500 IDamp=-1.
 Damping current iteration by 2.50D-01
 RMSDP=8.63D-03 MaxDP=5.33D-01              OVMax= 2.00D-01

 Cycle   2  Pass 1  IDiag  1:
 E= -1136.10889362025     Delta-E=       -0.009864495856 Rises=F Damp=T
 DIIS: error= 6.51D-03 at cycle   2 NSaved=   2.
 NSaved= 2 IEnMin= 2 EnMin= -1136.10889362025     IErMin= 2 ErrMin= 6.51D-03
 ErrMax= 6.51D-03  0.00D+00 EMaxC= 1.00D-01 BMatC= 7.09D-02 BMatP= 1.84D-01
 IDIUse=3 WtCom= 9.35D-01 WtEn= 6.51D-02
 Coeff-Com: -0.129D+01 0.229D+01
 Coeff-En:   0.000D+00 0.100D+01
 Coeff:     -0.120D+01 0.220D+01
 Gap=     0.040 Goal=   None    Shift=    0.000
 Gap=     0.063 Goal=   None    Shift=    0.000
 RMSDP=5.86D-03 MaxDP=4.71D-01 DE=-9.86D-03 OVMax= 1.26D-01

 Cycle   3  Pass 1  IDiag  1:
 E= -1136.12718026990     Delta-E=       -0.018286649648 Rises=F Damp=F
 DIIS: error= 1.92D-03 at cycle   3 NSaved=   3.
 NSaved= 3 IEnMin= 3 EnMin= -1136.12718026990     IErMin= 3 ErrMin= 1.92D-03
 ErrMax= 1.92D-03  0.00D+00 EMaxC= 1.00D-01 BMatC= 1.35D-03 BMatP= 7.09D-02
 IDIUse=3 WtCom= 9.81D-01 WtEn= 1.92D-02
 Coeff-Com: -0.134D+00 0.229D+00 0.905D+00
 Coeff-En:   0.000D+00 0.000D+00 0.100D+01
 Coeff:     -0.131D+00 0.225D+00 0.907D+00
 Gap=     0.041 Goal=   None    Shift=    0.000
 Gap=     0.059 Goal=   None    Shift=    0.000
 RMSDP=1.83D-03 MaxDP=9.41D-02 DE=-1.83D-02 OVMax= 6.07D-02

 Cycle   4  Pass 1  IDiag  1:
 E= -1136.12709746395     Delta-E=        0.000082805946 Rises=F Damp=F
 DIIS: error= 1.98D-03 at cycle   4 NSaved=   4.
 NSaved= 4 IEnMin= 3 EnMin= -1136.12718026990     IErMin= 3 ErrMin= 1.92D-03
 ErrMax= 1.98D-03  0.00D+00 EMaxC= 1.00D-01 BMatC= 1.58D-03 BMatP= 1.35D-03
 IDIUse=3 WtCom= 1.83D-01 WtEn= 8.17D-01
 Coeff-Com: -0.980D-02 0.121D-01 0.520D+00 0.478D+00
 Coeff-En:   0.000D+00 0.000D+00 0.515D+00 0.485D+00
 Coeff:     -0.180D-02 0.222D-02 0.516D+00 0.484D+00
 Gap=     0.041 Goal=   None    Shift=    0.000
 Gap=     0.061 Goal=   None    Shift=    0.000
 RMSDP=9.95D-04 MaxDP=5.48D-02 DE= 8.28D-05 OVMax= 2.87D-02

 Cycle   5  Pass 1  IDiag  1:
 E= -1136.12843260060     Delta-E=       -0.001335136651 Rises=F Damp=F
 DIIS: error= 8.78D-05 at cycle   5 NSaved=   5.
 NSaved= 5 IEnMin= 5 EnMin= -1136.12843260060     IErMin= 5 ErrMin= 8.78D-05
 ErrMax= 8.78D-05  0.00D+00 EMaxC= 1.00D-01 BMatC= 4.80D-06 BMatP= 1.35D-03
 IDIUse=1 WtCom= 1.00D+00 WtEn= 0.00D+00
 Coeff-Com:  0.564D-02-0.828D-02 0.157D-01 0.287D-01 0.958D+00
 Coeff:      0.564D-02-0.828D-02 0.157D-01 0.287D-01 0.958D+00
 Gap=     0.041 Goal=   None    Shift=    0.000
 Gap=     0.061 Goal=   None    Shift=    0.000
 RMSDP=1.80D-04 MaxDP=1.03D-02 DE=-1.34D-03 OVMax= 6.59D-03

 Cycle   6  Pass 1  IDiag  1:
 E= -1136.12844455916     Delta-E=       -0.000011958563 Rises=F Damp=F
 DIIS: error= 7.86D-05 at cycle   6 NSaved=   6.
 NSaved= 6 IEnMin= 6 EnMin= -1136.12844455916     IErMin= 6 ErrMin= 7.86D-05
 ErrMax= 7.86D-05  0.00D+00 EMaxC= 1.00D-01 BMatC= 3.23D-06 BMatP= 4.80D-06
 IDIUse=1 WtCom= 1.00D+00 WtEn= 0.00D+00
 Coeff-Com:  0.482D-02-0.670D-02-0.913D-01-0.762D-01 0.519D+00 0.650D+00
 Coeff:      0.482D-02-0.670D-02-0.913D-01-0.762D-01 0.519D+00 0.650D+00
 Gap=     0.041 Goal=   None    Shift=    0.000
 Gap=     0.061 Goal=   None    Shift=    0.000
 RMSDP=7.93D-05 MaxDP=2.94D-03 DE=-1.20D-05 OVMax= 5.35D-03

 Cycle   7  Pass 1  IDiag  1:
 E= -1136.12845088881     Delta-E=       -0.000006329646 Rises=F Damp=F
 DIIS: error= 3.48D-05 at cycle   7 NSaved=   7.
 NSaved= 7 IEnMin= 7 EnMin= -1136.12845088881     IErMin= 7 ErrMin= 3.48D-05
 ErrMax= 3.48D-05  0.00D+00 EMaxC= 1.00D-01 BMatC= 4.60D-07 BMatP= 3.23D-06
 IDIUse=1 WtCom= 1.00D+00 WtEn= 0.00D+00
 Coeff-Com:  0.765D-03-0.966D-03-0.329D-01-0.300D-01-0.534D-01 0.220D+00
 Coeff-Com:  0.897D+00
 Coeff:      0.765D-03-0.966D-03-0.329D-01-0.300D-01-0.534D-01 0.220D+00
 Coeff:      0.897D+00
 Gap=     0.041 Goal=   None    Shift=    0.000
 Gap=     0.061 Goal=   None    Shift=    0.000
 RMSDP=5.76D-05 MaxDP=3.52D-03 DE=-6.33D-06 OVMax= 3.20D-03

 Cycle   8  Pass 1  IDiag  1:
 E= -1136.12845269741     Delta-E=       -0.000001808597 Rises=F Damp=F
 DIIS: error= 2.11D-05 at cycle   8 NSaved=   8.
 NSaved= 8 IEnMin= 8 EnMin= -1136.12845269741     IErMin= 8 ErrMin= 2.11D-05
 ErrMax= 2.11D-05  0.00D+00 EMaxC= 1.00D-01 BMatC= 1.32D-07 BMatP= 4.60D-07
 IDIUse=1 WtCom= 1.00D+00 WtEn= 0.00D+00
 Coeff-Com: -0.209D-03 0.366D-03 0.127D-02-0.691D-03-0.118D+00-0.268D-01
 Coeff-Com:  0.392D+00 0.752D+00
 Coeff:     -0.209D-03 0.366D-03 0.127D-02-0.691D-03-0.118D+00-0.268D-01
 Coeff:      0.392D+00 0.752D+00
 Gap=     0.041 Goal=   None    Shift=    0.000
 Gap=     0.061 Goal=   None    Shift=    0.000
 RMSDP=2.74D-05 MaxDP=2.18D-03 DE=-1.81D-06 OVMax= 1.91D-03

 Cycle   9  Pass 1  IDiag  1:
 E= -1136.12845317728     Delta-E=       -0.000000479872 Rises=F Damp=F
 DIIS: error= 1.12D-05 at cycle   9 NSaved=   9.
 NSaved= 9 IEnMin= 9 EnMin= -1136.12845317728     IErMin= 9 ErrMin= 1.12D-05
 ErrMax= 1.12D-05  0.00D+00 EMaxC= 1.00D-01 BMatC= 3.02D-08 BMatP= 1.32D-07
 IDIUse=1 WtCom= 1.00D+00 WtEn= 0.00D+00
 Coeff-Com: -0.160D-03 0.230D-03 0.963D-02 0.745D-02-0.173D-01-0.665D-01
 Coeff-Com: -0.146D+00 0.199D+00 0.101D+01
 Coeff:     -0.160D-03 0.230D-03 0.963D-02 0.745D-02-0.173D-01-0.665D-01
 Coeff:     -0.146D+00 0.199D+00 0.101D+01
 Gap=     0.041 Goal=   None    Shift=    0.000
 Gap=     0.061 Goal=   None    Shift=    0.000
 RMSDP=2.14D-05 MaxDP=1.77D-03 DE=-4.80D-07 OVMax= 1.39D-03

 Cycle  10  Pass 1  IDiag  1:
 E= -1136.12845336082     Delta-E=       -0.000000183537 Rises=F Damp=F
 DIIS: error= 6.66D-06 at cycle  10 NSaved=  10.
 NSaved=10 IEnMin=10 EnMin= -1136.12845336082     IErMin=10 ErrMin= 6.66D-06
 ErrMax= 6.66D-06  0.00D+00 EMaxC= 1.00D-01 BMatC= 9.38D-09 BMatP= 3.02D-08
 IDIUse=1 WtCom= 1.00D+00 WtEn= 0.00D+00
 Coeff-Com: -0.115D-03 0.141D-03 0.413D-02 0.354D-02 0.210D-01-0.222D-01
 Coeff-Com: -0.165D+00-0.903D-01 0.429D+00 0.819D+00
 Coeff:     -0.115D-03 0.141D-03 0.413D-02 0.354D-02 0.210D-01-0.222D-01
 Coeff:     -0.165D+00-0.903D-01 0.429D+00 0.819D+00
 Gap=     0.041 Goal=   None    Shift=    0.000
 Gap=     0.061 Goal=   None    Shift=    0.000
 RMSDP=1.02D-05 MaxDP=7.58D-04 DE=-1.84D-07 OVMax= 6.91D-04

 Cycle  11  Pass 1  IDiag  1:
 E= -1136.12845340462     Delta-E=       -0.000000043805 Rises=F Damp=F
 DIIS: error= 3.73D-06 at cycle  11 NSaved=  11.
 NSaved=11 IEnMin=11 EnMin= -1136.12845340462     IErMin=11 ErrMin= 3.73D-06
 ErrMax= 3.73D-06  0.00D+00 EMaxC= 1.00D-01 BMatC= 2.80D-09 BMatP= 9.38D-09
 IDIUse=1 WtCom= 1.00D+00 WtEn= 0.00D+00
 Coeff-Com: -0.712D-04 0.832D-04-0.549D-03-0.115D-03 0.127D-01 0.790D-02
 Coeff-Com: -0.318D-01-0.893D-01-0.120D+00 0.396D+00 0.825D+00
 Coeff:     -0.712D-04 0.832D-04-0.549D-03-0.115D-03 0.127D-01 0.790D-02
 Coeff:     -0.318D-01-0.893D-01-0.120D+00 0.396D+00 0.825D+00
 Gap=     0.041 Goal=   None    Shift=    0.000
 Gap=     0.061 Goal=   None    Shift=    0.000
 RMSDP=5.61D-06 MaxDP=4.57D-04 DE=-4.38D-08 OVMax= 3.20D-04

 Cycle  12  Pass 1  IDiag  1:
 E= -1136.12845341585     Delta-E=       -0.000000011230 Rises=F Damp=F
 DIIS: error= 9.66D-07 at cycle  12 NSaved=  12.
 NSaved=12 IEnMin=12 EnMin= -1136.12845341585     IErMin=12 ErrMin= 9.66D-07
 ErrMax= 9.66D-07  0.00D+00 EMaxC= 1.00D-01 BMatC= 3.78D-10 BMatP= 2.80D-09
 IDIUse=1 WtCom= 1.00D+00 WtEn= 0.00D+00
 Coeff-Com:  0.101D-04-0.160D-04-0.824D-03-0.529D-03 0.206D-03 0.550D-02
 Coeff-Com:  0.181D-01-0.869D-02-0.110D+00-0.318D-01 0.252D+00 0.876D+00
 Coeff:      0.101D-04-0.160D-04-0.824D-03-0.529D-03 0.206D-03 0.550D-02
 Coeff:      0.181D-01-0.869D-02-0.110D+00-0.318D-01 0.252D+00 0.876D+00
 Gap=     0.041 Goal=   None    Shift=    0.000
 Gap=     0.061 Goal=   None    Shift=    0.000
 RMSDP=1.99D-06 MaxDP=1.39D-04 DE=-1.12D-08 OVMax= 8.97D-05

 Cycle  13  Pass 1  IDiag  1:
 E= -1136.12845341765     Delta-E=       -0.000000001798 Rises=F Damp=F
 DIIS: error= 4.16D-07 at cycle  13 NSaved=  13.
 NSaved=13 IEnMin=13 EnMin= -1136.12845341765     IErMin=13 ErrMin= 4.16D-07
 ErrMax= 4.16D-07  0.00D+00 EMaxC= 1.00D-01 BMatC= 7.90D-11 BMatP= 3.78D-10
 IDIUse=1 WtCom= 1.00D+00 WtEn= 0.00D+00
 Coeff-Com:  0.248D-04-0.306D-04 0.955D-04 0.163D-04-0.330D-02-0.135D-02
 Coeff-Com:  0.102D-01 0.162D-01 0.214D-01-0.946D-01-0.172D+00 0.607D-01
 Coeff-Com:  0.116D+01
 Coeff:      0.248D-04-0.306D-04 0.955D-04 0.163D-04-0.330D-02-0.135D-02
 Coeff:      0.102D-01 0.162D-01 0.214D-01-0.946D-01-0.172D+00 0.607D-01
 Coeff:      0.116D+01
 Gap=     0.041 Goal=   None    Shift=    0.000
 Gap=     0.061 Goal=   None    Shift=    0.000
 RMSDP=1.35D-06 MaxDP=9.77D-05 DE=-1.80D-09 OVMax= 5.72D-05

 Cycle  14  Pass 1  IDiag  1:
 E= -1136.12845341828     Delta-E=       -0.000000000634 Rises=F Damp=F
 DIIS: error= 2.07D-07 at cycle  14 NSaved=  14.
 NSaved=14 IEnMin=14 EnMin= -1136.12845341828     IErMin=14 ErrMin= 2.07D-07
 ErrMax= 2.07D-07  0.00D+00 EMaxC= 1.00D-01 BMatC= 1.89D-11 BMatP= 7.90D-11
 IDIUse=1 WtCom= 1.00D+00 WtEn= 0.00D+00
 Coeff-Com: -0.659D-05 0.908D-05 0.107D-03 0.537D-04 0.785D-03-0.104D-02
 Coeff-Com: -0.633D-02-0.110D-02 0.252D-01 0.229D-01-0.414D-01-0.232D+00
 Coeff-Com: -0.158D+00 0.139D+01
 Coeff:     -0.659D-05 0.908D-05 0.107D-03 0.537D-04 0.785D-03-0.104D-02
 Coeff:     -0.633D-02-0.110D-02 0.252D-01 0.229D-01-0.414D-01-0.232D+00
 Coeff:     -0.158D+00 0.139D+01
 Gap=     0.041 Goal=   None    Shift=    0.000
 Gap=     0.061 Goal=   None    Shift=    0.000
 RMSDP=8.83D-07 MaxDP=4.85D-05 DE=-6.34D-10 OVMax= 3.85D-05

 Cycle  15  Pass 1  IDiag  1:
 E= -1136.12845341851     Delta-E=       -0.000000000228 Rises=F Damp=F
 DIIS: error= 9.55D-08 at cycle  15 NSaved=  15.
 NSaved=15 IEnMin=15 EnMin= -1136.12845341851     IErMin=15 ErrMin= 9.55D-08
 ErrMax= 9.55D-08  0.00D+00 EMaxC= 1.00D-01 BMatC= 5.17D-12 BMatP= 1.89D-11
 IDIUse=1 WtCom= 1.00D+00 WtEn= 0.00D+00
 Coeff-Com: -0.114D-04 0.146D-04 0.220D-04 0.233D-04 0.987D-03 0.850D-04
 Coeff-Com: -0.396D-02-0.425D-02-0.167D-02 0.320D-01 0.429D-01-0.566D-01
 Coeff-Com: -0.365D+00 0.306D+00 0.105D+01
 Coeff:     -0.114D-04 0.146D-04 0.220D-04 0.233D-04 0.987D-03 0.850D-04
 Coeff:     -0.396D-02-0.425D-02-0.167D-02 0.320D-01 0.429D-01-0.566D-01
 Coeff:     -0.365D+00 0.306D+00 0.105D+01
 Gap=     0.041 Goal=   None    Shift=    0.000
 Gap=     0.061 Goal=   None    Shift=    0.000
 RMSDP=3.93D-07 MaxDP=1.83D-05 DE=-2.28D-10 OVMax= 1.82D-05

 Cycle  16  Pass 1  IDiag  1:
 E= -1136.12845341855     Delta-E=       -0.000000000042 Rises=F Damp=F
 DIIS: error= 4.11D-08 at cycle  16 NSaved=  16.
 NSaved=16 IEnMin=16 EnMin= -1136.12845341855     IErMin=16 ErrMin= 4.11D-08
 ErrMax= 4.11D-08  0.00D+00 EMaxC= 1.00D-01 BMatC= 8.63D-13 BMatP= 5.17D-12
 IDIUse=1 WtCom= 1.00D+00 WtEn= 0.00D+00
 Coeff-Com:  0.377D-06-0.718D-06-0.190D-04-0.715D-06-0.148D-04 0.241D-03
 Coeff-Com:  0.773D-03-0.561D-03-0.587D-02 0.197D-03 0.160D-01 0.382D-01
 Coeff-Com: -0.340D-02-0.288D+00 0.111D+00 0.113D+01
 Coeff:      0.377D-06-0.718D-06-0.190D-04-0.715D-06-0.148D-04 0.241D-03
 Coeff:      0.773D-03-0.561D-03-0.587D-02 0.197D-03 0.160D-01 0.382D-01
 Coeff:     -0.340D-02-0.288D+00 0.111D+00 0.113D+01
 Gap=     0.041 Goal=   None    Shift=    0.000
 Gap=     0.061 Goal=   None    Shift=    0.000
 RMSDP=1.91D-07 MaxDP=8.36D-06 DE=-4.18D-11 OVMax= 9.20D-06

 Cycle  17  Pass 1  IDiag  1:
 E= -1136.12845341857     Delta-E=       -0.000000000021 Rises=F Damp=F
 DIIS: error= 1.74D-08 at cycle  17 NSaved=  17.
 NSaved=17 IEnMin=17 EnMin= -1136.12845341857     IErMin=17 ErrMin= 1.74D-08
 ErrMax= 1.74D-08  0.00D+00 EMaxC= 1.00D-01 BMatC= 1.05D-13 BMatP= 8.63D-13
 IDIUse=1 WtCom= 1.00D+00 WtEn= 0.00D+00
 Coeff-Com:  0.191D-05-0.246D-05-0.375D-05-0.506D-05-0.169D-03-0.173D-05
 Coeff-Com:  0.631D-03 0.492D-03 0.782D-03-0.504D-02-0.771D-02 0.632D-02
 Coeff-Com:  0.538D-01-0.340D-01-0.142D+00-0.570D-01 0.118D+01
 Coeff:      0.191D-05-0.246D-05-0.375D-05-0.506D-05-0.169D-03-0.173D-05
 Coeff:      0.631D-03 0.492D-03 0.782D-03-0.504D-02-0.771D-02 0.632D-02
 Coeff:      0.538D-01-0.340D-01-0.142D+00-0.570D-01 0.118D+01
 Gap=     0.041 Goal=   None    Shift=    0.000
 Gap=     0.061 Goal=   None    Shift=    0.000
 RMSDP=6.91D-08 MaxDP=3.57D-06 DE=-2.14D-11 OVMax= 2.44D-06

 Cycle  18  Pass 1  IDiag  1:
 E= -1136.12845341857     Delta-E=        0.000000000007 Rises=F Damp=F
 DIIS: error= 5.80D-09 at cycle  18 NSaved=  18.
 NSaved=18 IEnMin=17 EnMin= -1136.12845341857     IErMin=18 ErrMin= 5.80D-09
 ErrMax= 5.80D-09  0.00D+00 EMaxC= 1.00D-01 BMatC= 1.65D-14 BMatP= 1.05D-13
 IDIUse=1 WtCom= 1.00D+00 WtEn= 0.00D+00
 Coeff-Com: -0.153D-06 0.228D-06 0.134D-05-0.482D-06 0.118D-04-0.461D-04
 Coeff-Com: -0.975D-04 0.124D-03 0.490D-03 0.119D-04-0.139D-02-0.434D-02
 Coeff-Com: -0.872D-03 0.379D-01-0.184D-01-0.138D+00-0.592D-01 0.118D+01
 Coeff:     -0.153D-06 0.228D-06 0.134D-05-0.482D-06 0.118D-04-0.461D-04
 Coeff:     -0.975D-04 0.124D-03 0.490D-03 0.119D-04-0.139D-02-0.434D-02
 Coeff:     -0.872D-03 0.379D-01-0.184D-01-0.138D+00-0.592D-01 0.118D+01
 Gap=     0.041 Goal=   None    Shift=    0.000
 Gap=     0.061 Goal=   None    Shift=    0.000
 RMSDP=2.85D-08 MaxDP=1.62D-06 DE= 7.28D-12 OVMax= 7.96D-07

 Cycle  19  Pass 1  IDiag  1:
 E= -1136.12845341857     Delta-E=       -0.000000000006 Rises=F Damp=F
 DIIS: error= 2.39D-09 at cycle  19 NSaved=  19.
 NSaved=19 IEnMin=17 EnMin= -1136.12845341857     IErMin=19 ErrMin= 2.39D-09
 ErrMax= 2.39D-09  0.00D+00 EMaxC= 1.00D-01 BMatC= 3.03D-15 BMatP= 1.65D-14
 IDIUse=1 WtCom= 1.00D+00 WtEn= 0.00D+00
 Large coefficients: NSaved= 19 BigCof=    0.00 CofMax=   10.00 Det=-6.02D-15
 Inversion failed.  Reducing to 18 matrices.
 Large coefficients: NSaved= 18 BigCof=    0.00 CofMax=   10.00 Det=-6.10D-15
 Inversion failed.  Reducing to 17 matrices.
 Large coefficients: NSaved= 17 BigCof=    0.00 CofMax=   10.00 Det=-6.10D-15
 Inversion failed.  Reducing to 16 matrices.
 Large coefficients: NSaved= 16 BigCof=    0.00 CofMax=   10.00 Det=-6.13D-15
 Inversion failed.  Reducing to 15 matrices.
 Coeff-Com:  0.102D-04-0.220D-05-0.379D-04-0.189D-04 0.739D-04 0.174D-03
 Coeff-Com:  0.323D-04-0.552D-03-0.195D-02 0.493D-02 0.412D-02-0.465D-02
 Coeff-Com: -0.116D+00 0.145D+00 0.969D+00
 Coeff:      0.102D-04-0.220D-05-0.379D-04-0.189D-04 0.739D-04 0.174D-03
 Coeff:      0.323D-04-0.552D-03-0.195D-02 0.493D-02 0.412D-02-0.465D-02
 Coeff:     -0.116D+00 0.145D+00 0.969D+00
 Gap=     0.041 Goal=   None    Shift=    0.000
 Gap=     0.061 Goal=   None    Shift=    0.000
 RMSDP=8.08D-09 MaxDP=4.22D-07 DE=-5.91D-12 OVMax= 2.80D-07

 SCF Done:  E(UB3LYP) =  -1136.12845342     A.U. after   19 cycles
            NFock= 19  Conv=0.81D-08     -V/T= 2.0028
 <Sx>= 0.0000 <Sy>= 0.0000 <Sz>= 0.5000 <S**2>= 0.7668 S= 0.5084
 <L.S>= 0.000000000000E+00
 KE= 1.132927710791D+03 PE=-3.345837805636D+03 EE= 7.685367250529D+02
 Annihilation of the first spin contaminant:
 S**2 before annihilation     0.7668,   after     0.7501
 Leave Link  502 at Wed Nov 29 03:22:47 2023, MaxMem=  1879048192 cpu:             174.8 elap:              15.8
 (Enter /home/sekinelabo/g16/l601.exe)
 Copying SCF densities to generalized density rwf, IOpCl= 1 IROHF=0.

 **********************************************************************

            Population analysis using the SCF Density.

 **********************************************************************

 Orbital symmetries:
 Alpha Orbitals:
       Occupied  (A) (A) (A) (A) (A) (A) (A) (A) (A) (A) (A) (A)
                 (A) (A) (A) (A) (A) (A) (A) (A) (A) (A) (A) (A)
                 (A) (A) (A) (A) (A) (A) (A) (A) (A) (A) (A) (A)
                 (A) (A) (A)
       Virtual   (A) (A) (A) (A) (A) (A) (A) (A) (A) (A) (A) (A)
                 (A) (A) (A) (A) (A) (A) (A) (A) (A) (A) (A) (A)
                 (A) (A) (A) (A) (A) (A) (A) (A) (A) (A) (A) (A)
                 (A) (A) (A) (A) (A) (A) (A) (A) (A) (A) (A) (A)
                 (A) (A) (A) (A) (A) (A) (A) (A) (A) (A) (A) (A)
                 (A) (A) (A) (A) (A) (A) (A) (A) (A) (A) (A) (A)
                 (A) (A) (A) (A) (A) (A) (A) (A) (A) (A) (A) (A)
                 (A) (A) (A) (A) (A) (A) (A) (A) (A) (A) (A) (A)
                 (A) (A) (A) (A) (A) (A) (A) (A) (A) (A) (A) (A)
                 (A) (A) (A) (A) (A) (A) (A) (A) (A) (A) (A) (A)
                 (A) (A) (A) (A) (A) (A) (A) (A) (A) (A) (A) (A)
                 (A) (A) (A) (A) (A) (A) (A) (A) (A) (A) (A) (A)
                 (A) (A) (A) (A) (A) (A) (A) (A) (A) (A) (A) (A)
                 (A) (A) (A) (A) (A) (A) (A) (A) (A) (A) (A) (A)
                 (A) (A) (A)
 Beta  Orbitals:
       Occupied  (A) (A) (A) (A) (A) (A) (A) (A) (A) (A) (A) (A)
                 (A) (A) (A) (A) (A) (A) (A) (A) (A) (A) (A) (A)
                 (A) (A) (A) (A) (A) (A) (A) (A) (A) (A) (A) (A)
                 (A) (A)
       Virtual   (A) (A) (A) (A) (A) (A) (A) (A) (A) (A) (A) (A)
                 (A) (A) (A) (A) (A) (A) (A) (A) (A) (A) (A) (A)
                 (A) (A) (A) (A) (A) (A) (A) (A) (A) (A) (A) (A)
                 (A) (A) (A) (A) (A) (A) (A) (A) (A) (A) (A) (A)
                 (A) (A) (A) (A) (A) (A) (A) (A) (A) (A) (A) (A)
                 (A) (A) (A) (A) (A) (A) (A) (A) (A) (A) (A) (A)
                 (A) (A) (A) (A) (A) (A) (A) (A) (A) (A) (A) (A)
                 (A) (A) (A) (A) (A) (A) (A) (A) (A) (A) (A) (A)
                 (A) (A) (A) (A) (A) (A) (A) (A) (A) (A) (A) (A)
                 (A) (A) (A) (A) (A) (A) (A) (A) (A) (A) (A) (A)
                 (A) (A) (A) (A) (A) (A) (A) (A) (A) (A) (A) (A)
                 (A) (A) (A) (A) (A) (A) (A) (A) (A) (A) (A) (A)
                 (A) (A) (A) (A) (A) (A) (A) (A) (A) (A) (A) (A)
                 (A) (A) (A) (A) (A) (A) (A) (A) (A) (A) (A) (A)
                 (A) (A) (A) (A)
 The electronic state is 2-A.
 Alpha  occ. eigenvalues --  -38.44362 -38.44300 -38.44106 -38.43764 -38.43744
 Alpha  occ. eigenvalues --  -38.43477 -38.43458  -2.20211  -2.20148  -2.19977
 Alpha  occ. eigenvalues --   -2.19622  -2.19600  -2.19324  -2.19300  -1.13890
 Alpha  occ. eigenvalues --   -1.13859  -1.13851  -1.13842  -1.13831  -1.13775
 Alpha  occ. eigenvalues --   -1.13693  -1.13676  -1.13578  -1.13316  -1.13305
 Alpha  occ. eigenvalues --   -1.13252  -1.13249  -1.13232  -1.13204  -1.12995
 Alpha  occ. eigenvalues --   -1.12968  -1.12965  -1.12958  -1.12946  -1.12927
 Alpha  occ. eigenvalues --   -0.17432  -0.14127  -0.12720  -0.10275
 Alpha virt. eigenvalues --   -0.06154  -0.05234  -0.05178  -0.03679  -0.02412
 Alpha virt. eigenvalues --   -0.02218  -0.01980  -0.01380  -0.01069  -0.00441
 Alpha virt. eigenvalues --   -0.00169   0.00176   0.00361   0.00547   0.00685
 Alpha virt. eigenvalues --    0.00772   0.00797   0.01017   0.01124   0.01223
 Alpha virt. eigenvalues --    0.01429   0.01486   0.01665   0.01856   0.02011
 Alpha virt. eigenvalues --    0.02125   0.02299   0.02407   0.02518   0.02553
 Alpha virt. eigenvalues --    0.02775   0.02870   0.02967   0.03000   0.03060
 Alpha virt. eigenvalues --    0.03118   0.03248   0.03298   0.03379   0.03516
 Alpha virt. eigenvalues --    0.03820   0.04154   0.04232   0.04315   0.04504
 Alpha virt. eigenvalues --    0.04666   0.04957   0.05040   0.05516   0.05703
 Alpha virt. eigenvalues --    0.06080   0.06350   0.06671   0.06962   0.07146
 Alpha virt. eigenvalues --    0.07713   0.07931   0.07998   0.08491   0.08610
 Alpha virt. eigenvalues --    0.09202   0.09732   0.09985   0.10364   0.10659
 Alpha virt. eigenvalues --    0.10908   0.11540   0.11621   0.11770   0.12800
 Alpha virt. eigenvalues --    0.13001   0.13496   0.13624   0.13906   0.14054
 Alpha virt. eigenvalues --    0.14538   0.15067   0.15842   0.17408   0.17869
 Alpha virt. eigenvalues --    0.26024   0.26723   0.28147   0.28765   0.29485
 Alpha virt. eigenvalues --    0.30239   0.30772   0.30996   0.32165   0.32984
 Alpha virt. eigenvalues --    0.33929   0.35111   0.35957   0.36371   0.37899
 Alpha virt. eigenvalues --    0.38401   0.39165   0.39271   0.39749   0.40359
 Alpha virt. eigenvalues --    0.41084   0.41844   0.42916   0.43341   0.44026
 Alpha virt. eigenvalues --    0.44326   0.44478   0.44632   0.45044   0.45315
 Alpha virt. eigenvalues --    0.45555   0.45777   0.45971   0.46305   0.46875
 Alpha virt. eigenvalues --    0.47943   0.48538   0.48890   0.49429   0.49578
 Alpha virt. eigenvalues --    0.50518   0.50892   0.51176   0.52602   0.53063
 Alpha virt. eigenvalues --    0.53970   0.55299   0.56449   0.57275   0.58792
 Alpha virt. eigenvalues --    0.60024   0.61139   0.62067   0.66141   0.69562
 Alpha virt. eigenvalues --    0.70443   2.03608   2.10112   2.13166   2.16052
 Alpha virt. eigenvalues --    2.18694   2.19945   2.21676   4.42393   4.43369
 Alpha virt. eigenvalues --    4.43561   4.43875   4.44375   4.45115   4.45716
 Alpha virt. eigenvalues --    4.46024   4.46382   4.46619   4.47905   4.48663
 Alpha virt. eigenvalues --    4.49215   4.49839   4.50130   4.51699   4.52126
 Alpha virt. eigenvalues --    4.55569   4.57673   4.61402   4.62941  96.23121
 Alpha virt. eigenvalues --   96.31086  96.34827  96.38374  96.41336  96.43004
 Alpha virt. eigenvalues --   96.44789
  Beta  occ. eigenvalues --  -38.44334 -38.44295 -38.44096 -38.43732 -38.43650
  Beta  occ. eigenvalues --  -38.43478 -38.43446  -2.20165  -2.20140  -2.19964
  Beta  occ. eigenvalues --   -2.19565  -2.19423  -2.19326  -2.19276  -1.13862
  Beta  occ. eigenvalues --   -1.13834  -1.13832  -1.13825  -1.13783  -1.13767
  Beta  occ. eigenvalues --   -1.13686  -1.13628  -1.13575  -1.13279  -1.13266
  Beta  occ. eigenvalues --   -1.13196  -1.13129  -1.13109  -1.13092  -1.12997
  Beta  occ. eigenvalues --   -1.12968  -1.12964  -1.12938  -1.12929  -1.12911
  Beta  occ. eigenvalues --   -0.16935  -0.13723  -0.12593
  Beta virt. eigenvalues --   -0.06460  -0.05982  -0.05130  -0.04857  -0.03289
  Beta virt. eigenvalues --   -0.02165  -0.01952  -0.01424  -0.01207  -0.00972
  Beta virt. eigenvalues --   -0.00092   0.00066   0.00303   0.00694   0.00746
  Beta virt. eigenvalues --    0.00789   0.00830   0.00889   0.01069   0.01235
  Beta virt. eigenvalues --    0.01296   0.01538   0.01565   0.01823   0.01875
  Beta virt. eigenvalues --    0.02058   0.02341   0.02372   0.02448   0.02574
  Beta virt. eigenvalues --    0.02766   0.02864   0.02953   0.03027   0.03090
  Beta virt. eigenvalues --    0.03112   0.03177   0.03265   0.03327   0.03414
  Beta virt. eigenvalues --    0.03561   0.03995   0.04252   0.04328   0.04373
  Beta virt. eigenvalues --    0.04626   0.04769   0.05062   0.05097   0.05672
  Beta virt. eigenvalues --    0.05915   0.06165   0.06421   0.06704   0.07067
  Beta virt. eigenvalues --    0.07249   0.07841   0.07981   0.08221   0.08588
  Beta virt. eigenvalues --    0.08858   0.09509   0.09775   0.10067   0.10406
  Beta virt. eigenvalues --    0.10719   0.11127   0.11617   0.11932   0.12095
  Beta virt. eigenvalues --    0.13080   0.13175   0.13622   0.13851   0.14035
  Beta virt. eigenvalues --    0.14236   0.14689   0.15321   0.16113   0.17579
  Beta virt. eigenvalues --    0.17944   0.26255   0.26945   0.28299   0.29019
  Beta virt. eigenvalues --    0.29824   0.30464   0.31006   0.31368   0.32520
  Beta virt. eigenvalues --    0.33087   0.34069   0.35328   0.36271   0.36626
  Beta virt. eigenvalues --    0.38146   0.38536   0.39311   0.39471   0.40283
  Beta virt. eigenvalues --    0.40506   0.41419   0.42004   0.43199   0.43404
  Beta virt. eigenvalues --    0.44149   0.44471   0.44671   0.44890   0.45184
  Beta virt. eigenvalues --    0.45471   0.45692   0.45858   0.46115   0.46450
  Beta virt. eigenvalues --    0.47009   0.48118   0.48782   0.49038   0.49521
  Beta virt. eigenvalues --    0.49658   0.50620   0.51026   0.51300   0.52664
  Beta virt. eigenvalues --    0.53190   0.54120   0.55409   0.56600   0.57396
  Beta virt. eigenvalues --    0.58852   0.60131   0.61410   0.62385   0.66122
  Beta virt. eigenvalues --    0.69657   0.70511   2.03703   2.10282   2.13198
  Beta virt. eigenvalues --    2.16293   2.18741   2.20044   2.21721   4.42408
  Beta virt. eigenvalues --    4.43411   4.43637   4.43913   4.44455   4.45125
  Beta virt. eigenvalues --    4.45741   4.46073   4.46443   4.46657   4.47936
  Beta virt. eigenvalues --    4.48688   4.49269   4.49899   4.50160   4.51724
  Beta virt. eigenvalues --    4.52191   4.55641   4.57678   4.61432   4.62955
  Beta virt. eigenvalues --   96.23153  96.31145  96.34840  96.38445  96.41354
  Beta virt. eigenvalues --   96.43032  96.44809
          Condensed to atoms (all electrons):
               1          2          3          4          5          6
     1  Na  11.411626   0.360523   0.145613  -0.122918  -0.025301   0.007392
     2  Na   0.360523  11.428050   0.534820  -0.059945   0.029435  -0.423067
     3  Na   0.145613   0.534820  12.388615  -0.718099   0.016587  -0.214956
     4  Na  -0.122918  -0.059945  -0.718099  11.039117  -0.012910   0.000479
     5  Na  -0.025301   0.029435   0.016587  -0.012910  10.985518  -0.068445
     6  Na   0.007392  -0.423067  -0.214956   0.000479  -0.068445  10.894356
     7  Na  -0.237901  -0.269297  -0.107248   0.132378  -0.030368   0.133446
               7
     1  Na  -0.237901
     2  Na  -0.269297
     3  Na  -0.107248
     4  Na   0.132378
     5  Na  -0.030368
     6  Na   0.133446
     7  Na  10.712279
          Atomic-Atomic Spin Densities.
               1          2          3          4          5          6
     1  Na   0.203380   0.019962  -0.005995   0.077758  -0.133968  -0.045974
     2  Na   0.019962   0.032147   0.034492  -0.000658  -0.026929  -0.034936
     3  Na  -0.005995   0.034492   0.454741  -0.218855   0.130144   0.027096
     4  Na   0.077758  -0.000658  -0.218855   0.218309  -0.030893  -0.038863
     5  Na  -0.133968  -0.026929   0.130144  -0.030893   0.372205   0.025877
     6  Na  -0.045974  -0.034936   0.027096  -0.038863   0.025877   0.033402
     7  Na   0.032261  -0.014149  -0.065483   0.023177   0.023694   0.045532
               7
     1  Na   0.032261
     2  Na  -0.014149
     3  Na  -0.065483
     4  Na   0.023177
     5  Na   0.023694
     6  Na   0.045532
     7  Na   0.039238
 Mulliken charges and spin densities:
               1          2
     1  Na  -0.539033   0.147424
     2  Na  -0.600519   0.009928
     3  Na  -1.045333   0.356139
     4  Na   0.741898   0.029975
     5  Na   0.105483   0.360130
     6  Na   0.670795   0.012134
     7  Na   0.666710   0.084270
 Sum of Mulliken charges =  -0.00000   1.00000
 Mulliken charges and spin densities with hydrogens summed into heavy atoms:
               1          2
     1  Na  -0.539033   0.147424
     2  Na  -0.600519   0.009928
     3  Na  -1.045333   0.356139
     4  Na   0.741898   0.029975
     5  Na   0.105483   0.360130
     6  Na   0.670795   0.012134
     7  Na   0.666710   0.084270
 Electronic spatial extent (au):  <R**2>=           3033.2064
 Charge=             -0.0000 electrons
 Dipole moment (field-independent basis, Debye):
    X=              0.0924    Y=             -0.0788    Z=             -0.2699  Tot=              0.2960
 Quadrupole moment (field-independent basis, Debye-Ang):
   XX=            -59.0035   YY=            -64.0355   ZZ=            -73.1913
   XY=              2.7632   XZ=              5.0691   YZ=             -3.2247
 Traceless Quadrupole moment (field-independent basis, Debye-Ang):
   XX=              6.4066   YY=              1.3746   ZZ=             -7.7812
   XY=              2.7632   XZ=              5.0691   YZ=             -3.2247
 Octapole moment (field-independent basis, Debye-Ang**2):
  XXX=             -5.9684  YYY=             12.1135  ZZZ=             -0.9856  XYY=             25.7402
  XXY=             -9.3564  XXZ=            -18.5523  XZZ=             -4.3431  YZZ=             -4.7401
  YYZ=              1.7701  XYZ=             -3.0357
 Hexadecapole moment (field-independent basis, Debye-Ang**3):
 XXXX=          -2409.3699 YYYY=          -1700.7445 ZZZZ=           -777.7343 XXXY=             65.5565
 XXXZ=            135.0118 YYYX=             24.4596 YYYZ=            -55.5023 ZZZX=             24.3192
 ZZZY=            -22.1636 XXYY=           -704.6200 XXZZ=           -534.4066 YYZZ=           -449.9611
 XXYZ=            -29.2072 YYXZ=             32.4803 ZZXY=              2.5063
 N-N= 3.082449163732D+02 E-N=-3.345837805639D+03  KE= 1.132927710791D+03
                          Isotropic Fermi Contact Couplings
        Atom                 a.u.       MegaHertz       Gauss      10(-4) cm-1
     1  Na(23)             0.09936     117.55088      41.94508      39.21075
     2  Na(23)             0.00845       9.99837       3.56767       3.33510
     3  Na(23)            -0.01033     -12.21624      -4.35906      -4.07490
     4  Na(23)             0.06044      71.50124      25.51342      23.85025
     5  Na(23)             0.41134     486.62243     173.63898     162.31977
     6  Na(23)            -0.00529      -6.25282      -2.23116      -2.08572
     7  Na(23)             0.05345      63.23629      22.56428      21.09336
 --------------------------------------------------------
       Center         ----  Spin Dipole Couplings  ----
                      3XX-RR        3YY-RR        3ZZ-RR
 --------------------------------------------------------
     1   Atom        0.006154     -0.009330      0.003176
     2   Atom       -0.000949     -0.000364      0.001313
     3   Atom       -0.018450     -0.016346      0.034796
     4   Atom        0.006134     -0.017035      0.010900
     5   Atom        0.001333      0.005975     -0.007307
     6   Atom        0.000042     -0.000930      0.000887
     7   Atom       -0.001254      0.002098     -0.000844
 --------------------------------------------------------
                        XY            XZ            YZ
 --------------------------------------------------------
     1   Atom       -0.009896      0.021403     -0.010496
     2   Atom       -0.006525      0.004005     -0.007649
     3   Atom       -0.006128     -0.021221      0.013410
     4   Atom       -0.014673     -0.031301      0.012518
     5   Atom        0.000118      0.001295      0.003023
     6   Atom        0.002195      0.000896      0.000927
     7   Atom        0.003321     -0.000569      0.002848
 --------------------------------------------------------


 ---------------------------------------------------------------------------------
              Anisotropic Spin Dipole Couplings in Principal Axis System
 ---------------------------------------------------------------------------------

       Atom             a.u.   MegaHertz   Gauss  10(-4) cm-1        Axes

              Baa    -0.0171    -2.412    -0.861    -0.805 -0.5752  0.2976  0.7620
     1 Na(23) Bbb    -0.0142    -1.998    -0.713    -0.667  0.4477  0.8941 -0.0113
              Bcc     0.0312     4.410     1.574     1.471  0.6847 -0.3346  0.6475
 
              Baa    -0.0084    -1.182    -0.422    -0.394  0.4552  0.7805  0.4284
     2 Na(23) Bbb    -0.0039    -0.556    -0.198    -0.186  0.7431 -0.0680 -0.6657
              Bcc     0.0123     1.738     0.620     0.580 -0.4905  0.6214 -0.6110
 
              Baa    -0.0261    -3.693    -1.318    -1.232  0.9382  0.1997  0.2827
     3 Na(23) Bbb    -0.0195    -2.760    -0.985    -0.921 -0.1180  0.9524 -0.2811
              Bcc     0.0457     6.453     2.302     2.152 -0.3254  0.2304  0.9171
 
              Baa    -0.0250    -3.535    -1.261    -1.179  0.6547  0.6781  0.3340
     4 Na(23) Bbb    -0.0207    -2.927    -1.044    -0.976 -0.3737  0.6744 -0.6368
              Bcc     0.0458     6.462     2.306     2.155 -0.6571  0.2921  0.6949
 
              Baa    -0.0081    -1.147    -0.409    -0.383 -0.1302 -0.2068  0.9697
     5 Na(23) Bbb     0.0015     0.207     0.074     0.069  0.9887 -0.1005  0.1113
              Bcc     0.0067     0.940     0.336     0.314  0.0744  0.9732  0.2175
 
              Baa    -0.0027    -0.381    -0.136    -0.127 -0.6141  0.7876 -0.0501
     6 Na(23) Bbb    -0.0000    -0.001    -0.000    -0.000 -0.4802 -0.3224  0.8158
              Bcc     0.0027     0.382     0.136     0.127  0.6264  0.5250  0.5762
 
              Baa    -0.0045    -0.640    -0.228    -0.213  0.6489 -0.5506  0.5252
     7 Na(23) Bbb    -0.0005    -0.064    -0.023    -0.021 -0.6407 -0.0229  0.7675
              Bcc     0.0050     0.704     0.251     0.235  0.4105  0.8345  0.3676
 

 ---------------------------------------------------------------------------------

 No NMR shielding tensors so no spin-rotation constants.
 Leave Link  601 at Wed Nov 29 03:22:47 2023, MaxMem=  1879048192 cpu:               2.3 elap:               0.2
 (Enter /home/sekinelabo/g16/l701.exe)
 ... and contract with generalized density number  0.
 Compute integral first derivatives.
 Leave Link  701 at Wed Nov 29 03:22:47 2023, MaxMem=  1879048192 cpu:               1.5 elap:               0.1
 (Enter /home/sekinelabo/g16/l702.exe)
 L702 exits ... SP integral derivatives will be done elsewhere.
 Leave Link  702 at Wed Nov 29 03:22:47 2023, MaxMem=  1879048192 cpu:               0.4 elap:               0.0
 (Enter /home/sekinelabo/g16/l703.exe)
 Integral derivatives from FoFJK, PRISM(SPDF).
 Compute integral first derivatives, UseDBF=F ICtDFT=           0.
 Calling FoFJK, ICntrl=      2127 FMM=F ISym2X=0 I1Cent= 0 IOpClX= 1 NMat=1 NMatS=1 NMatT=0.
 FoFJK:  IHMeth= 1 ICntrl=    2127 DoSepK=F KAlg= 0 I1Cent=           0 FoldK=F
 IRaf=         0 NMat=       1 IRICut=       1 DoRegI=T DoRafI=F ISym2E= 0 IDoP0=0 IntGTp=1.
 FoFCou: FMM=F IPFlag=           0 FMFlag=      100000 FMFlg1=         800
         NFxFlg=           0 DoJE=F BraDBF=F KetDBF=F FulRan=T
         wScrn=  0.000000 ICntrl=      2127 IOpCl=  1 I1Cent=           0 NGrid=           0
         NMat0=    1 NMatS0=      1 NMatT0=    0 NMatD0=    1 NMtDS0=    0 NMtDT0=    0
 Symmetry not used in FoFCou.
 Leave Link  703 at Wed Nov 29 03:22:50 2023, MaxMem=  1879048192 cpu:              31.1 elap:               2.1
 (Enter /home/sekinelabo/g16/l716.exe)
 Dipole        = 3.63358468D-02-3.09844453D-02-1.06202599D-01
 ***** Axes restored to original set *****
 -------------------------------------------------------------------
 Center     Atomic                   Forces (Hartrees/Bohr)
 Number     Number              X              Y              Z
 -------------------------------------------------------------------
      1       11           0.000054822   -0.003449418    0.000135003
      2       11          -0.003513472    0.000166851    0.002040807
      3       11           0.000571449    0.001046508    0.000523542
      4       11           0.001379606    0.001495108    0.001464569
      5       11          -0.001061186    0.000390825   -0.001851237
      6       11           0.002249500   -0.002362690   -0.001955495
      7       11           0.000319280    0.002712816   -0.000357189
 -------------------------------------------------------------------
 Cartesian Forces:  Max     0.003513472 RMS     0.001734767
 Z-matrix is all fixed cartesians, so copy forces.
 Force constants in Cartesian coordinates: 
                1             2             3             4             5 
      1  0.612652D-01
      2  0.582086D-02  0.811904D-01
      3 -0.594669D-02 -0.140736D-02  0.856784D-01
      4 -0.143884D-01 -0.391628D-02 -0.736753D-03  0.836395D-01
      5 -0.178864D-02 -0.181176D-01 -0.399897D-02  0.105254D-01  0.861173D-01
      6  0.928608D-02  0.238935D-02 -0.157858D-01 -0.132238D-01  0.112950D-01
      7 -0.206877D-01 -0.275199D-03  0.221681D-02 -0.182016D-01 -0.174967D-02
      8 -0.172897D-02 -0.182095D-01  0.231251D-02  0.453870D-02 -0.200616D-01
      9  0.284246D-02 -0.440546D-02 -0.212872D-01  0.148576D-02  0.158766D-02
     10 -0.128766D-01  0.236131D-02  0.257493D-02  0.121407D-02 -0.377257D-02
     11 -0.467242D-02 -0.206120D-01  0.119639D-01 -0.307343D-02  0.155351D-02
     12 -0.684402D-02 -0.911984D-02 -0.219016D-01 -0.475077D-04  0.283815D-02
     13  0.568627D-03  0.570350D-03 -0.169607D-02 -0.870741D-04  0.621902D-04
     14 -0.485310D-02  0.148458D-02 -0.604088D-02 -0.472650D-02  0.258026D-02
     15 -0.473458D-02  0.162628D-03 -0.273340D-02 -0.116546D-03  0.446266D-05
     16  0.467755D-03  0.290115D-02  0.250874D-02 -0.264558D-01 -0.117087D-01
     17  0.234220D-02  0.604544D-02  0.249548D-03  0.780610D-02 -0.317558D-01
     18  0.560143D-02 -0.140417D-02  0.653007D-03  0.963060D-02 -0.266863D-02
     19 -0.143489D-01 -0.746220D-02  0.107903D-02 -0.257207D-01  0.843203D-02
     20  0.488006D-02 -0.317814D-01 -0.307875D-02 -0.111540D-01 -0.203161D-01
     21 -0.204684D-03  0.137848D-01 -0.246234D-01  0.300829D-02 -0.905769D-02
                6             7             8             9            10 
      6  0.519799D-01
      7 -0.283035D-02  0.110029D+00
      8 -0.407204D-02 -0.109555D-02  0.991557D-01
      9 -0.156767D-01  0.394232D-03  0.609994D-03  0.110415D+00
     10  0.336763D-03 -0.228901D-01 -0.111830D-01  0.451777D-02  0.365373D-01
     11  0.333152D-02  0.457451D-02 -0.178328D-01 -0.753508D-02  0.940925D-02
     12  0.584410D-02  0.216274D-03  0.607941D-02 -0.300331D-01 -0.170669D-02
     13 -0.141061D-03 -0.249783D-01  0.258391D-02 -0.936895D-02 -0.692938D-02
     14 -0.135962D-02  0.695410D-02 -0.188862D-01  0.514159D-02  0.422113D-02
     15  0.352303D-03  0.632373D-02  0.330035D-02 -0.172625D-01 -0.128509D-01
     16  0.220023D-02 -0.275356D-01  0.671470D-02  0.175050D-02  0.204691D-02
     17 -0.129874D-01 -0.115524D-01 -0.215485D-01  0.572614D-02 -0.119080D-02
     18 -0.158370D-01 -0.656971D-02 -0.291404D-02 -0.305251D-01  0.469757D-02
     19  0.437218D-02  0.426386D-02  0.170251D-03 -0.162177D-02  0.289777D-02
     20  0.140323D-02  0.314423D-02 -0.261714D-02 -0.112486D-02  0.154725D-03
     21 -0.108767D-01  0.249014D-03 -0.531619D-02  0.436999D-02  0.243059D-02
               11            12            13            14            15 
     11  0.439281D-01
     12 -0.131062D-01  0.559898D-01
     13 -0.403568D-02  0.328493D-02  0.321359D-01
     14 -0.892801D-02  0.128421D-01  0.268217D-03  0.208778D-01
     15  0.665341D-02 -0.204743D-01  0.902451D-02 -0.820271D-02  0.355738D-01
     16 -0.559520D-03  0.193342D-02 -0.600219D-03 -0.184872D-02  0.229566D-02
     17  0.207271D-02 -0.238243D-03  0.527116D-03  0.287906D-02 -0.192386D-02
     18  0.509097D-03  0.535440D-02 -0.118094D-02 -0.234032D-02  0.461200D-02
     19 -0.164271D-02  0.316359D-02 -0.109545D-03 -0.151271D-04  0.581706D-04
     20 -0.181558D-03  0.704615D-03  0.238926D-04 -0.742764D-05  0.571509D-05
     21 -0.181665D-02  0.522068D-02  0.775853D-04 -0.401677D-04 -0.679572D-04
               16            17            18            19            20 
     16  0.475776D-01
     17  0.405495D-03  0.399341D-01
     18 -0.131442D-01  0.929469D-02  0.336439D-01
     19  0.449930D-02  0.166231D-02  0.965238D-03  0.285182D-01
     20  0.409562D-02  0.237298D-02 -0.476626D-03 -0.114455D-02  0.525306D-01
     21  0.245563D-02 -0.120834D-03  0.209882D-02 -0.801644D-02  0.256668D-02
               21 
     21  0.238786D-01
 Leave Link  716 at Wed Nov 29 03:22:50 2023, MaxMem=  1879048192 cpu:               0.4 elap:               0.0
 (Enter /home/sekinelabo/g16/l103.exe)

 GradGradGradGradGradGradGradGradGradGradGradGradGradGradGradGradGradGrad
 Berny optimization.
 Search for a local minimum.
 Step number   1 out of a maximum of    2
 All quantities printed in internal units (Hartrees-Bohrs-Radians)
 Second derivative matrix not updated -- first step.
 ITU=  0
     Eigenvalues ---    0.01529   0.02705   0.03532   0.03857   0.04479
     Eigenvalues ---    0.05190   0.06193   0.07746   0.09796   0.11166
     Eigenvalues ---    0.11847   0.12277   0.12755   0.13908   0.14269
 Angle between quadratic step and forces=  26.06 degrees.
 Linear search not attempted -- first point.
 B after Tr=    -0.000000    0.000000    0.000000
         Rot=    1.000000    0.000000   -0.000000    0.000000 Ang=   0.00 deg.
 Variable       Old X    -DE/DX   Delta X   Delta X   Delta X     New X
                                 (Linear)    (Quad)   (Total)
    X1       27.63687   0.00005   0.00000   0.00286   0.00286  27.63973
    Y1       30.21634  -0.00345   0.00000  -0.02753  -0.02753  30.18881
    Z1       32.67733   0.00014   0.00000   0.00746   0.00746  32.68479
    X2       33.06681  -0.00351   0.00000  -0.02653  -0.02653  33.04028
    Y2       32.63349   0.00017   0.00000  -0.00354  -0.00354  32.62995
    Z2       28.47080   0.00204   0.00000   0.01804   0.01804  28.48884
    X3       29.76432   0.00057   0.00000   0.00514   0.00514  29.76947
    Y3       26.03476   0.00105   0.00000   0.00701   0.00701  26.04177
    Z3       27.43372   0.00052   0.00000   0.00181   0.00181  27.43553
    X4       25.24674   0.00138   0.00000   0.02829   0.02829  25.27503
    Y4       23.91996   0.00150   0.00000   0.02557   0.02557  23.94554
    Z4       31.59376   0.00146   0.00000   0.01959   0.01959  31.61335
    X5       23.52010  -0.00106   0.00000  -0.01384  -0.01384  23.50626
    Y5       26.14795   0.00039   0.00000   0.01137   0.01137  26.15933
    Z5       25.89227  -0.00185   0.00000  -0.02863  -0.02863  25.86364
    X6       35.37511   0.00225   0.00000   0.02621   0.02621  35.40131
    Y6       28.05109  -0.00236   0.00000  -0.03870  -0.03870  28.01239
    Z6       25.48201  -0.00196   0.00000  -0.02473  -0.02473  25.45728
    X7       28.39484   0.00032   0.00000  -0.02213  -0.02213  28.37271
    Y7       36.00117   0.00271   0.00000   0.02582   0.02582  36.02699
    Z7       31.45506  -0.00036   0.00000   0.00647   0.00647  31.46153
         Item               Value     Threshold  Converged?
 Maximum Force            0.003513     0.000450     NO 
 RMS     Force            0.001735     0.000300     NO 
 Maximum Displacement     0.038704     0.001800     NO 
 RMS     Displacement     0.020604     0.001200     NO 
 Predicted change in Energy=-3.371421D-04
 GradGradGradGradGradGradGradGradGradGradGradGradGradGradGradGradGradGrad

 Leave Link  103 at Wed Nov 29 03:22:50 2023, MaxMem=  1879048192 cpu:               0.2 elap:               0.0
 (Enter /home/sekinelabo/g16/l9999.exe)
 1\1\GINC-SEKINELABO-XA7R-R37\Force\UB3LYP\6-311+G(d)\Na7(2)\SEKINELABO
 \29-Nov-2023\0\\#P B3LYP/6-311+g(d) force\\DPGEN\\0,2\Na,14.6248,15.98
 98,17.2921\Na,17.4982,17.2689,15.0661\Na,15.7506,13.777,14.5173\Na,13.
 36,12.6579,16.7187\Na,12.4463,13.8369,13.7016\Na,18.7197,14.844,13.484
 5\Na,15.0259,19.051,16.6453\\Version=ES64L-G16RevB.01\State=2-A\HF=-11
 36.1284534\S2=0.766839\S2-1=0.\S2A=0.750128\RMSD=8.079e-09\RMSF=1.735e
 -03\Dipole=0.0538693,-0.0006871,0.1032325\Quadrupole=2.0625529,3.51446
 87,-5.5770216,1.9079286,-4.8610972,-1.2834245\PG=C01 [X(Na7)]\\@


 IF AT FIRST YOU DON'T SUCCEED, TRY, TRY AGAIN.
 THEN GIVE UP;
 THERE'S NO USE BEING A DAMN FOOL ABOUT IT.

                                 -- W. C. FIELDS
 Job cpu time:       0 days  0 hours  3 minutes 41.7 seconds.
 Elapsed time:       0 days  0 hours  0 minutes 18.9 seconds.
 File lengths (MBytes):  RWF=     32 Int=      0 D2E=      0 Chk=      4 Scr=      1
 Normal termination of Gaussian 16 at Wed Nov 29 03:22:50 2023.
