 Set GAUSS_MDEF to "14GB".
 Entering Gaussian System, Link 0=g16
 Initial command:
 /home/sekinelabo/g16/l1.exe "/home/sekinelabo/g16temp/Gau-267088.inp" -scrdir="/home/sekinelabo/g16temp/"
 Entering Link 1 = /home/sekinelabo/g16/l1.exe PID=    267090.
  
 Copyright (c) 1988-2017, Gaussian, Inc.  All Rights Reserved.
  
 This is part of the Gaussian(R) 16 program.  It is based on
 the Gaussian(R) 09 system (copyright 2009, Gaussian, Inc.),
 the Gaussian(R) 03 system (copyright 2003, Gaussian, Inc.),
 the Gaussian(R) 98 system (copyright 1998, Gaussian, Inc.),
 the Gaussian(R) 94 system (copyright 1995, Gaussian, Inc.),
 the Gaussian 92(TM) system (copyright 1992, Gaussian, Inc.),
 the Gaussian 90(TM) system (copyright 1990, Gaussian, Inc.),
 the Gaussian 88(TM) system (copyright 1988, Gaussian, Inc.),
 the Gaussian 86(TM) system (copyright 1986, Carnegie Mellon
 University), and the Gaussian 82(TM) system (copyright 1983,
 Carnegie Mellon University). Gaussian is a federally registered
 trademark of Gaussian, Inc.
  
 This software contains proprietary and confidential information,
 including trade secrets, belonging to Gaussian, Inc.
  
 This software is provided under written license and may be
 used, copied, transmitted, or stored only in accord with that
 written license.
  
 The following legend is applicable only to US Government
 contracts under FAR:
  
                    RESTRICTED RIGHTS LEGEND
  
 Use, reproduction and disclosure by the US Government is
 subject to restrictions as set forth in subparagraphs (a)
 and (c) of the Commercial Computer Software - Restricted
 Rights clause in FAR 52.227-19.
  
 Gaussian, Inc.
 340 Quinnipiac St., Bldg. 40, Wallingford CT 06492
  
  
 ---------------------------------------------------------------
 Warning -- This program may not be used in any manner that
 competes with the business of Gaussian, Inc. or will provide
 assistance to any competitor of Gaussian, Inc.  The licensee
 of this program is prohibited from giving any competitor of
 Gaussian, Inc. access to this program.  By using this program,
 the user acknowledges that Gaussian, Inc. is engaged in the
 business of creating and licensing software in the field of
 computational chemistry and represents and warrants to the
 licensee that it is not a competitor of Gaussian, Inc. and that
 it will not use this program in any manner prohibited above.
 ---------------------------------------------------------------
  

 Cite this work as:
 Gaussian 16, Revision B.01,
 M. J. Frisch, G. W. Trucks, H. B. Schlegel, G. E. Scuseria, 
 M. A. Robb, J. R. Cheeseman, G. Scalmani, V. Barone, 
 G. A. Petersson, H. Nakatsuji, X. Li, M. Caricato, A. V. Marenich, 
 J. Bloino, B. G. Janesko, R. Gomperts, B. Mennucci, H. P. Hratchian, 
 J. V. Ortiz, A. F. Izmaylov, J. L. Sonnenberg, D. Williams-Young, 
 F. Ding, F. Lipparini, F. Egidi, J. Goings, B. Peng, A. Petrone, 
 T. Henderson, D. Ranasinghe, V. G. Zakrzewski, J. Gao, N. Rega, 
 G. Zheng, W. Liang, M. Hada, M. Ehara, K. Toyota, R. Fukuda, 
 J. Hasegawa, M. Ishida, T. Nakajima, Y. Honda, O. Kitao, H. Nakai, 
 T. Vreven, K. Throssell, J. A. Montgomery, Jr., J. E. Peralta, 
 F. Ogliaro, M. J. Bearpark, J. J. Heyd, E. N. Brothers, K. N. Kudin, 
 V. N. Staroverov, T. A. Keith, R. Kobayashi, J. Normand, 
 K. Raghavachari, A. P. Rendell, J. C. Burant, S. S. Iyengar, 
 J. Tomasi, M. Cossi, J. M. Millam, M. Klene, C. Adamo, R. Cammi, 
 J. W. Ochterski, R. L. Martin, K. Morokuma, O. Farkas, 
 J. B. Foresman, and D. J. Fox, Gaussian, Inc., Wallingford CT, 2016.
 
 ******************************************
 Gaussian 16:  ES64L-G16RevB.01 20-Dec-2017
                29-Nov-2023 
 ******************************************
 %nproc=15
 Will use up to   15 processors via shared memory.
 -------------------------
 #P B3LYP/6-311+g(d) force
 -------------------------
 1/10=7,30=1,38=1/1,3;
 2/12=2,17=6,18=5,40=1/2;
 3/5=4,6=6,7=11,11=2,25=1,30=1,71=1,74=-5/1,2,3;
 4//1;
 5/5=2,38=5/2;
 6/7=2,8=2,9=2,10=2,28=1/1;
 7/29=1/1,2,3,16;
 1/10=7,30=1/3;
 99//99;
 Leave Link    1 at Wed Nov 29 01:15:49 2023, MaxMem=           0 cpu:               0.3 elap:               0.0
 (Enter /home/sekinelabo/g16/l101.exe)
 -----
 DPGEN
 -----
 Symbolic Z-matrix:
 Charge =  0 Multiplicity = 2
 Na                    13.9445   15.8215   13.1173 
 Na                    12.7791   13.314    11.639 
 Na                    15.5269   11.4534   11.0637 
 Na                    15.3182   13.5443   15.0296 
 Na                    15.3689   16.9746   16.7601 
 Na                    17.483    18.2106   18.3014 
 Na                    17.0049   18.107    21.5144 
 
 ITRead=  0  0  0  0  0  0  0
 MicOpt= -1 -1 -1 -1 -1 -1 -1
 NAtoms=      7 NQM=        7 NQMF=       0 NMMI=      0 NMMIF=      0
                NMic=       0 NMicF=      0.
                    Isotopes and Nuclear Properties:
 (Nuclear quadrupole moments (NQMom) in fm**2, nuclear magnetic moments (NMagM)
  in nuclear magnetons)

  Atom         1           2           3           4           5           6           7
 IAtWgt=          23          23          23          23          23          23          23
 AtmWgt=  22.9897697  22.9897697  22.9897697  22.9897697  22.9897697  22.9897697  22.9897697
 NucSpn=           3           3           3           3           3           3           3
 AtZEff=  -0.0000000  -0.0000000  -0.0000000  -0.0000000  -0.0000000  -0.0000000  -0.0000000
 NQMom=   10.4000000  10.4000000  10.4000000  10.4000000  10.4000000  10.4000000  10.4000000
 NMagM=    2.2175200   2.2175200   2.2175200   2.2175200   2.2175200   2.2175200   2.2175200
 AtZNuc=  11.0000000  11.0000000  11.0000000  11.0000000  11.0000000  11.0000000  11.0000000
 Leave Link  101 at Wed Nov 29 01:15:49 2023, MaxMem=  1879048192 cpu:               2.3 elap:               0.2
 (Enter /home/sekinelabo/g16/l103.exe)

 GradGradGradGradGradGradGradGradGradGradGradGradGradGradGradGradGradGrad
 Berny optimization.
 Initialization pass.
 Trust Radius=3.00D-01 FncErr=1.00D-07 GrdErr=1.00D-07 EigMax=2.50D+02 EigMin=1.00D-04
 Number of steps in this run=      2 maximum allowed number of steps=      2.
 GradGradGradGradGradGradGradGradGradGradGradGradGradGradGradGradGradGrad

 Leave Link  103 at Wed Nov 29 01:15:49 2023, MaxMem=  1879048192 cpu:               0.2 elap:               0.0
 (Enter /home/sekinelabo/g16/l202.exe)
                          Input orientation:                          
 ---------------------------------------------------------------------
 Center     Atomic      Atomic             Coordinates (Angstroms)
 Number     Number       Type             X           Y           Z
 ---------------------------------------------------------------------
      1         11           0       13.944500   15.821500   13.117300
      2         11           0       12.779100   13.314000   11.639000
      3         11           0       15.526900   11.453400   11.063700
      4         11           0       15.318200   13.544300   15.029600
      5         11           0       15.368900   16.974600   16.760100
      6         11           0       17.483000   18.210600   18.301400
      7         11           0       17.004900   18.107000   21.514400
 ---------------------------------------------------------------------
                    Distance matrix (angstroms):
                    1          2          3          4          5
     1  Na   0.000000
     2  Na   3.135456   0.000000
     3  Na   5.079524   3.367968   0.000000
     4  Na   3.275604   4.242197   4.488182   0.000000
     5  Na   4.077812   6.806814   7.934582   3.842416   0.000000
     6  Na   6.715927   9.512673  10.093086   6.096342   2.893565
     7  Na   9.225012  11.762388  12.476859   8.106529   5.153852
                    6          7
     6  Na   0.000000
     7  Na   3.250028   0.000000
 Stoichiometry    Na7(2)
 Framework group  C1[X(Na7)]
 Deg. of freedom    15
 Full point group                 C1      NOp   1
 Largest Abelian subgroup         C1      NOp   1
 Largest concise Abelian subgroup C1      NOp   1
                         Standard orientation:                         
 ---------------------------------------------------------------------
 Center     Atomic      Atomic             Coordinates (Angstroms)
 Number     Number       Type             X           Y           Z
 ---------------------------------------------------------------------
      1         11           0       -1.935919   -1.798698    0.421281
      2         11           0       -4.756158   -1.120428   -0.769217
      3         11           0       -5.445563    1.867806    0.623041
      4         11           0       -1.204119    1.197270   -0.682453
      5         11           0        1.998655   -0.809187    0.010746
      6         11           0        4.464273    0.059295    1.251386
      7         11           0        6.878831    0.603943   -0.854783
 ---------------------------------------------------------------------
 Rotational constants (GHZ):           1.5312918           0.1657384           0.1579774
 Leave Link  202 at Wed Nov 29 01:15:49 2023, MaxMem=  1879048192 cpu:               0.0 elap:               0.0
 (Enter /home/sekinelabo/g16/l301.exe)
 Standard basis: 6-311+G(d) (5D, 7F)
 Ernie: Thresh=  0.10000D-02 Tol=  0.10000D-05 Strict=F.
 There are   217 symmetry adapted cartesian basis functions of A   symmetry.
 There are   210 symmetry adapted basis functions of A   symmetry.
   210 basis functions,   350 primitive gaussians,   217 cartesian basis functions
    39 alpha electrons       38 beta electrons
       nuclear repulsion energy       263.5706339408 Hartrees.
 IExCor=  402 DFT=T Ex+Corr=B3LYP ExCW=0 ScaHFX=  0.200000
 ScaDFX=  0.800000  0.720000  1.000000  0.810000 ScalE2=  1.000000  1.000000
 IRadAn=      5 IRanWt=     -1 IRanGd=            0 ICorTp=0 IEmpDi=  4
 NAtoms=    7 NActive=    7 NUniq=    7 SFac= 1.00D+00 NAtFMM=   60 NAOKFM=F Big=F
 Integral buffers will be    131072 words long.
 Raffenetti 2 integral format.
 Two-electron integral symmetry is turned on.
 Leave Link  301 at Wed Nov 29 01:15:49 2023, MaxMem=  1879048192 cpu:               0.5 elap:               0.0
 (Enter /home/sekinelabo/g16/l302.exe)
 NPDir=0 NMtPBC=     1 NCelOv=     1 NCel=       1 NClECP=     1 NCelD=      1
         NCelK=      1 NCelE2=     1 NClLst=     1 CellRange=     0.0.
 One-electron integrals computed using PRISM.
 One-electron integral symmetry used in STVInt
 NBasis=   210 RedAO= T EigKep=  9.13D-06  NBF=   210
 NBsUse=   210 1.00D-06 EigRej= -1.00D+00 NBFU=   210
 Precomputing XC quadrature grid using
 IXCGrd= 4 IRadAn=           5 IRanWt=          -1 IRanGd=           0 AccXCQ= 0.00D+00.
 Generated NRdTot=       0 NPtTot=           0 NUsed=           0 NTot=          32
 NSgBfM=   200   200   200   200   200 MxSgAt=     7 MxSgA2=     7.
 Leave Link  302 at Wed Nov 29 01:15:49 2023, MaxMem=  1879048192 cpu:               2.0 elap:               0.1
 (Enter /home/sekinelabo/g16/l303.exe)
 DipDrv:  MaxL=1.
 Leave Link  303 at Wed Nov 29 01:15:49 2023, MaxMem=  1879048192 cpu:               0.5 elap:               0.0
 (Enter /home/sekinelabo/g16/l401.exe)
 ExpMin= 7.60D-03 ExpMax= 3.62D+04 ExpMxC= 1.21D+03 IAcc=3 IRadAn=         5 AccDes= 0.00D+00
 Harris functional with IExCor=  402 and IRadAn=       5 diagonalized for initial guess.
 HarFok:  IExCor=  402 AccDes= 0.00D+00 IRadAn=         5 IDoV= 1 UseB2=F ITyADJ=14
 ICtDFT=  3500011 ScaDFX=  1.000000  1.000000  1.000000  1.000000
 FoFCou: FMM=F IPFlag=           0 FMFlag=      100000 FMFlg1=           0
         NFxFlg=           0 DoJE=T BraDBF=F KetDBF=T FulRan=T
         wScrn=  0.000000 ICntrl=       500 IOpCl=  0 I1Cent=   200000004 NGrid=           0
         NMat0=    1 NMatS0=      1 NMatT0=    0 NMatD0=    1 NMtDS0=    0 NMtDT0=    0
 Petite list used in FoFCou.
 Harris En= -1135.87490003279    
 JPrj=0 DoOrth=F DoCkMO=F.
 Initial guess <Sx>= 0.0000 <Sy>= 0.0000 <Sz>= 0.5000 <S**2>= 0.7500 S= 0.5000
 Leave Link  401 at Wed Nov 29 01:15:49 2023, MaxMem=  1879048192 cpu:               4.0 elap:               0.3
 (Enter /home/sekinelabo/g16/l502.exe)
 Keep R1 and R2 ints in memory in canonical form, NReq=506573279.
 FoFCou: FMM=F IPFlag=           0 FMFlag=           0 FMFlg1=           0
         NFxFlg=           0 DoJE=F BraDBF=F KetDBF=F FulRan=T
         wScrn=  0.000000 ICntrl=       600 IOpCl=  0 I1Cent=           0 NGrid=           0
         NMat0=    1 NMatS0=  22155 NMatT0=    0 NMatD0=    1 NMtDS0=    0 NMtDT0=    0
 Symmetry not used in FoFCou.
 Two-electron integral symmetry not used.
 UHF open shell SCF:
 Using DIIS extrapolation, IDIIS=  1040.
 NGot=  1879048192 LenX=  1388082621 LenY=  1388035091
 Requested convergence on RMS density matrix=1.00D-08 within 128 cycles.
 Requested convergence on MAX density matrix=1.00D-06.
 Requested convergence on             energy=1.00D-06.
 No special actions if energy rises.

 Cycle   1  Pass 1  IDiag  1:
 E= -1136.07945521086    
 DIIS: error= 9.09D-03 at cycle   1 NSaved=   1.
 NSaved= 1 IEnMin= 1 EnMin= -1136.07945521086     IErMin= 1 ErrMin= 9.09D-03
 ErrMax= 9.09D-03  0.00D+00 EMaxC= 1.00D-01 BMatC= 1.83D-01 BMatP= 1.83D-01
 IDIUse=3 WtCom= 9.09D-01 WtEn= 9.09D-02
 Coeff-Com:  0.100D+01
 Coeff-En:   0.100D+01
 Coeff:      0.100D+01
 Gap=     0.024 Goal=   None    Shift=    0.000
 Gap=     0.039 Goal=   None    Shift=    0.000
 GapD=    0.024 DampG=0.250 DampE=1.000 DampFc=0.2500 IDamp=-1.
 Damping current iteration by 2.50D-01
 RMSDP=5.98D-03 MaxDP=2.58D-01              OVMax= 1.79D-01

 Cycle   2  Pass 1  IDiag  1:
 E= -1136.08726933077     Delta-E=       -0.007814119907 Rises=F Damp=T
 DIIS: error= 6.38D-03 at cycle   2 NSaved=   2.
 NSaved= 2 IEnMin= 2 EnMin= -1136.08726933077     IErMin= 2 ErrMin= 6.38D-03
 ErrMax= 6.38D-03  0.00D+00 EMaxC= 1.00D-01 BMatC= 7.10D-02 BMatP= 1.83D-01
 IDIUse=3 WtCom= 9.36D-01 WtEn= 6.38D-02
 Coeff-Com: -0.131D+01 0.231D+01
 Coeff-En:   0.000D+00 0.100D+01
 Coeff:     -0.123D+01 0.223D+01
 Gap=     0.029 Goal=   None    Shift=    0.000
 Gap=     0.044 Goal=   None    Shift=    0.000
 RMSDP=4.17D-03 MaxDP=2.14D-01 DE=-7.81D-03 OVMax= 2.17D-01

 Cycle   3  Pass 1  IDiag  1:
 E= -1136.10123926172     Delta-E=       -0.013969930947 Rises=F Damp=F
 DIIS: error= 2.59D-03 at cycle   3 NSaved=   3.
 NSaved= 3 IEnMin= 3 EnMin= -1136.10123926172     IErMin= 3 ErrMin= 2.59D-03
 ErrMax= 2.59D-03  0.00D+00 EMaxC= 1.00D-01 BMatC= 1.81D-03 BMatP= 7.10D-02
 IDIUse=3 WtCom= 9.74D-01 WtEn= 2.59D-02
 Coeff-Com: -0.170D+00 0.287D+00 0.883D+00
 Coeff-En:   0.000D+00 0.000D+00 0.100D+01
 Coeff:     -0.166D+00 0.280D+00 0.886D+00
 Gap=     0.023 Goal=   None    Shift=    0.000
 Gap=     0.053 Goal=   None    Shift=    0.000
 RMSDP=2.23D-03 MaxDP=1.64D-01 DE=-1.40D-02 OVMax= 2.36D-01

 Cycle   4  Pass 1  IDiag  1:
 E= -1136.09215402028     Delta-E=        0.009085241440 Rises=F Damp=F
 DIIS: error= 4.88D-03 at cycle   4 NSaved=   4.
 NSaved= 4 IEnMin= 3 EnMin= -1136.10123926172     IErMin= 3 ErrMin= 2.59D-03
 ErrMax= 4.88D-03  0.00D+00 EMaxC= 1.00D-01 BMatC= 6.83D-03 BMatP= 1.81D-03
 IDIUse=3 WtCom= 1.25D-01 WtEn= 8.75D-01
 Coeff-Com: -0.229D-01 0.344D-01 0.662D+00 0.327D+00
 Coeff-En:   0.000D+00 0.000D+00 0.734D+00 0.266D+00
 Coeff:     -0.286D-02 0.430D-02 0.725D+00 0.274D+00
 Gap=     0.027 Goal=   None    Shift=    0.000
 Gap=     0.040 Goal=   None    Shift=    0.000
 RMSDP=1.33D-03 MaxDP=8.79D-02 DE= 9.09D-03 OVMax= 1.63D-01

 Cycle   5  Pass 1  IDiag  1:
 E= -1136.10411801266     Delta-E=       -0.011963992380 Rises=F Damp=F
 DIIS: error= 1.15D-03 at cycle   5 NSaved=   5.
 NSaved= 5 IEnMin= 5 EnMin= -1136.10411801266     IErMin= 5 ErrMin= 1.15D-03
 ErrMax= 1.15D-03  0.00D+00 EMaxC= 1.00D-01 BMatC= 3.22D-04 BMatP= 1.81D-03
 IDIUse=3 WtCom= 9.89D-01 WtEn= 1.15D-02
 Coeff-Com:  0.315D-02-0.517D-02 0.323D+00 0.372D-01 0.642D+00
 Coeff-En:   0.000D+00 0.000D+00 0.134D+00 0.000D+00 0.866D+00
 Coeff:      0.311D-02-0.512D-02 0.320D+00 0.368D-01 0.645D+00
 Gap=     0.028 Goal=   None    Shift=    0.000
 Gap=     0.041 Goal=   None    Shift=    0.000
 RMSDP=4.46D-04 MaxDP=2.59D-02 DE=-1.20D-02 OVMax= 3.48D-02

 Cycle   6  Pass 1  IDiag  1:
 E= -1136.10458575850     Delta-E=       -0.000467745839 Rises=F Damp=F
 DIIS: error= 2.47D-04 at cycle   6 NSaved=   6.
 NSaved= 6 IEnMin= 6 EnMin= -1136.10458575850     IErMin= 6 ErrMin= 2.47D-04
 ErrMax= 2.47D-04  0.00D+00 EMaxC= 1.00D-01 BMatC= 2.67D-05 BMatP= 3.22D-04
 IDIUse=3 WtCom= 9.98D-01 WtEn= 2.47D-03
 Coeff-Com:  0.504D-02-0.768D-02 0.296D-01-0.595D-01 0.350D+00 0.683D+00
 Coeff-En:   0.000D+00 0.000D+00 0.000D+00 0.000D+00 0.000D+00 0.100D+01
 Coeff:      0.502D-02-0.766D-02 0.295D-01-0.593D-01 0.349D+00 0.684D+00
 Gap=     0.029 Goal=   None    Shift=    0.000
 Gap=     0.041 Goal=   None    Shift=    0.000
 RMSDP=1.87D-04 MaxDP=9.06D-03 DE=-4.68D-04 OVMax= 1.78D-02

 Cycle   7  Pass 1  IDiag  1:
 E= -1136.10464350770     Delta-E=       -0.000057749205 Rises=F Damp=F
 DIIS: error= 9.37D-05 at cycle   7 NSaved=   7.
 NSaved= 7 IEnMin= 7 EnMin= -1136.10464350770     IErMin= 7 ErrMin= 9.37D-05
 ErrMax= 9.37D-05  0.00D+00 EMaxC= 1.00D-01 BMatC= 3.34D-06 BMatP= 2.67D-05
 IDIUse=1 WtCom= 1.00D+00 WtEn= 0.00D+00
 Coeff-Com: -0.111D-03 0.651D-04-0.490D-01-0.114D-01-0.635D-01 0.197D+00
 Coeff-Com:  0.927D+00
 Coeff:     -0.111D-03 0.651D-04-0.490D-01-0.114D-01-0.635D-01 0.197D+00
 Coeff:      0.927D+00
 Gap=     0.029 Goal=   None    Shift=    0.000
 Gap=     0.041 Goal=   None    Shift=    0.000
 RMSDP=1.45D-04 MaxDP=9.70D-03 DE=-5.77D-05 OVMax= 1.01D-02

 Cycle   8  Pass 1  IDiag  1:
 E= -1136.10465702533     Delta-E=       -0.000013517630 Rises=F Damp=F
 DIIS: error= 6.73D-05 at cycle   8 NSaved=   8.
 NSaved= 8 IEnMin= 8 EnMin= -1136.10465702533     IErMin= 8 ErrMin= 6.73D-05
 ErrMax= 6.73D-05  0.00D+00 EMaxC= 1.00D-01 BMatC= 1.09D-06 BMatP= 3.34D-06
 IDIUse=1 WtCom= 1.00D+00 WtEn= 0.00D+00
 Coeff-Com: -0.410D-03 0.628D-03-0.331D-01 0.857D-02-0.958D-01-0.253D-01
 Coeff-Com:  0.322D+00 0.823D+00
 Coeff:     -0.410D-03 0.628D-03-0.331D-01 0.857D-02-0.958D-01-0.253D-01
 Coeff:      0.322D+00 0.823D+00
 Gap=     0.029 Goal=   None    Shift=    0.000
 Gap=     0.041 Goal=   None    Shift=    0.000
 RMSDP=7.50D-05 MaxDP=4.95D-03 DE=-1.35D-05 OVMax= 4.82D-03

 Cycle   9  Pass 1  IDiag  1:
 E= -1136.10466156658     Delta-E=       -0.000004541253 Rises=F Damp=F
 DIIS: error= 3.59D-05 at cycle   9 NSaved=   9.
 NSaved= 9 IEnMin= 9 EnMin= -1136.10466156658     IErMin= 9 ErrMin= 3.59D-05
 ErrMax= 3.59D-05  0.00D+00 EMaxC= 1.00D-01 BMatC= 2.78D-07 BMatP= 1.09D-06
 IDIUse=1 WtCom= 1.00D+00 WtEn= 0.00D+00
 Coeff-Com:  0.172D-03-0.156D-03-0.450D-02 0.529D-02-0.167D-01-0.440D-01
 Coeff-Com: -0.151D+00 0.292D+00 0.919D+00
 Coeff:      0.172D-03-0.156D-03-0.450D-02 0.529D-02-0.167D-01-0.440D-01
 Coeff:     -0.151D+00 0.292D+00 0.919D+00
 Gap=     0.029 Goal=   None    Shift=    0.000
 Gap=     0.041 Goal=   None    Shift=    0.000
 RMSDP=4.73D-05 MaxDP=2.74D-03 DE=-4.54D-06 OVMax= 3.76D-03

 Cycle  10  Pass 1  IDiag  1:
 E= -1136.10466329457     Delta-E=       -0.000001727983 Rises=F Damp=F
 DIIS: error= 1.50D-05 at cycle  10 NSaved=  10.
 NSaved=10 IEnMin=10 EnMin= -1136.10466329457     IErMin=10 ErrMin= 1.50D-05
 ErrMax= 1.50D-05  0.00D+00 EMaxC= 1.00D-01 BMatC= 5.77D-08 BMatP= 2.78D-07
 IDIUse=1 WtCom= 1.00D+00 WtEn= 0.00D+00
 Coeff-Com:  0.457D-04-0.475D-04 0.663D-02-0.665D-03 0.183D-01-0.608D-02
 Coeff-Com: -0.102D+00-0.119D+00 0.161D+00 0.104D+01
 Coeff:      0.457D-04-0.475D-04 0.663D-02-0.665D-03 0.183D-01-0.608D-02
 Coeff:     -0.102D+00-0.119D+00 0.161D+00 0.104D+01
 Gap=     0.029 Goal=   None    Shift=    0.000
 Gap=     0.041 Goal=   None    Shift=    0.000
 RMSDP=2.59D-05 MaxDP=1.16D-03 DE=-1.73D-06 OVMax= 2.05D-03

 Cycle  11  Pass 1  IDiag  1:
 E= -1136.10466385794     Delta-E=       -0.000000563372 Rises=F Damp=F
 DIIS: error= 1.09D-05 at cycle  11 NSaved=  11.
 NSaved=11 IEnMin=11 EnMin= -1136.10466385794     IErMin=11 ErrMin= 1.09D-05
 ErrMax= 1.09D-05  0.00D+00 EMaxC= 1.00D-01 BMatC= 1.99D-08 BMatP= 5.77D-08
 IDIUse=1 WtCom= 1.00D+00 WtEn= 0.00D+00
 Coeff-Com: -0.103D-03 0.119D-03 0.301D-02-0.272D-02 0.132D-01 0.239D-01
 Coeff-Com:  0.308D-01-0.163D+00-0.305D+00 0.257D+00 0.114D+01
 Coeff:     -0.103D-03 0.119D-03 0.301D-02-0.272D-02 0.132D-01 0.239D-01
 Coeff:      0.308D-01-0.163D+00-0.305D+00 0.257D+00 0.114D+01
 Gap=     0.029 Goal=   None    Shift=    0.000
 Gap=     0.041 Goal=   None    Shift=    0.000
 RMSDP=1.86D-05 MaxDP=8.38D-04 DE=-5.63D-07 OVMax= 1.55D-03

 Cycle  12  Pass 1  IDiag  1:
 E= -1136.10466408713     Delta-E=       -0.000000229189 Rises=F Damp=F
 DIIS: error= 4.25D-06 at cycle  12 NSaved=  12.
 NSaved=12 IEnMin=12 EnMin= -1136.10466408713     IErMin=12 ErrMin= 4.25D-06
 ErrMax= 4.25D-06  0.00D+00 EMaxC= 1.00D-01 BMatC= 3.62D-09 BMatP= 1.99D-08
 IDIUse=1 WtCom= 1.00D+00 WtEn= 0.00D+00
 Coeff-Com: -0.178D-04 0.143D-04-0.127D-02 0.652D-04-0.352D-02 0.433D-02
 Coeff-Com:  0.210D-01 0.834D-02-0.598D-01-0.161D+00 0.688D-01 0.112D+01
 Coeff:     -0.178D-04 0.143D-04-0.127D-02 0.652D-04-0.352D-02 0.433D-02
 Coeff:      0.210D-01 0.834D-02-0.598D-01-0.161D+00 0.688D-01 0.112D+01
 Gap=     0.029 Goal=   None    Shift=    0.000
 Gap=     0.041 Goal=   None    Shift=    0.000
 RMSDP=8.08D-06 MaxDP=3.69D-04 DE=-2.29D-07 OVMax= 7.49D-04

 Cycle  13  Pass 1  IDiag  1:
 E= -1136.10466413857     Delta-E=       -0.000000051444 Rises=F Damp=F
 DIIS: error= 2.86D-06 at cycle  13 NSaved=  13.
 NSaved=13 IEnMin=13 EnMin= -1136.10466413857     IErMin=13 ErrMin= 2.86D-06
 ErrMax= 2.86D-06  0.00D+00 EMaxC= 1.00D-01 BMatC= 1.45D-09 BMatP= 3.62D-09
 IDIUse=1 WtCom= 1.00D+00 WtEn= 0.00D+00
 Coeff-Com:  0.242D-04-0.326D-04-0.866D-03 0.282D-03-0.246D-02-0.290D-02
 Coeff-Com: -0.196D-02 0.267D-01 0.321D-01-0.638D-01-0.180D+00 0.207D+00
 Coeff-Com:  0.986D+00
 Coeff:      0.242D-04-0.326D-04-0.866D-03 0.282D-03-0.246D-02-0.290D-02
 Coeff:     -0.196D-02 0.267D-01 0.321D-01-0.638D-01-0.180D+00 0.207D+00
 Coeff:      0.986D+00
 Gap=     0.029 Goal=   None    Shift=    0.000
 Gap=     0.041 Goal=   None    Shift=    0.000
 RMSDP=4.17D-06 MaxDP=1.60D-04 DE=-5.14D-08 OVMax= 3.99D-04

 Cycle  14  Pass 1  IDiag  1:
 E= -1136.10466415909     Delta-E=       -0.000000020523 Rises=F Damp=F
 DIIS: error= 2.41D-06 at cycle  14 NSaved=  14.
 NSaved=14 IEnMin=14 EnMin= -1136.10466415909     IErMin=14 ErrMin= 2.41D-06
 ErrMax= 2.41D-06  0.00D+00 EMaxC= 1.00D-01 BMatC= 9.48D-10 BMatP= 1.45D-09
 IDIUse=1 WtCom= 1.00D+00 WtEn= 0.00D+00
 Coeff-Com:  0.285D-04-0.355D-04 0.494D-03-0.607D-04 0.157D-02-0.300D-02
 Coeff-Com: -0.133D-01 0.427D-02 0.377D-01 0.612D-01-0.105D+00-0.435D+00
 Coeff-Com:  0.359D+00 0.109D+01
 Coeff:      0.285D-04-0.355D-04 0.494D-03-0.607D-04 0.157D-02-0.300D-02
 Coeff:     -0.133D-01 0.427D-02 0.377D-01 0.612D-01-0.105D+00-0.435D+00
 Coeff:      0.359D+00 0.109D+01
 Gap=     0.029 Goal=   None    Shift=    0.000
 Gap=     0.041 Goal=   None    Shift=    0.000
 RMSDP=4.37D-06 MaxDP=2.00D-04 DE=-2.05D-08 OVMax= 4.27D-04

 Cycle  15  Pass 1  IDiag  1:
 E= -1136.10466417770     Delta-E=       -0.000000018612 Rises=F Damp=F
 DIIS: error= 2.31D-06 at cycle  15 NSaved=  15.
 NSaved=15 IEnMin=15 EnMin= -1136.10466417770     IErMin=15 ErrMin= 2.31D-06
 ErrMax= 2.31D-06  0.00D+00 EMaxC= 1.00D-01 BMatC= 6.77D-10 BMatP= 9.48D-10
 IDIUse=1 WtCom= 1.00D+00 WtEn= 0.00D+00
 Coeff-Com:  0.268D-07-0.140D-05 0.952D-03-0.373D-03 0.283D-02 0.927D-03
 Coeff-Com: -0.545D-02-0.127D-01-0.160D-01 0.604D-01 0.865D-01-0.139D+00
 Coeff-Com: -0.510D+00 0.129D-01 0.152D+01
 Coeff:      0.268D-07-0.140D-05 0.952D-03-0.373D-03 0.283D-02 0.927D-03
 Coeff:     -0.545D-02-0.127D-01-0.160D-01 0.604D-01 0.865D-01-0.139D+00
 Coeff:     -0.510D+00 0.129D-01 0.152D+01
 Gap=     0.029 Goal=   None    Shift=    0.000
 Gap=     0.041 Goal=   None    Shift=    0.000
 RMSDP=5.03D-06 MaxDP=2.23D-04 DE=-1.86D-08 OVMax= 5.32D-04

 Cycle  16  Pass 1  IDiag  1:
 E= -1136.10466419633     Delta-E=       -0.000000018627 Rises=F Damp=F
 DIIS: error= 1.67D-06 at cycle  16 NSaved=  16.
 NSaved=16 IEnMin=16 EnMin= -1136.10466419633     IErMin=16 ErrMin= 1.67D-06
 ErrMax= 1.67D-06  0.00D+00 EMaxC= 1.00D-01 BMatC= 4.38D-10 BMatP= 6.77D-10
 IDIUse=1 WtCom= 1.00D+00 WtEn= 0.00D+00
 Coeff-Com: -0.146D-04 0.147D-04 0.211D-03-0.175D-03 0.465D-03 0.178D-02
 Coeff-Com:  0.389D-02-0.263D-02-0.352D-01-0.206D-01 0.854D-01 0.337D+00
 Coeff-Com: -0.347D+00-0.108D+01 0.234D+00 0.182D+01
 Coeff:     -0.146D-04 0.147D-04 0.211D-03-0.175D-03 0.465D-03 0.178D-02
 Coeff:      0.389D-02-0.263D-02-0.352D-01-0.206D-01 0.854D-01 0.337D+00
 Coeff:     -0.347D+00-0.108D+01 0.234D+00 0.182D+01
 Gap=     0.029 Goal=   None    Shift=    0.000
 Gap=     0.041 Goal=   None    Shift=    0.000
 RMSDP=7.62D-06 MaxDP=3.60D-04 DE=-1.86D-08 OVMax= 8.21D-04

 Cycle  17  Pass 1  IDiag  1:
 E= -1136.10466421617     Delta-E=       -0.000000019838 Rises=F Damp=F
 DIIS: error= 9.37D-07 at cycle  17 NSaved=  17.
 NSaved=17 IEnMin=17 EnMin= -1136.10466421617     IErMin=17 ErrMin= 9.37D-07
 ErrMax= 9.37D-07  0.00D+00 EMaxC= 1.00D-01 BMatC= 1.30D-10 BMatP= 4.38D-10
 IDIUse=1 WtCom= 1.00D+00 WtEn= 0.00D+00
 Coeff-Com: -0.997D-06 0.629D-06-0.399D-03 0.868D-04-0.109D-02-0.338D-03
 Coeff-Com:  0.172D-02 0.169D-02 0.512D-02-0.147D-01-0.377D-01 0.122D-01
 Coeff-Com:  0.275D+00 0.749D-01-0.106D+01 0.172D+00 0.157D+01
 Coeff:     -0.997D-06 0.629D-06-0.399D-03 0.868D-04-0.109D-02-0.338D-03
 Coeff:      0.172D-02 0.169D-02 0.512D-02-0.147D-01-0.377D-01 0.122D-01
 Coeff:      0.275D+00 0.749D-01-0.106D+01 0.172D+00 0.157D+01
 Gap=     0.029 Goal=   None    Shift=    0.000
 Gap=     0.041 Goal=   None    Shift=    0.000
 RMSDP=6.67D-06 MaxDP=3.11D-04 DE=-1.98D-08 OVMax= 7.09D-04

 Cycle  18  Pass 1  IDiag  1:
 E= -1136.10466422418     Delta-E=       -0.000000008014 Rises=F Damp=F
 DIIS: error= 3.31D-07 at cycle  18 NSaved=  18.
 NSaved=18 IEnMin=18 EnMin= -1136.10466422418     IErMin=18 ErrMin= 3.31D-07
 ErrMax= 3.31D-07  0.00D+00 EMaxC= 1.00D-01 BMatC= 2.54D-11 BMatP= 1.30D-10
 IDIUse=1 WtCom= 1.00D+00 WtEn= 0.00D+00
 Coeff-Com:  0.699D-05-0.865D-05-0.156D-03 0.592D-04-0.430D-03-0.531D-03
 Coeff-Com: -0.631D-04 0.162D-02 0.862D-02 0.606D-03-0.325D-01-0.518D-01
 Coeff-Com:  0.143D+00 0.249D+00-0.334D+00-0.385D+00 0.388D+00 0.101D+01
 Coeff:      0.699D-05-0.865D-05-0.156D-03 0.592D-04-0.430D-03-0.531D-03
 Coeff:     -0.631D-04 0.162D-02 0.862D-02 0.606D-03-0.325D-01-0.518D-01
 Coeff:      0.143D+00 0.249D+00-0.334D+00-0.385D+00 0.388D+00 0.101D+01
 Gap=     0.029 Goal=   None    Shift=    0.000
 Gap=     0.041 Goal=   None    Shift=    0.000
 RMSDP=2.23D-06 MaxDP=1.01D-04 DE=-8.01D-09 OVMax= 2.33D-04

 Cycle  19  Pass 1  IDiag  1:
 E= -1136.10466422496     Delta-E=       -0.000000000776 Rises=F Damp=F
 DIIS: error= 1.01D-07 at cycle  19 NSaved=  19.
 NSaved=19 IEnMin=19 EnMin= -1136.10466422496     IErMin=19 ErrMin= 1.01D-07
 ErrMax= 1.01D-07  0.00D+00 EMaxC= 1.00D-01 BMatC= 3.03D-12 BMatP= 2.54D-11
 IDIUse=1 WtCom= 1.00D+00 WtEn= 0.00D+00
 Coeff-Com:  0.240D-05-0.299D-05 0.650D-04-0.162D-04 0.203D-03-0.822D-05
 Coeff-Com: -0.217D-03-0.177D-03-0.687D-03 0.342D-02 0.498D-02-0.144D-01
 Coeff-Com: -0.283D-01 0.263D-01 0.158D+00-0.113D+00-0.213D+00 0.585D-01
 Coeff-Com:  0.112D+01
 Coeff:      0.240D-05-0.299D-05 0.650D-04-0.162D-04 0.203D-03-0.822D-05
 Coeff:     -0.217D-03-0.177D-03-0.687D-03 0.342D-02 0.498D-02-0.144D-01
 Coeff:     -0.283D-01 0.263D-01 0.158D+00-0.113D+00-0.213D+00 0.585D-01
 Coeff:      0.112D+01
 Gap=     0.029 Goal=   None    Shift=    0.000
 Gap=     0.041 Goal=   None    Shift=    0.000
 RMSDP=6.26D-07 MaxDP=3.02D-05 DE=-7.76D-10 OVMax= 5.99D-05

 Cycle  20  Pass 1  IDiag  1:
 E= -1136.10466422503     Delta-E=       -0.000000000066 Rises=F Damp=F
 DIIS: error= 2.31D-08 at cycle  20 NSaved=  20.
 NSaved=20 IEnMin=20 EnMin= -1136.10466422503     IErMin=20 ErrMin= 2.31D-08
 ErrMax= 2.31D-08  0.00D+00 EMaxC= 1.00D-01 BMatC= 3.31D-13 BMatP= 3.03D-12
 IDIUse=1 WtCom= 1.00D+00 WtEn= 0.00D+00
 Coeff-Com: -0.213D-05 0.278D-05 0.853D-05-0.302D-05 0.175D-04 0.388D-04
 Coeff-Com: -0.128D-03-0.182D-04-0.449D-03-0.663D-03 0.140D-02 0.781D-02
 Coeff-Com: -0.103D-01-0.303D-01 0.514D-02 0.699D-01 0.541D-03-0.133D+00
 Coeff-Com: -0.208D+00 0.130D+01
 Coeff:     -0.213D-05 0.278D-05 0.853D-05-0.302D-05 0.175D-04 0.388D-04
 Coeff:     -0.128D-03-0.182D-04-0.449D-03-0.663D-03 0.140D-02 0.781D-02
 Coeff:     -0.103D-01-0.303D-01 0.514D-02 0.699D-01 0.541D-03-0.133D+00
 Coeff:     -0.208D+00 0.130D+01
 Gap=     0.029 Goal=   None    Shift=    0.000
 Gap=     0.041 Goal=   None    Shift=    0.000
 RMSDP=7.54D-08 MaxDP=3.43D-06 DE=-6.59D-11 OVMax= 3.06D-06

 Cycle  21  Pass 1  IDiag  1:
 E= -1136.10466422502     Delta-E=        0.000000000005 Rises=F Damp=F
 DIIS: error= 1.69D-08 at cycle  21 NSaved=  20.
 NSaved=20 IEnMin=19 EnMin= -1136.10466422503     IErMin=20 ErrMin= 1.69D-08
 ErrMax= 1.69D-08  0.00D+00 EMaxC= 1.00D-01 BMatC= 7.64D-14 BMatP= 3.31D-13
 IDIUse=1 WtCom= 1.00D+00 WtEn= 0.00D+00
 Coeff-Com: -0.163D-06-0.504D-05 0.611D-06-0.166D-04 0.172D-06-0.361D-04
 Coeff-Com: -0.570D-04 0.186D-03-0.378D-03-0.453D-03 0.171D-02 0.394D-02
 Coeff-Com: -0.634D-02-0.264D-01 0.292D-01 0.336D-01-0.240D-01-0.225D+00
 Coeff-Com:  0.283D+00 0.931D+00
 Coeff:     -0.163D-06-0.504D-05 0.611D-06-0.166D-04 0.172D-06-0.361D-04
 Coeff:     -0.570D-04 0.186D-03-0.378D-03-0.453D-03 0.171D-02 0.394D-02
 Coeff:     -0.634D-02-0.264D-01 0.292D-01 0.336D-01-0.240D-01-0.225D+00
 Coeff:      0.283D+00 0.931D+00
 Gap=     0.029 Goal=   None    Shift=    0.000
 Gap=     0.041 Goal=   None    Shift=    0.000
 RMSDP=2.63D-08 MaxDP=1.73D-06 DE= 5.23D-12 OVMax= 2.16D-06

 Cycle  22  Pass 1  IDiag  1:
 E= -1136.10466422501     Delta-E=        0.000000000008 Rises=F Damp=F
 DIIS: error= 6.06D-09 at cycle  22 NSaved=  20.
 NSaved=20 IEnMin=18 EnMin= -1136.10466422503     IErMin=20 ErrMin= 6.06D-09
 ErrMax= 6.06D-09  0.00D+00 EMaxC= 1.00D-01 BMatC= 1.15D-14 BMatP= 7.64D-14
 IDIUse=1 WtCom= 1.00D+00 WtEn= 0.00D+00
 Coeff-Com: -0.200D-05 0.425D-06-0.665D-05 0.191D-05 0.146D-04-0.232D-04
 Coeff-Com:  0.902D-05-0.416D-04-0.160D-03 0.393D-03 0.175D-02-0.415D-03
 Coeff-Com: -0.863D-02 0.336D-02 0.109D-01 0.510D-06-0.455D-01-0.617D-01
 Coeff-Com:  0.246D+00 0.854D+00
 Coeff:     -0.200D-05 0.425D-06-0.665D-05 0.191D-05 0.146D-04-0.232D-04
 Coeff:      0.902D-05-0.416D-04-0.160D-03 0.393D-03 0.175D-02-0.415D-03
 Coeff:     -0.863D-02 0.336D-02 0.109D-01 0.510D-06-0.455D-01-0.617D-01
 Coeff:      0.246D+00 0.854D+00
 Gap=     0.029 Goal=   None    Shift=    0.000
 Gap=     0.041 Goal=   None    Shift=    0.000
 RMSDP=1.93D-08 MaxDP=7.45D-07 DE= 8.41D-12 OVMax= 1.45D-06

 Cycle  23  Pass 1  IDiag  1:
 E= -1136.10466422502     Delta-E=       -0.000000000009 Rises=F Damp=F
 DIIS: error= 2.29D-09 at cycle  23 NSaved=  20.
 NSaved=20 IEnMin=17 EnMin= -1136.10466422503     IErMin=20 ErrMin= 2.29D-09
 ErrMax= 2.29D-09  0.00D+00 EMaxC= 1.00D-01 BMatC= 1.94D-15 BMatP= 1.15D-14
 IDIUse=1 WtCom= 1.00D+00 WtEn= 0.00D+00
 Large coefficients: NSaved= 20 BigCof=    0.00 CofMax=   10.00 Det=-5.96D-15
 Inversion failed.  Reducing to 19 matrices.
 Large coefficients: NSaved= 19 BigCof=    0.00 CofMax=   10.00 Det=-5.99D-15
 Inversion failed.  Reducing to 18 matrices.
 Large coefficients: NSaved= 18 BigCof=    0.00 CofMax=   10.00 Det=-6.56D-15
 Inversion failed.  Reducing to 17 matrices.
 Large coefficients: NSaved= 17 BigCof=    0.00 CofMax=   10.00 Det=-6.67D-15
 Inversion failed.  Reducing to 16 matrices.
 Large coefficients: NSaved= 16 BigCof=    0.00 CofMax=   10.00 Det=-6.80D-15
 Inversion failed.  Reducing to 15 matrices.
 Coeff-Com:  0.824D-05 0.618D-04-0.616D-04-0.223D-03 0.597D-04 0.674D-03
 Coeff-Com:  0.894D-03-0.267D-02-0.187D-03 0.215D-02 0.101D-01-0.434D-01
 Coeff-Com: -0.375D-01 0.126D+00 0.944D+00
 Coeff:      0.824D-05 0.618D-04-0.616D-04-0.223D-03 0.597D-04 0.674D-03
 Coeff:      0.894D-03-0.267D-02-0.187D-03 0.215D-02 0.101D-01-0.434D-01
 Coeff:     -0.375D-01 0.126D+00 0.944D+00
 Gap=     0.029 Goal=   None    Shift=    0.000
 Gap=     0.041 Goal=   None    Shift=    0.000
 RMSDP=4.93D-09 MaxDP=2.56D-07 DE=-9.09D-12 OVMax= 3.15D-07

 SCF Done:  E(UB3LYP) =  -1136.10466423     A.U. after   23 cycles
            NFock= 23  Conv=0.49D-08     -V/T= 2.0029
 <Sx>= 0.0000 <Sy>= 0.0000 <Sz>= 0.5000 <S**2>= 0.7833 S= 0.5165
 <L.S>= 0.000000000000E+00
 KE= 1.132870527011D+03 PE=-3.256085820791D+03 EE= 7.235399956138D+02
 Annihilation of the first spin contaminant:
 S**2 before annihilation     0.7833,   after     0.7506
 Leave Link  502 at Wed Nov 29 01:16:06 2023, MaxMem=  1879048192 cpu:             177.4 elap:              16.8
 (Enter /home/sekinelabo/g16/l601.exe)
 Copying SCF densities to generalized density rwf, IOpCl= 1 IROHF=0.

 **********************************************************************

            Population analysis using the SCF Density.

 **********************************************************************

 Orbital symmetries:
 Alpha Orbitals:
       Occupied  (A) (A) (A) (A) (A) (A) (A) (A) (A) (A) (A) (A)
                 (A) (A) (A) (A) (A) (A) (A) (A) (A) (A) (A) (A)
                 (A) (A) (A) (A) (A) (A) (A) (A) (A) (A) (A) (A)
                 (A) (A) (A)
       Virtual   (A) (A) (A) (A) (A) (A) (A) (A) (A) (A) (A) (A)
                 (A) (A) (A) (A) (A) (A) (A) (A) (A) (A) (A) (A)
                 (A) (A) (A) (A) (A) (A) (A) (A) (A) (A) (A) (A)
                 (A) (A) (A) (A) (A) (A) (A) (A) (A) (A) (A) (A)
                 (A) (A) (A) (A) (A) (A) (A) (A) (A) (A) (A) (A)
                 (A) (A) (A) (A) (A) (A) (A) (A) (A) (A) (A) (A)
                 (A) (A) (A) (A) (A) (A) (A) (A) (A) (A) (A) (A)
                 (A) (A) (A) (A) (A) (A) (A) (A) (A) (A) (A) (A)
                 (A) (A) (A) (A) (A) (A) (A) (A) (A) (A) (A) (A)
                 (A) (A) (A) (A) (A) (A) (A) (A) (A) (A) (A) (A)
                 (A) (A) (A) (A) (A) (A) (A) (A) (A) (A) (A) (A)
                 (A) (A) (A) (A) (A) (A) (A) (A) (A) (A) (A) (A)
                 (A) (A) (A) (A) (A) (A) (A) (A) (A) (A) (A) (A)
                 (A) (A) (A) (A) (A) (A) (A) (A) (A) (A) (A) (A)
                 (A) (A) (A)
 Beta  Orbitals:
       Occupied  (A) (A) (A) (A) (A) (A) (A) (A) (A) (A) (A) (A)
                 (A) (A) (A) (A) (A) (A) (A) (A) (A) (A) (A) (A)
                 (A) (A) (A) (A) (A) (A) (A) (A) (A) (A) (A) (A)
                 (A) (A)
       Virtual   (A) (A) (A) (A) (A) (A) (A) (A) (A) (A) (A) (A)
                 (A) (A) (A) (A) (A) (A) (A) (A) (A) (A) (A) (A)
                 (A) (A) (A) (A) (A) (A) (A) (A) (A) (A) (A) (A)
                 (A) (A) (A) (A) (A) (A) (A) (A) (A) (A) (A) (A)
                 (A) (A) (A) (A) (A) (A) (A) (A) (A) (A) (A) (A)
                 (A) (A) (A) (A) (A) (A) (A) (A) (A) (A) (A) (A)
                 (A) (A) (A) (A) (A) (A) (A) (A) (A) (A) (A) (A)
                 (A) (A) (A) (A) (A) (A) (A) (A) (A) (A) (A) (A)
                 (A) (A) (A) (A) (A) (A) (A) (A) (A) (A) (A) (A)
                 (A) (A) (A) (A) (A) (A) (A) (A) (A) (A) (A) (A)
                 (A) (A) (A) (A) (A) (A) (A) (A) (A) (A) (A) (A)
                 (A) (A) (A) (A) (A) (A) (A) (A) (A) (A) (A) (A)
                 (A) (A) (A) (A) (A) (A) (A) (A) (A) (A) (A) (A)
                 (A) (A) (A) (A) (A) (A) (A) (A) (A) (A) (A) (A)
                 (A) (A) (A) (A)
 The electronic state is 2-A.
 Alpha  occ. eigenvalues --  -38.45628 -38.44922 -38.44475 -38.44220 -38.44015
 Alpha  occ. eigenvalues --  -38.43791 -38.43774  -2.21395  -2.20694  -2.20332
 Alpha  occ. eigenvalues --   -2.20053  -2.19896  -2.19639  -2.19571  -1.15094
 Alpha  occ. eigenvalues --   -1.15084  -1.14983  -1.14353  -1.14351  -1.14337
 Alpha  occ. eigenvalues --   -1.14143  -1.13974  -1.13944  -1.13717  -1.13708
 Alpha  occ. eigenvalues --   -1.13626  -1.13594  -1.13552  -1.13513  -1.13308
 Alpha  occ. eigenvalues --   -1.13297  -1.13287  -1.13222  -1.13212  -1.13176
 Alpha  occ. eigenvalues --   -0.16370  -0.14690  -0.11795  -0.10423
 Alpha virt. eigenvalues --   -0.07510  -0.05259  -0.04620  -0.03509  -0.02876
 Alpha virt. eigenvalues --   -0.02722  -0.02169  -0.01862  -0.01057  -0.00780
 Alpha virt. eigenvalues --   -0.00474  -0.00189   0.00092   0.00267   0.00500
 Alpha virt. eigenvalues --    0.00584   0.00704   0.00888   0.01037   0.01146
 Alpha virt. eigenvalues --    0.01229   0.01405   0.01518   0.01718   0.01726
 Alpha virt. eigenvalues --    0.01910   0.01952   0.02059   0.02188   0.02281
 Alpha virt. eigenvalues --    0.02363   0.02554   0.02608   0.02661   0.02813
 Alpha virt. eigenvalues --    0.02947   0.03082   0.03267   0.03374   0.03519
 Alpha virt. eigenvalues --    0.03670   0.03802   0.03873   0.03977   0.04326
 Alpha virt. eigenvalues --    0.04389   0.04651   0.04805   0.05135   0.05284
 Alpha virt. eigenvalues --    0.05686   0.06159   0.06657   0.07002   0.07417
 Alpha virt. eigenvalues --    0.07535   0.07873   0.08133   0.08204   0.08493
 Alpha virt. eigenvalues --    0.08731   0.09097   0.09158   0.09412   0.09658
 Alpha virt. eigenvalues --    0.09748   0.10053   0.10780   0.11321   0.11622
 Alpha virt. eigenvalues --    0.12039   0.12705   0.12835   0.13540   0.13827
 Alpha virt. eigenvalues --    0.14371   0.14717   0.15060   0.16615   0.17182
 Alpha virt. eigenvalues --    0.26581   0.28285   0.28590   0.28799   0.29957
 Alpha virt. eigenvalues --    0.30348   0.30746   0.31082   0.31970   0.32167
 Alpha virt. eigenvalues --    0.33344   0.34054   0.34642   0.35331   0.35549
 Alpha virt. eigenvalues --    0.35982   0.36479   0.37234   0.37708   0.38264
 Alpha virt. eigenvalues --    0.39943   0.41049   0.42336   0.43098   0.43172
 Alpha virt. eigenvalues --    0.43205   0.43433   0.43703   0.43823   0.44127
 Alpha virt. eigenvalues --    0.44504   0.44903   0.45072   0.45207   0.45258
 Alpha virt. eigenvalues --    0.45636   0.46237   0.46568   0.47114   0.47157
 Alpha virt. eigenvalues --    0.47687   0.48559   0.49083   0.50470   0.50736
 Alpha virt. eigenvalues --    0.51694   0.52135   0.53655   0.54854   0.56306
 Alpha virt. eigenvalues --    0.56924   0.59187   0.63059   0.63508   0.69689
 Alpha virt. eigenvalues --    0.76335   2.03427   2.06807   2.08894   2.12445
 Alpha virt. eigenvalues --    2.13697   2.18307   2.19067   4.41684   4.42153
 Alpha virt. eigenvalues --    4.42886   4.43358   4.43665   4.43790   4.44379
 Alpha virt. eigenvalues --    4.44676   4.44781   4.45216   4.45465   4.45921
 Alpha virt. eigenvalues --    4.46706   4.47477   4.48344   4.51096   4.53560
 Alpha virt. eigenvalues --    4.55322   4.55893   4.61820   4.71048  96.23020
 Alpha virt. eigenvalues --   96.27218  96.29516  96.33796  96.35368  96.42088
 Alpha virt. eigenvalues --   96.42573
  Beta  occ. eigenvalues --  -38.45621 -38.44896 -38.44479 -38.44210 -38.43947
  Beta  occ. eigenvalues --  -38.43771 -38.43705  -2.21381  -2.20645  -2.20341
  Beta  occ. eigenvalues --   -2.20033  -2.19773  -2.19609  -2.19441  -1.15086
  Beta  occ. eigenvalues --   -1.15065  -1.14973  -1.14320  -1.14317  -1.14307
  Beta  occ. eigenvalues --   -1.14138  -1.13982  -1.13946  -1.13703  -1.13690
  Beta  occ. eigenvalues --   -1.13622  -1.13514  -1.13466  -1.13421  -1.13293
  Beta  occ. eigenvalues --   -1.13268  -1.13221  -1.13132  -1.13122  -1.13098
  Beta  occ. eigenvalues --   -0.15919  -0.14370  -0.11460
  Beta virt. eigenvalues --   -0.07337  -0.06702  -0.04836  -0.04549  -0.03341
  Beta virt. eigenvalues --   -0.02718  -0.02264  -0.01770  -0.01649  -0.00755
  Beta virt. eigenvalues --   -0.00595  -0.00257   0.00100   0.00167   0.00428
  Beta virt. eigenvalues --    0.00572   0.00621   0.00757   0.00969   0.01090
  Beta virt. eigenvalues --    0.01237   0.01370   0.01537   0.01597   0.01759
  Beta virt. eigenvalues --    0.01879   0.02023   0.02039   0.02123   0.02302
  Beta virt. eigenvalues --    0.02371   0.02499   0.02608   0.02658   0.02714
  Beta virt. eigenvalues --    0.02873   0.03093   0.03239   0.03317   0.03448
  Beta virt. eigenvalues --    0.03602   0.03737   0.03859   0.03935   0.04048
  Beta virt. eigenvalues --    0.04407   0.04526   0.04716   0.04881   0.05219
  Beta virt. eigenvalues --    0.05398   0.05737   0.06222   0.06711   0.07102
  Beta virt. eigenvalues --    0.07439   0.07675   0.07911   0.08217   0.08394
  Beta virt. eigenvalues --    0.08646   0.08847   0.09217   0.09274   0.09737
  Beta virt. eigenvalues --    0.09812   0.09910   0.10225   0.10891   0.11528
  Beta virt. eigenvalues --    0.11802   0.12169   0.12841   0.13079   0.13676
  Beta virt. eigenvalues --    0.14030   0.14542   0.14838   0.15229   0.16799
  Beta virt. eigenvalues --    0.17264   0.26927   0.28443   0.28994   0.29030
  Beta virt. eigenvalues --    0.30204   0.30446   0.30950   0.31386   0.32191
  Beta virt. eigenvalues --    0.32344   0.33565   0.34257   0.34876   0.35612
  Beta virt. eigenvalues --    0.35891   0.36382   0.37001   0.37592   0.38274
  Beta virt. eigenvalues --    0.38447   0.40189   0.41210   0.42438   0.43227
  Beta virt. eigenvalues --    0.43284   0.43322   0.43561   0.43883   0.44043
  Beta virt. eigenvalues --    0.44362   0.44674   0.44957   0.45126   0.45340
  Beta virt. eigenvalues --    0.45402   0.45748   0.46344   0.46678   0.47241
  Beta virt. eigenvalues --    0.47265   0.47769   0.48806   0.49233   0.50645
  Beta virt. eigenvalues --    0.50861   0.51896   0.52265   0.53708   0.54967
  Beta virt. eigenvalues --    0.56428   0.57004   0.59412   0.63132   0.63698
  Beta virt. eigenvalues --    0.69923   0.76331   2.03527   2.06920   2.09085
  Beta virt. eigenvalues --    2.12516   2.13829   2.18312   2.19235   4.41703
  Beta virt. eigenvalues --    4.42182   4.42980   4.43379   4.43711   4.43826
  Beta virt. eigenvalues --    4.44398   4.44705   4.44815   4.45250   4.45562
  Beta virt. eigenvalues --    4.46017   4.46763   4.47500   4.48375   4.51128
  Beta virt. eigenvalues --    4.53610   4.55337   4.55946   4.61918   4.71057
  Beta virt. eigenvalues --   96.23054  96.27259  96.29578  96.33821  96.35409
  Beta virt. eigenvalues --   96.42095  96.42632
          Condensed to atoms (all electrons):
               1          2          3          4          5          6
     1  Na  11.786789   0.191125  -0.272088  -0.190056   0.004429  -0.211836
     2  Na   0.191125  10.674254   0.190127  -0.064434  -0.257981   0.021188
     3  Na  -0.272088   0.190127  10.895707   0.179485  -0.070063   0.050111
     4  Na  -0.190056  -0.064434   0.179485  10.861367   0.119140   0.080324
     5  Na   0.004429  -0.257981  -0.070063   0.119140  11.862736  -0.092642
     6  Na  -0.211836   0.021188   0.050111   0.080324  -0.092642  10.619132
     7  Na  -0.033021  -0.020515   0.001426  -0.007396   0.094997   0.146472
               7
     1  Na  -0.033021
     2  Na  -0.020515
     3  Na   0.001426
     4  Na  -0.007396
     5  Na   0.094997
     6  Na   0.146472
     7  Na  10.582432
          Atomic-Atomic Spin Densities.
               1          2          3          4          5          6
     1  Na   0.942927  -0.054060  -0.241203  -0.072516   0.036177  -0.098467
     2  Na  -0.054060  -0.117253  -0.000702   0.035734   0.095867   0.019141
     3  Na  -0.241203  -0.000702   0.483726   0.082345   0.016082   0.009843
     4  Na  -0.072516   0.035734   0.082345   0.109610  -0.028470   0.003095
     5  Na   0.036177   0.095867   0.016082  -0.028470  -0.157576   0.010381
     6  Na  -0.098467   0.019141   0.009843   0.003095   0.010381   0.029431
     7  Na   0.036669   0.004017  -0.004354  -0.035008  -0.028531  -0.014241
               7
     1  Na   0.036669
     2  Na   0.004017
     3  Na  -0.004354
     4  Na  -0.035008
     5  Na  -0.028531
     6  Na  -0.014241
     7  Na   0.165535
 Mulliken charges and spin densities:
               1          2
     1  Na  -0.275343   0.549528
     2  Na   0.266236  -0.017256
     3  Na   0.025295   0.345737
     4  Na   0.021571   0.094791
     5  Na  -0.660616  -0.056070
     6  Na   0.387251  -0.040816
     7  Na   0.235605   0.124086
 Sum of Mulliken charges =  -0.00000   1.00000
 Mulliken charges and spin densities with hydrogens summed into heavy atoms:
               1          2
     1  Na  -0.275343   0.549528
     2  Na   0.266236  -0.017256
     3  Na   0.025295   0.345737
     4  Na   0.021571   0.094791
     5  Na  -0.660616  -0.056070
     6  Na   0.387251  -0.040816
     7  Na   0.235605   0.124086
 Electronic spatial extent (au):  <R**2>=           5770.4880
 Charge=             -0.0000 electrons
 Dipole moment (field-independent basis, Debye):
    X=              1.5220    Y=              0.1886    Z=             -0.4473  Tot=              1.5975
 Quadrupole moment (field-independent basis, Debye-Ang):
   XX=            -65.4338   YY=            -70.7826   ZZ=            -66.0815
   XY=              2.3939   XZ=             -3.3250   YZ=             -1.5195
 Traceless Quadrupole moment (field-independent basis, Debye-Ang):
   XX=              1.9989   YY=             -3.3500   ZZ=              1.3511
   XY=              2.3939   XZ=             -3.3250   YZ=             -1.5195
 Octapole moment (field-independent basis, Debye-Ang**2):
  XXX=             97.5399  YYY=             -2.0122  ZZZ=              0.4804  XYY=              2.2712
  XXY=              4.5784  XXZ=            -45.4893  XZZ=             15.9496  YZZ=             -0.2209
  YYZ=              1.1255  XYZ=            -14.6830
 Hexadecapole moment (field-independent basis, Debye-Ang**3):
 XXXX=          -7525.4800 YYYY=           -982.4078 ZZZZ=           -458.8965 XXXY=            240.5493
 XXXZ=           -394.9175 YYYX=              4.1019 YYYZ=            -15.4630 ZZZX=             18.3301
 ZZZY=             -9.7803 XXYY=          -1557.0621 XXZZ=          -1329.4755 YYZZ=           -233.1072
 XXYZ=             33.7243 YYXZ=            -17.9671 ZZXY=             20.1216
 N-N= 2.635706339408D+02 E-N=-3.256085820661D+03  KE= 1.132870527011D+03
                          Isotropic Fermi Contact Couplings
        Atom                 a.u.       MegaHertz       Gauss      10(-4) cm-1
     1  Na(23)             0.26773     316.73559     113.01913     105.65162
     2  Na(23)             0.01392      16.47297       5.87796       5.49479
     3  Na(23)             0.30431     360.00540     128.45888     120.08487
     4  Na(23)             0.01773      20.97174       7.48324       6.99542
     5  Na(23)             0.05208      61.61214      21.98474      20.55160
     6  Na(23)            -0.04030     -47.67345     -17.01107     -15.90215
     7  Na(23)             0.11502     136.07764      48.55589      45.39062
 --------------------------------------------------------
       Center         ----  Spin Dipole Couplings  ----
                      3XX-RR        3YY-RR        3ZZ-RR
 --------------------------------------------------------
     1   Atom        0.010922     -0.006631     -0.004291
     2   Atom        0.006020      0.021115     -0.027135
     3   Atom        0.003073     -0.004027      0.000954
     4   Atom       -0.004020      0.010687     -0.006667
     5   Atom       -0.011339      0.008802      0.002537
     6   Atom        0.016922     -0.008539     -0.008383
     7   Atom       -0.001105      0.001020      0.000085
 --------------------------------------------------------
                        XY            XZ            YZ
 --------------------------------------------------------
     1   Atom        0.013774      0.013210      0.008822
     2   Atom       -0.041044      0.006420     -0.006358
     3   Atom        0.002754      0.000164     -0.005588
     4   Atom        0.003844     -0.000923      0.003381
     5   Atom        0.001248     -0.002151      0.002038
     6   Atom        0.004409     -0.002807     -0.001103
     7   Atom       -0.000713      0.002188      0.000541
 --------------------------------------------------------


 ---------------------------------------------------------------------------------
              Anisotropic Spin Dipole Couplings in Principal Axis System
 ---------------------------------------------------------------------------------

       Atom             a.u.   MegaHertz   Gauss  10(-4) cm-1        Axes

              Baa    -0.0148    -2.093    -0.747    -0.698 -0.2583  0.8751 -0.4092
     1 Na(23) Bbb    -0.0118    -1.663    -0.593    -0.555 -0.5801  0.1982  0.7901
              Bcc     0.0266     3.756     1.340     1.253  0.7725  0.4414  0.4564
 
              Baa    -0.0290    -4.094    -1.461    -1.366 -0.5999 -0.4038  0.6907
     2 Na(23) Bbb    -0.0273    -3.852    -1.374    -1.285  0.4839  0.5044  0.7151
              Bcc     0.0563     7.946     2.835     2.650 -0.6371  0.7633 -0.1072
 
              Baa    -0.0082    -1.154    -0.412    -0.385 -0.2112  0.8319  0.5131
     3 Na(23) Bbb     0.0027     0.376     0.134     0.125  0.8011 -0.1535  0.5785
              Bcc     0.0055     0.778     0.278     0.260 -0.5601 -0.5332  0.6340
 
              Baa    -0.0081    -1.140    -0.407    -0.380  0.4299 -0.2447  0.8691
     4 Na(23) Bbb    -0.0041    -0.573    -0.205    -0.191  0.8758 -0.1211 -0.4673
              Bcc     0.0121     1.714     0.611     0.572  0.2196  0.9620  0.1622
 
              Baa    -0.0118    -1.664    -0.594    -0.555  0.9845 -0.0754  0.1586
     5 Na(23) Bbb     0.0024     0.333     0.119     0.111 -0.1732 -0.2663  0.9482
              Bcc     0.0094     1.331     0.475     0.444  0.0292  0.9609  0.2752
 
              Baa    -0.0097    -1.367    -0.488    -0.456 -0.0826  0.8397  0.5367
     6 Na(23) Bbb    -0.0083    -1.175    -0.419    -0.392  0.1833 -0.5165  0.8364
              Bcc     0.0180     2.541     0.907     0.848  0.9796  0.1674 -0.1113
 
              Baa    -0.0030    -0.421    -0.150    -0.140  0.7754  0.2183 -0.5926
     7 Na(23) Bbb     0.0012     0.172     0.061     0.057 -0.1703  0.9759  0.1368
              Bcc     0.0018     0.248     0.089     0.083  0.6081 -0.0052  0.7938
 

 ---------------------------------------------------------------------------------

 No NMR shielding tensors so no spin-rotation constants.
 Leave Link  601 at Wed Nov 29 01:16:06 2023, MaxMem=  1879048192 cpu:               2.3 elap:               0.2
 (Enter /home/sekinelabo/g16/l701.exe)
 ... and contract with generalized density number  0.
 Compute integral first derivatives.
 Leave Link  701 at Wed Nov 29 01:16:07 2023, MaxMem=  1879048192 cpu:               1.6 elap:               0.1
 (Enter /home/sekinelabo/g16/l702.exe)
 L702 exits ... SP integral derivatives will be done elsewhere.
 Leave Link  702 at Wed Nov 29 01:16:07 2023, MaxMem=  1879048192 cpu:               0.4 elap:               0.0
 (Enter /home/sekinelabo/g16/l703.exe)
 Integral derivatives from FoFJK, PRISM(SPDF).
 Compute integral first derivatives, UseDBF=F ICtDFT=           0.
 Calling FoFJK, ICntrl=      2127 FMM=F ISym2X=0 I1Cent= 0 IOpClX= 1 NMat=1 NMatS=1 NMatT=0.
 FoFJK:  IHMeth= 1 ICntrl=    2127 DoSepK=F KAlg= 0 I1Cent=           0 FoldK=F
 IRaf=         0 NMat=       1 IRICut=       1 DoRegI=T DoRafI=F ISym2E= 0 IDoP0=0 IntGTp=1.
 FoFCou: FMM=F IPFlag=           0 FMFlag=      100000 FMFlg1=         800
         NFxFlg=           0 DoJE=F BraDBF=F KetDBF=F FulRan=T
         wScrn=  0.000000 ICntrl=      2127 IOpCl=  1 I1Cent=           0 NGrid=           0
         NMat0=    1 NMatS0=      1 NMatT0=    0 NMatD0=    1 NMtDS0=    0 NMtDT0=    0
 Symmetry not used in FoFCou.
 Leave Link  703 at Wed Nov 29 01:16:08 2023, MaxMem=  1879048192 cpu:              26.7 elap:               1.8
 (Enter /home/sekinelabo/g16/l716.exe)
 Dipole        = 5.98781231D-01 7.41985797D-02-1.75992348D-01
 ***** Axes restored to original set *****
 -------------------------------------------------------------------
 Center     Atomic                   Forces (Hartrees/Bohr)
 Number     Number              X              Y              Z
 -------------------------------------------------------------------
      1       11           0.000412368    0.004115598    0.002432848
      2       11           0.000175994   -0.002433460   -0.000968973
      3       11          -0.000400790    0.000640530    0.002179708
      4       11           0.000339122    0.002096344   -0.000751665
      5       11          -0.006751012   -0.007880022   -0.006825796
      6       11           0.006285336    0.003204191    0.005916068
      7       11          -0.000061019    0.000256819   -0.001982189
 -------------------------------------------------------------------
 Cartesian Forces:  Max     0.007880022 RMS     0.003673253
 Z-matrix is all fixed cartesians, so copy forces.
 Force constants in Cartesian coordinates: 
                1             2             3             4             5 
      1  0.262599D-01
      2  0.114280D-02  0.646329D-01
      3  0.118646D-01 -0.639994D-02  0.430829D-01
      4 -0.158657D-01 -0.969620D-04 -0.451180D-02  0.361244D-01
      5 -0.107057D-01 -0.289433D-01 -0.633937D-02 -0.555554D-03  0.311654D-01
      6 -0.577120D-02  0.322042D-02 -0.149577D-01  0.781869D-02  0.802129D-02
      7  0.346314D-02 -0.144960D-02 -0.271313D-03 -0.199663D-01  0.887169D-02
      8  0.432682D-02 -0.179614D-02 -0.364382D-03  0.315258D-02 -0.789716D-02
      9  0.254744D-02 -0.111475D-02 -0.117409D-03 -0.114073D-02 -0.279102D-02
     10 -0.632542D-02  0.589796D-02 -0.494803D-02 -0.926192D-03  0.188559D-02
     11  0.490732D-02 -0.244724D-01  0.253721D-02 -0.223902D-02  0.295687D-02
     12 -0.803069D-02  0.899229D-02 -0.132119D-01 -0.200094D-02  0.216658D-02
     13 -0.104976D-01 -0.619267D-02 -0.752658D-03  0.546200D-03  0.529206D-03
     14 -0.277591D-03 -0.106597D-01  0.111957D-01 -0.838932D-04  0.266717D-02
     15  0.394410D-02 -0.274668D-02 -0.171943D-01 -0.187018D-03 -0.105120D-02
     16  0.281140D-02  0.101041D-02 -0.141915D-02  0.876832D-04 -0.252513D-04
     17  0.887766D-03  0.670064D-03 -0.559236D-03 -0.177148D-03  0.510156D-04
     18 -0.456813D-02 -0.192326D-02  0.239501D-02  0.217890D-04 -0.627487D-05
     19  0.154399D-03 -0.311935D-03  0.383677D-04  0.000000D+00  0.000000D+00
     20 -0.281425D-03  0.568566D-03 -0.699331D-04  0.000000D+00  0.000000D+00
     21  0.139006D-04 -0.280837D-04  0.345426D-05  0.000000D+00  0.000000D+00
                6             7             8             9            10 
      6  0.169151D-01
      7  0.177523D-02  0.165183D-01
      8 -0.358655D-02 -0.742482D-02  0.968343D-02
      9 -0.178376D-02 -0.151118D-02  0.392465D-02  0.195149D-02
     10 -0.246819D-02 -0.613139D-05 -0.221849D-04  0.424638D-04  0.123839D-01
     11 -0.325034D-02  0.000000D+00  0.000000D+00 -0.102942D-05 -0.709890D-02
     12 -0.209754D-02  0.458149D-05  0.165770D-04 -0.317297D-04  0.107424D-01
     13 -0.132823D-02 -0.895239D-05 -0.323920D-04  0.620010D-04 -0.896818D-02
     14 -0.445792D-02  0.257814D-05  0.932836D-05 -0.178553D-04  0.424718D-02
     15  0.193048D-02  0.268446D-05  0.971303D-05 -0.185915D-04 -0.203594D-02
     16 -0.262926D-04  0.000000D+00  0.000000D+00  0.000000D+00  0.393358D-02
     17  0.531193D-04  0.000000D+00  0.000000D+00  0.000000D+00 -0.507653D-02
     18 -0.653362D-05  0.000000D+00  0.000000D+00  0.000000D+00 -0.132446D-02
     19  0.000000D+00  0.000000D+00  0.000000D+00  0.000000D+00 -0.915582D-04
     20  0.000000D+00  0.000000D+00  0.000000D+00  0.000000D+00  0.166884D-03
     21  0.000000D+00  0.000000D+00  0.000000D+00  0.000000D+00 -0.824302D-05
               11            12            13            14            15 
     11  0.364415D-01
     12 -0.126196D-02  0.203091D-01
     13  0.485197D-02 -0.143834D-02  0.571177D-01
     14 -0.157659D-01 -0.839331D-02  0.727170D-02  0.410445D-01
     15  0.207114D-02 -0.519538D-02  0.643194D-02  0.787395D-02  0.484696D-01
     16 -0.317388D-03  0.513899D-03 -0.412495D-01 -0.132808D-01 -0.225729D-02
     17  0.649669D-03 -0.113908D-02 -0.827788D-02 -0.168657D-01 -0.396385D-02
     18 -0.856430D-04  0.208570D-03 -0.348976D-02 -0.650225D-02 -0.270433D-01
     19 -0.104124D-03  0.209084D-03  0.306038D-02  0.212085D-02 -0.589848D-02
     20  0.189788D-03 -0.381098D-03  0.185007D-02 -0.429661D-03 -0.219307D-02
     21 -0.937435D-05  0.188239D-04  0.515044D-03  0.301733D-03 -0.948417D-03
               16            17            18            19            20 
     16  0.432909D-01
     17  0.167865D-01  0.181898D-01
     18  0.827050D-03  0.548531D-02  0.487291D-01
     19 -0.887409D-02 -0.414268D-02  0.853350D-02  0.575086D-02
     20 -0.417342D-02 -0.269484D-02  0.303211D-02  0.243789D-02  0.236615D-02
     21  0.236177D-02  0.123741D-03 -0.242828D-01 -0.288248D-02 -0.388015D-03
               21 
     21  0.252090D-01
 Leave Link  716 at Wed Nov 29 01:16:08 2023, MaxMem=  1879048192 cpu:               0.4 elap:               0.0
 (Enter /home/sekinelabo/g16/l103.exe)

 GradGradGradGradGradGradGradGradGradGradGradGradGradGradGradGradGradGrad
 Berny optimization.
 Search for a local minimum.
 Step number   1 out of a maximum of    2
 All quantities printed in internal units (Hartrees-Bohrs-Radians)
 Second derivative matrix not updated -- first step.
 ITU=  0
     Eigenvalues ---    0.00061   0.00099   0.00368   0.00565   0.01033
     Eigenvalues ---    0.01797   0.02109   0.03002   0.04219   0.05178
     Eigenvalues ---    0.05803   0.07483   0.08437   0.09183   0.11064
 Quadratic step=3.138D+00 exceeds max=3.000D-01 adjusted using Lamda=-1.031D-02.
 Angle between NR and scaled steps=  42.56 degrees.
 Angle between quadratic step and forces=  48.68 degrees.
 Linear search not attempted -- first point.
 B after Tr=     0.000000   -0.000000   -0.000000
         Rot=    1.000000   -0.000000    0.000000    0.000000 Ang=   0.00 deg.
 Variable       Old X    -DE/DX   Delta X   Delta X   Delta X     New X
                                 (Linear)    (Quad)   (Total)
    X1       26.35129   0.00041   0.00000  -0.05937  -0.05937  26.29192
    Y1       29.89830   0.00412   0.00000   0.06677   0.06677  29.96507
    Z1       24.78810   0.00243   0.00000   0.03670   0.03670  24.82480
    X2       24.14900   0.00018   0.00000   0.00309   0.00309  24.15209
    Y2       25.15981  -0.00243   0.00000   0.00410   0.00410  25.16391
    Z2       21.99452  -0.00097   0.00000  -0.04018  -0.04018  21.95434
    X3       29.34159  -0.00040   0.00000   0.01920   0.01920  29.36079
    Y3       21.64379   0.00064   0.00000   0.02270   0.02270  21.66649
    Z3       20.90736   0.00218   0.00000   0.17924   0.17924  21.08660
    X4       28.94720   0.00034   0.00000   0.04354   0.04354  28.99074
    Y4       25.59502   0.00210   0.00000   0.05053   0.05053  25.64555
    Z4       28.40183  -0.00075   0.00000  -0.11197  -0.11197  28.28986
    X5       29.04301  -0.00675   0.00000  -0.05657  -0.05657  28.98644
    Y5       32.07735  -0.00788   0.00000  -0.12957  -0.12957  31.94778
    Z5       31.67200  -0.00683   0.00000  -0.06581  -0.06581  31.60619
    X6       33.03808   0.00629   0.00000   0.04599   0.04599  33.08407
    Y6       34.41305   0.00320   0.00000  -0.01721  -0.01721  34.39584
    Z6       34.58463   0.00592   0.00000   0.03586   0.03586  34.62049
    X7       32.13460  -0.00006   0.00000   0.00412   0.00412  32.13873
    Y7       34.21727   0.00026   0.00000   0.00267   0.00267  34.21995
    Z7       40.65632  -0.00198   0.00000  -0.03384  -0.03384  40.62248
         Item               Value     Threshold  Converged?
 Maximum Force            0.007880     0.000450     NO 
 RMS     Force            0.003673     0.000300     NO 
 Maximum Displacement     0.179239     0.001800     NO 
 RMS     Displacement     0.065520     0.001200     NO 
 Predicted change in Energy=-2.133142D-03
 GradGradGradGradGradGradGradGradGradGradGradGradGradGradGradGradGradGrad

 Leave Link  103 at Wed Nov 29 01:16:08 2023, MaxMem=  1879048192 cpu:               0.2 elap:               0.0
 (Enter /home/sekinelabo/g16/l9999.exe)
 1\1\GINC-SEKINELABO-XA7R-R37\Force\UB3LYP\6-311+G(d)\Na7(2)\SEKINELABO
 \29-Nov-2023\0\\#P B3LYP/6-311+g(d) force\\DPGEN\\0,2\Na,13.9445,15.82
 15,13.1173\Na,12.7791,13.314,11.639\Na,15.5269,11.4534,11.0637\Na,15.3
 182,13.5443,15.0296\Na,15.3689,16.9746,16.7601\Na,17.483,18.2106,18.30
 14\Na,17.0049,18.107,21.5144\\Version=ES64L-G16RevB.01\State=2-A\HF=-1
 136.1046642\S2=0.783285\S2-1=0.\S2A=0.75061\RMSD=4.926e-09\RMSF=3.673e
 -03\Dipole=0.0866303,0.1778745,0.5965514\Quadrupole=-1.810714,-2.43789
 29,4.2486069,0.9746143,-0.2466242,-0.7863888\PG=C01 [X(Na7)]\\@


 BE NOT THE FIRST BY WHOM THE NEW ARE TRIED,
 NOR YET THE THE LAST TO LAY THE OLD ASIDE.

                          -- ALEXANDER POPE
 Job cpu time:       0 days  0 hours  3 minutes 39.8 seconds.
 Elapsed time:       0 days  0 hours  0 minutes 19.6 seconds.
 File lengths (MBytes):  RWF=     32 Int=      0 D2E=      0 Chk=      4 Scr=      1
 Normal termination of Gaussian 16 at Wed Nov 29 01:16:09 2023.
