 Set GAUSS_MDEF to "14GB".
 Entering Gaussian System, Link 0=g16
 Initial command:
 /home/sekinelabo/g16/l1.exe "/home/sekinelabo/g16temp/Gau-22026.inp" -scrdir="/home/sekinelabo/g16temp/"
 Entering Link 1 = /home/sekinelabo/g16/l1.exe PID=     22028.
  
 Copyright (c) 1988-2017, Gaussian, Inc.  All Rights Reserved.
  
 This is part of the Gaussian(R) 16 program.  It is based on
 the Gaussian(R) 09 system (copyright 2009, Gaussian, Inc.),
 the Gaussian(R) 03 system (copyright 2003, Gaussian, Inc.),
 the Gaussian(R) 98 system (copyright 1998, Gaussian, Inc.),
 the Gaussian(R) 94 system (copyright 1995, Gaussian, Inc.),
 the Gaussian 92(TM) system (copyright 1992, Gaussian, Inc.),
 the Gaussian 90(TM) system (copyright 1990, Gaussian, Inc.),
 the Gaussian 88(TM) system (copyright 1988, Gaussian, Inc.),
 the Gaussian 86(TM) system (copyright 1986, Carnegie Mellon
 University), and the Gaussian 82(TM) system (copyright 1983,
 Carnegie Mellon University). Gaussian is a federally registered
 trademark of Gaussian, Inc.
  
 This software contains proprietary and confidential information,
 including trade secrets, belonging to Gaussian, Inc.
  
 This software is provided under written license and may be
 used, copied, transmitted, or stored only in accord with that
 written license.
  
 The following legend is applicable only to US Government
 contracts under FAR:
  
                    RESTRICTED RIGHTS LEGEND
  
 Use, reproduction and disclosure by the US Government is
 subject to restrictions as set forth in subparagraphs (a)
 and (c) of the Commercial Computer Software - Restricted
 Rights clause in FAR 52.227-19.
  
 Gaussian, Inc.
 340 Quinnipiac St., Bldg. 40, Wallingford CT 06492
  
  
 ---------------------------------------------------------------
 Warning -- This program may not be used in any manner that
 competes with the business of Gaussian, Inc. or will provide
 assistance to any competitor of Gaussian, Inc.  The licensee
 of this program is prohibited from giving any competitor of
 Gaussian, Inc. access to this program.  By using this program,
 the user acknowledges that Gaussian, Inc. is engaged in the
 business of creating and licensing software in the field of
 computational chemistry and represents and warrants to the
 licensee that it is not a competitor of Gaussian, Inc. and that
 it will not use this program in any manner prohibited above.
 ---------------------------------------------------------------
  

 Cite this work as:
 Gaussian 16, Revision B.01,
 M. J. Frisch, G. W. Trucks, H. B. Schlegel, G. E. Scuseria, 
 M. A. Robb, J. R. Cheeseman, G. Scalmani, V. Barone, 
 G. A. Petersson, H. Nakatsuji, X. Li, M. Caricato, A. V. Marenich, 
 J. Bloino, B. G. Janesko, R. Gomperts, B. Mennucci, H. P. Hratchian, 
 J. V. Ortiz, A. F. Izmaylov, J. L. Sonnenberg, D. Williams-Young, 
 F. Ding, F. Lipparini, F. Egidi, J. Goings, B. Peng, A. Petrone, 
 T. Henderson, D. Ranasinghe, V. G. Zakrzewski, J. Gao, N. Rega, 
 G. Zheng, W. Liang, M. Hada, M. Ehara, K. Toyota, R. Fukuda, 
 J. Hasegawa, M. Ishida, T. Nakajima, Y. Honda, O. Kitao, H. Nakai, 
 T. Vreven, K. Throssell, J. A. Montgomery, Jr., J. E. Peralta, 
 F. Ogliaro, M. J. Bearpark, J. J. Heyd, E. N. Brothers, K. N. Kudin, 
 V. N. Staroverov, T. A. Keith, R. Kobayashi, J. Normand, 
 K. Raghavachari, A. P. Rendell, J. C. Burant, S. S. Iyengar, 
 J. Tomasi, M. Cossi, J. M. Millam, M. Klene, C. Adamo, R. Cammi, 
 J. W. Ochterski, R. L. Martin, K. Morokuma, O. Farkas, 
 J. B. Foresman, and D. J. Fox, Gaussian, Inc., Wallingford CT, 2016.
 
 ******************************************
 Gaussian 16:  ES64L-G16RevB.01 20-Dec-2017
                 9-Dec-2023 
 ******************************************
 %nproc=15
 Will use up to   15 processors via shared memory.
 -------------------------
 #P B3LYP/6-311+g(d) force
 -------------------------
 1/10=7,30=1,38=1/1,3;
 2/12=2,17=6,18=5,40=1/2;
 3/5=4,6=6,7=11,11=2,25=1,30=1,71=1,74=-5/1,2,3;
 4//1;
 5/5=2,38=5/2;
 6/7=2,8=2,9=2,10=2,28=1/1;
 7/29=1/1,2,3,16;
 1/10=7,30=1/3;
 99//99;
 Leave Link    1 at Sat Dec  9 05:24:24 2023, MaxMem=           0 cpu:               0.3 elap:               0.0
 (Enter /home/sekinelabo/g16/l101.exe)
 -----
 DPGEN
 -----
 Symbolic Z-matrix:
 Charge =  0 Multiplicity = 2
 Na                    14.0627   16.183    14.0088 
 Na                    11.9208   13.2377   14.974 
 Na                    10.1413   13.2447   9.82224 
 Na                    13.2938   13.8925   11.6188 
 Na                    15.3712   13.555    13.5498 
 Na                    14.1901   9.82505   14.6398 
 Na                    11.6813   10.7232   12.0477 
 
 ITRead=  0  0  0  0  0  0  0
 MicOpt= -1 -1 -1 -1 -1 -1 -1
 NAtoms=      7 NQM=        7 NQMF=       0 NMMI=      0 NMMIF=      0
                NMic=       0 NMicF=      0.
                    Isotopes and Nuclear Properties:
 (Nuclear quadrupole moments (NQMom) in fm**2, nuclear magnetic moments (NMagM)
  in nuclear magnetons)

  Atom         1           2           3           4           5           6           7
 IAtWgt=          23          23          23          23          23          23          23
 AtmWgt=  22.9897697  22.9897697  22.9897697  22.9897697  22.9897697  22.9897697  22.9897697
 NucSpn=           3           3           3           3           3           3           3
 AtZEff=  -0.0000000  -0.0000000  -0.0000000  -0.0000000  -0.0000000  -0.0000000  -0.0000000
 NQMom=   10.4000000  10.4000000  10.4000000  10.4000000  10.4000000  10.4000000  10.4000000
 NMagM=    2.2175200   2.2175200   2.2175200   2.2175200   2.2175200   2.2175200   2.2175200
 AtZNuc=  11.0000000  11.0000000  11.0000000  11.0000000  11.0000000  11.0000000  11.0000000
 Leave Link  101 at Sat Dec  9 05:24:24 2023, MaxMem=  1879048192 cpu:               2.5 elap:               0.2
 (Enter /home/sekinelabo/g16/l103.exe)

 GradGradGradGradGradGradGradGradGradGradGradGradGradGradGradGradGradGrad
 Berny optimization.
 Initialization pass.
 Trust Radius=3.00D-01 FncErr=1.00D-07 GrdErr=1.00D-07 EigMax=2.50D+02 EigMin=1.00D-04
 Number of steps in this run=      2 maximum allowed number of steps=      2.
 GradGradGradGradGradGradGradGradGradGradGradGradGradGradGradGradGradGrad

 Leave Link  103 at Sat Dec  9 05:24:24 2023, MaxMem=  1879048192 cpu:               0.2 elap:               0.0
 (Enter /home/sekinelabo/g16/l202.exe)
                          Input orientation:                          
 ---------------------------------------------------------------------
 Center     Atomic      Atomic             Coordinates (Angstroms)
 Number     Number       Type             X           Y           Z
 ---------------------------------------------------------------------
      1         11           0       14.062700   16.183000   14.008800
      2         11           0       11.920800   13.237700   14.974000
      3         11           0       10.141300   13.244700    9.822240
      4         11           0       13.293800   13.892500   11.618800
      5         11           0       15.371200   13.555000   13.549800
      6         11           0       14.190100    9.825050   14.639800
      7         11           0       11.681300   10.723200   12.047700
 ---------------------------------------------------------------------
                    Distance matrix (angstroms):
                    1          2          3          4          5
     1  Na   0.000000
     2  Na   3.767511   0.000000
     3  Na   6.445019   5.450440   0.000000
     4  Na   3.398485   3.683919   3.685855   0.000000
     5  Na   2.971403   3.746236   6.429840   2.856266   0.000000
     6  Na   6.390455   4.111884   7.162100   5.145284   4.061481
     7  Na   6.271076   3.865657   3.698950   3.581700   4.887817
                    6          7
     6  Na   0.000000
     7  Na   3.717490   0.000000
 Stoichiometry    Na7(2)
 Framework group  C1[X(Na7)]
 Deg. of freedom    15
 Full point group                 C1      NOp   1
 Largest Abelian subgroup         C1      NOp   1
 Largest concise Abelian subgroup C1      NOp   1
                         Standard orientation:                         
 ---------------------------------------------------------------------
 Center     Atomic      Atomic             Coordinates (Angstroms)
 Number     Number       Type             X           Y           Z
 ---------------------------------------------------------------------
      1         11           0       -2.281123   -2.723456    0.416521
      2         11           0       -0.747774    0.250784    2.147669
      3         11           0        3.998538   -1.337205   -0.010596
      4         11           0        0.446220   -1.263941   -0.991000
      5         11           0       -2.218109   -0.269904   -1.258397
      6         11           0       -1.236377    3.544020   -0.265515
      7         11           0        2.038625    1.799702   -0.038682
 ---------------------------------------------------------------------
 Rotational constants (GHZ):           0.6434986           0.5498656           0.3707523
 Leave Link  202 at Sat Dec  9 05:24:24 2023, MaxMem=  1879048192 cpu:               0.0 elap:               0.0
 (Enter /home/sekinelabo/g16/l301.exe)
 Standard basis: 6-311+G(d) (5D, 7F)
 Ernie: Thresh=  0.10000D-02 Tol=  0.10000D-05 Strict=F.
 There are   217 symmetry adapted cartesian basis functions of A   symmetry.
 There are   210 symmetry adapted basis functions of A   symmetry.
   210 basis functions,   350 primitive gaussians,   217 cartesian basis functions
    39 alpha electrons       38 beta electrons
       nuclear repulsion energy       318.3163526183 Hartrees.
 IExCor=  402 DFT=T Ex+Corr=B3LYP ExCW=0 ScaHFX=  0.200000
 ScaDFX=  0.800000  0.720000  1.000000  0.810000 ScalE2=  1.000000  1.000000
 IRadAn=      5 IRanWt=     -1 IRanGd=            0 ICorTp=0 IEmpDi=  4
 NAtoms=    7 NActive=    7 NUniq=    7 SFac= 1.00D+00 NAtFMM=   60 NAOKFM=F Big=F
 Integral buffers will be    131072 words long.
 Raffenetti 2 integral format.
 Two-electron integral symmetry is turned on.
 Leave Link  301 at Sat Dec  9 05:24:24 2023, MaxMem=  1879048192 cpu:               0.5 elap:               0.0
 (Enter /home/sekinelabo/g16/l302.exe)
 NPDir=0 NMtPBC=     1 NCelOv=     1 NCel=       1 NClECP=     1 NCelD=      1
         NCelK=      1 NCelE2=     1 NClLst=     1 CellRange=     0.0.
 One-electron integrals computed using PRISM.
 One-electron integral symmetry used in STVInt
 NBasis=   210 RedAO= T EigKep=  2.99D-06  NBF=   210
 NBsUse=   210 1.00D-06 EigRej= -1.00D+00 NBFU=   210
 Precomputing XC quadrature grid using
 IXCGrd= 4 IRadAn=           5 IRanWt=          -1 IRanGd=           0 AccXCQ= 0.00D+00.
 Generated NRdTot=       0 NPtTot=           0 NUsed=           0 NTot=          32
 NSgBfM=   210   210   210   210   210 MxSgAt=     7 MxSgA2=     7.
 Leave Link  302 at Sat Dec  9 05:24:24 2023, MaxMem=  1879048192 cpu:               2.0 elap:               0.1
 (Enter /home/sekinelabo/g16/l303.exe)
 DipDrv:  MaxL=1.
 Leave Link  303 at Sat Dec  9 05:24:25 2023, MaxMem=  1879048192 cpu:               0.5 elap:               0.0
 (Enter /home/sekinelabo/g16/l401.exe)
 ExpMin= 7.60D-03 ExpMax= 3.62D+04 ExpMxC= 1.21D+03 IAcc=3 IRadAn=         5 AccDes= 0.00D+00
 Harris functional with IExCor=  402 and IRadAn=       5 diagonalized for initial guess.
 HarFok:  IExCor=  402 AccDes= 0.00D+00 IRadAn=         5 IDoV= 1 UseB2=F ITyADJ=14
 ICtDFT=  3500011 ScaDFX=  1.000000  1.000000  1.000000  1.000000
 FoFCou: FMM=F IPFlag=           0 FMFlag=      100000 FMFlg1=           0
         NFxFlg=           0 DoJE=T BraDBF=F KetDBF=T FulRan=T
         wScrn=  0.000000 ICntrl=       500 IOpCl=  0 I1Cent=   200000004 NGrid=           0
         NMat0=    1 NMatS0=      1 NMatT0=    0 NMatD0=    1 NMtDS0=    0 NMtDT0=    0
 Petite list used in FoFCou.
 Harris En= -1135.88962787838    
 JPrj=0 DoOrth=F DoCkMO=F.
 Initial guess <Sx>= 0.0000 <Sy>= 0.0000 <Sz>= 0.5000 <S**2>= 0.7500 S= 0.5000
 Leave Link  401 at Sat Dec  9 05:24:25 2023, MaxMem=  1879048192 cpu:               4.4 elap:               0.3
 (Enter /home/sekinelabo/g16/l502.exe)
 Keep R1 and R2 ints in memory in canonical form, NReq=506573321.
 FoFCou: FMM=F IPFlag=           0 FMFlag=           0 FMFlg1=           0
         NFxFlg=           0 DoJE=F BraDBF=F KetDBF=F FulRan=T
         wScrn=  0.000000 ICntrl=       600 IOpCl=  0 I1Cent=           0 NGrid=           0
         NMat0=    1 NMatS0=  22155 NMatT0=    0 NMatD0=    1 NMtDS0=    0 NMtDT0=    0
 Symmetry not used in FoFCou.
 Two-electron integral symmetry not used.
 UHF open shell SCF:
 Using DIIS extrapolation, IDIIS=  1040.
 NGot=  1879048192 LenX=  1388082579 LenY=  1388035049
 Requested convergence on RMS density matrix=1.00D-08 within 128 cycles.
 Requested convergence on MAX density matrix=1.00D-06.
 Requested convergence on             energy=1.00D-06.
 No special actions if energy rises.

 Cycle   1  Pass 1  IDiag  1:
 E= -1136.08794951222    
 DIIS: error= 1.01D-02 at cycle   1 NSaved=   1.
 NSaved= 1 IEnMin= 1 EnMin= -1136.08794951222     IErMin= 1 ErrMin= 1.01D-02
 ErrMax= 1.01D-02  0.00D+00 EMaxC= 1.00D-01 BMatC= 1.91D-01 BMatP= 1.91D-01
 IDIUse=3 WtCom= 8.99D-01 WtEn= 1.01D-01
 Coeff-Com:  0.100D+01
 Coeff-En:   0.100D+01
 Coeff:      0.100D+01
 Gap=     0.035 Goal=   None    Shift=    0.000
 Gap=     0.056 Goal=   None    Shift=    0.000
 GapD=    0.035 DampG=0.250 DampE=0.500 DampFc=0.2500 IDamp=-1.
 Damping current iteration by 2.50D-01
 RMSDP=2.09D-02 MaxDP=1.92D+00              OVMax= 2.30D-01

 Cycle   2  Pass 1  IDiag  1:
 E= -1136.09948859418     Delta-E=       -0.011539081955 Rises=F Damp=T
 DIIS: error= 7.10D-03 at cycle   2 NSaved=   2.
 NSaved= 2 IEnMin= 2 EnMin= -1136.09948859418     IErMin= 2 ErrMin= 7.10D-03
 ErrMax= 7.10D-03  0.00D+00 EMaxC= 1.00D-01 BMatC= 7.26D-02 BMatP= 1.91D-01
 IDIUse=3 WtCom= 9.29D-01 WtEn= 7.10D-02
 Coeff-Com: -0.126D+01 0.226D+01
 Coeff-En:   0.000D+00 0.100D+01
 Coeff:     -0.117D+01 0.217D+01
 Gap=     0.048 Goal=   None    Shift=    0.000
 Gap=     0.054 Goal=   None    Shift=    0.000
 RMSDP=9.84D-03 MaxDP=9.90D-01 DE=-1.15D-02 OVMax= 1.67D-01

 Cycle   3  Pass 1  IDiag  1:
 E= -1136.11891198726     Delta-E=       -0.019423393086 Rises=F Damp=F
 DIIS: error= 3.50D-03 at cycle   3 NSaved=   3.
 NSaved= 3 IEnMin= 3 EnMin= -1136.11891198726     IErMin= 3 ErrMin= 3.50D-03
 ErrMax= 3.50D-03  0.00D+00 EMaxC= 1.00D-01 BMatC= 2.96D-03 BMatP= 7.26D-02
 IDIUse=3 WtCom= 9.65D-01 WtEn= 3.50D-02
 Coeff-Com: -0.232D+00 0.405D+00 0.827D+00
 Coeff-En:   0.000D+00 0.000D+00 0.100D+01
 Coeff:     -0.224D+00 0.391D+00 0.833D+00
 Gap=     0.042 Goal=   None    Shift=    0.000
 Gap=     0.054 Goal=   None    Shift=    0.000
 RMSDP=5.27D-03 MaxDP=4.27D-01 DE=-1.94D-02 OVMax= 8.22D-02

 Cycle   4  Pass 1  IDiag  1:
 E= -1136.11904741529     Delta-E=       -0.000135428028 Rises=F Damp=F
 DIIS: error= 3.48D-03 at cycle   4 NSaved=   4.
 NSaved= 4 IEnMin= 4 EnMin= -1136.11904741529     IErMin= 4 ErrMin= 3.48D-03
 ErrMax= 3.48D-03  0.00D+00 EMaxC= 1.00D-01 BMatC= 2.89D-03 BMatP= 2.96D-03
 IDIUse=3 WtCom= 9.65D-01 WtEn= 3.48D-02
 Coeff-Com: -0.813D-02 0.100D-01 0.497D+00 0.502D+00
 Coeff-En:   0.000D+00 0.000D+00 0.489D+00 0.511D+00
 Coeff:     -0.785D-02 0.969D-02 0.496D+00 0.502D+00
 Gap=     0.045 Goal=   None    Shift=    0.000
 Gap=     0.053 Goal=   None    Shift=    0.000
 RMSDP=2.00D-03 MaxDP=1.59D-01 DE=-1.35D-04 OVMax= 4.32D-02

 Cycle   5  Pass 1  IDiag  1:
 E= -1136.12152358673     Delta-E=       -0.002476171442 Rises=F Damp=F
 DIIS: error= 1.64D-04 at cycle   5 NSaved=   5.
 NSaved= 5 IEnMin= 5 EnMin= -1136.12152358673     IErMin= 5 ErrMin= 1.64D-04
 ErrMax= 1.64D-04  0.00D+00 EMaxC= 1.00D-01 BMatC= 1.38D-05 BMatP= 2.89D-03
 IDIUse=3 WtCom= 9.98D-01 WtEn= 1.64D-03
 Coeff-Com: -0.399D-02 0.439D-02 0.190D+00 0.197D+00 0.613D+00
 Coeff-En:   0.000D+00 0.000D+00 0.000D+00 0.000D+00 0.100D+01
 Coeff:     -0.398D-02 0.439D-02 0.190D+00 0.196D+00 0.613D+00
 Gap=     0.044 Goal=   None    Shift=    0.000
 Gap=     0.053 Goal=   None    Shift=    0.000
 RMSDP=2.65D-04 MaxDP=2.33D-02 DE=-2.48D-03 OVMax= 6.80D-03

 Cycle   6  Pass 1  IDiag  1:
 E= -1136.12153536324     Delta-E=       -0.000011776505 Rises=F Damp=F
 DIIS: error= 1.27D-04 at cycle   6 NSaved=   6.
 NSaved= 6 IEnMin= 6 EnMin= -1136.12153536324     IErMin= 6 ErrMin= 1.27D-04
 ErrMax= 1.27D-04  0.00D+00 EMaxC= 1.00D-01 BMatC= 5.87D-06 BMatP= 1.38D-05
 IDIUse=3 WtCom= 9.99D-01 WtEn= 1.27D-03
 Coeff-Com: -0.111D-02 0.112D-02-0.414D-01-0.391D-01 0.393D+00 0.687D+00
 Coeff-En:   0.000D+00 0.000D+00 0.000D+00 0.000D+00 0.276D+00 0.724D+00
 Coeff:     -0.110D-02 0.112D-02-0.413D-01-0.390D-01 0.393D+00 0.687D+00
 Gap=     0.045 Goal=   None    Shift=    0.000
 Gap=     0.053 Goal=   None    Shift=    0.000
 RMSDP=1.06D-04 MaxDP=5.64D-03 DE=-1.18D-05 OVMax= 4.81D-03

 Cycle   7  Pass 1  IDiag  1:
 E= -1136.12154490381     Delta-E=       -0.000009540571 Rises=F Damp=F
 DIIS: error= 3.43D-05 at cycle   7 NSaved=   7.
 NSaved= 7 IEnMin= 7 EnMin= -1136.12154490381     IErMin= 7 ErrMin= 3.43D-05
 ErrMax= 3.43D-05  0.00D+00 EMaxC= 1.00D-01 BMatC= 3.80D-07 BMatP= 5.87D-06
 IDIUse=1 WtCom= 1.00D+00 WtEn= 0.00D+00
 Coeff-Com:  0.644D-04-0.162D-03-0.248D-01-0.228D-01 0.513D-01 0.214D+00
 Coeff-Com:  0.783D+00
 Coeff:      0.644D-04-0.162D-03-0.248D-01-0.228D-01 0.513D-01 0.214D+00
 Coeff:      0.783D+00
 Gap=     0.045 Goal=   None    Shift=    0.000
 Gap=     0.053 Goal=   None    Shift=    0.000
 RMSDP=4.98D-05 MaxDP=3.11D-03 DE=-9.54D-06 OVMax= 2.14D-03

 Cycle   8  Pass 1  IDiag  1:
 E= -1136.12154585647     Delta-E=       -0.000000952658 Rises=F Damp=F
 DIIS: error= 2.08D-05 at cycle   8 NSaved=   8.
 NSaved= 8 IEnMin= 8 EnMin= -1136.12154585647     IErMin= 8 ErrMin= 2.08D-05
 ErrMax= 2.08D-05  0.00D+00 EMaxC= 1.00D-01 BMatC= 1.98D-07 BMatP= 3.80D-07
 IDIUse=1 WtCom= 1.00D+00 WtEn= 0.00D+00
 Coeff-Com:  0.487D-03-0.592D-03-0.616D-02-0.520D-02-0.758D-01-0.475D-01
 Coeff-Com:  0.477D+00 0.658D+00
 Coeff:      0.487D-03-0.592D-03-0.616D-02-0.520D-02-0.758D-01-0.475D-01
 Coeff:      0.477D+00 0.658D+00
 Gap=     0.045 Goal=   None    Shift=    0.000
 Gap=     0.053 Goal=   None    Shift=    0.000
 RMSDP=2.30D-05 MaxDP=1.68D-03 DE=-9.53D-07 OVMax= 1.13D-03

 Cycle   9  Pass 1  IDiag  1:
 E= -1136.12154636004     Delta-E=       -0.000000503578 Rises=F Damp=F
 DIIS: error= 7.72D-06 at cycle   9 NSaved=   9.
 NSaved= 9 IEnMin= 9 EnMin= -1136.12154636004     IErMin= 9 ErrMin= 7.72D-06
 ErrMax= 7.72D-06  0.00D+00 EMaxC= 1.00D-01 BMatC= 2.14D-08 BMatP= 1.98D-07
 IDIUse=1 WtCom= 1.00D+00 WtEn= 0.00D+00
 Coeff-Com:  0.207D-03-0.244D-03 0.328D-02 0.268D-02-0.200D-01-0.454D-01
 Coeff-Com: -0.107D+00 0.278D-01 0.114D+01
 Coeff:      0.207D-03-0.244D-03 0.328D-02 0.268D-02-0.200D-01-0.454D-01
 Coeff:     -0.107D+00 0.278D-01 0.114D+01
 Gap=     0.045 Goal=   None    Shift=    0.000
 Gap=     0.053 Goal=   None    Shift=    0.000
 RMSDP=2.55D-05 MaxDP=2.50D-03 DE=-5.04D-07 OVMax= 9.09D-04

 Cycle  10  Pass 1  IDiag  1:
 E= -1136.12154652542     Delta-E=       -0.000000165376 Rises=F Damp=F
 DIIS: error= 7.27D-06 at cycle  10 NSaved=  10.
 NSaved=10 IEnMin=10 EnMin= -1136.12154652542     IErMin=10 ErrMin= 7.27D-06
 ErrMax= 7.27D-06  0.00D+00 EMaxC= 1.00D-01 BMatC= 1.59D-08 BMatP= 2.14D-08
 IDIUse=1 WtCom= 1.00D+00 WtEn= 0.00D+00
 Coeff-Com: -0.416D-04 0.636D-04 0.365D-02 0.303D-02 0.670D-02-0.126D-01
 Coeff-Com: -0.180D+00-0.151D+00 0.698D+00 0.633D+00
 Coeff:     -0.416D-04 0.636D-04 0.365D-02 0.303D-02 0.670D-02-0.126D-01
 Coeff:     -0.180D+00-0.151D+00 0.698D+00 0.633D+00
 Gap=     0.045 Goal=   None    Shift=    0.000
 Gap=     0.053 Goal=   None    Shift=    0.000
 RMSDP=1.21D-05 MaxDP=1.05D-03 DE=-1.65D-07 OVMax= 4.80D-04

 Cycle  11  Pass 1  IDiag  1:
 E= -1136.12154657738     Delta-E=       -0.000000051956 Rises=F Damp=F
 DIIS: error= 3.98D-06 at cycle  11 NSaved=  11.
 NSaved=11 IEnMin=11 EnMin= -1136.12154657738     IErMin=11 ErrMin= 3.98D-06
 ErrMax= 3.98D-06  0.00D+00 EMaxC= 1.00D-01 BMatC= 3.15D-09 BMatP= 1.59D-08
 IDIUse=1 WtCom= 1.00D+00 WtEn= 0.00D+00
 Coeff-Com: -0.187D-03 0.241D-03 0.135D-03 0.256D-03 0.100D-01 0.145D-01
 Coeff-Com: -0.257D-01-0.651D-01-0.232D+00 0.256D+00 0.104D+01
 Coeff:     -0.187D-03 0.241D-03 0.135D-03 0.256D-03 0.100D-01 0.145D-01
 Coeff:     -0.257D-01-0.651D-01-0.232D+00 0.256D+00 0.104D+01
 Gap=     0.045 Goal=   None    Shift=    0.000
 Gap=     0.053 Goal=   None    Shift=    0.000
 RMSDP=1.31D-05 MaxDP=1.32D-03 DE=-5.20D-08 OVMax= 3.46D-04

 Cycle  12  Pass 1  IDiag  1:
 E= -1136.12154659685     Delta-E=       -0.000000019477 Rises=F Damp=F
 DIIS: error= 1.11D-06 at cycle  12 NSaved=  12.
 NSaved=12 IEnMin=12 EnMin= -1136.12154659685     IErMin=12 ErrMin= 1.11D-06
 ErrMax= 1.11D-06  0.00D+00 EMaxC= 1.00D-01 BMatC= 5.49D-10 BMatP= 3.15D-09
 IDIUse=1 WtCom= 1.00D+00 WtEn= 0.00D+00
 Coeff-Com: -0.647D-04 0.806D-04-0.541D-03-0.334D-03 0.345D-02 0.756D-02
 Coeff-Com:  0.194D-01 0.697D-03-0.210D+00-0.150D-01 0.402D+00 0.793D+00
 Coeff:     -0.647D-04 0.806D-04-0.541D-03-0.334D-03 0.345D-02 0.756D-02
 Coeff:      0.194D-01 0.697D-03-0.210D+00-0.150D-01 0.402D+00 0.793D+00
 Gap=     0.045 Goal=   None    Shift=    0.000
 Gap=     0.053 Goal=   None    Shift=    0.000
 RMSDP=3.36D-06 MaxDP=2.64D-04 DE=-1.95D-08 OVMax= 1.21D-04

 Cycle  13  Pass 1  IDiag  1:
 E= -1136.12154659958     Delta-E=       -0.000000002729 Rises=F Damp=F
 DIIS: error= 6.83D-07 at cycle  13 NSaved=  13.
 NSaved=13 IEnMin=13 EnMin= -1136.12154659958     IErMin=13 ErrMin= 6.83D-07
 ErrMax= 6.83D-07  0.00D+00 EMaxC= 1.00D-01 BMatC= 9.51D-11 BMatP= 5.49D-10
 IDIUse=1 WtCom= 1.00D+00 WtEn= 0.00D+00
 Coeff-Com:  0.615D-04-0.802D-04 0.598D-04 0.179D-04-0.290D-02-0.454D-02
 Coeff-Com:  0.738D-02 0.141D-01 0.635D-01-0.580D-01-0.261D+00-0.892D-01
 Coeff-Com:  0.133D+01
 Coeff:      0.615D-04-0.802D-04 0.598D-04 0.179D-04-0.290D-02-0.454D-02
 Coeff:      0.738D-02 0.141D-01 0.635D-01-0.580D-01-0.261D+00-0.892D-01
 Coeff:      0.133D+01
 Gap=     0.045 Goal=   None    Shift=    0.000
 Gap=     0.053 Goal=   None    Shift=    0.000
 RMSDP=2.15D-06 MaxDP=1.58D-04 DE=-2.73D-09 OVMax= 8.07D-05

 Cycle  14  Pass 1  IDiag  1:
 E= -1136.12154660062     Delta-E=       -0.000000001041 Rises=F Damp=F
 DIIS: error= 2.27D-07 at cycle  14 NSaved=  14.
 NSaved=14 IEnMin=14 EnMin= -1136.12154660062     IErMin=14 ErrMin= 2.27D-07
 ErrMax= 2.27D-07  0.00D+00 EMaxC= 1.00D-01 BMatC= 2.23D-11 BMatP= 9.51D-11
 IDIUse=1 WtCom= 1.00D+00 WtEn= 0.00D+00
 Coeff-Com:  0.109D-05-0.315D-06 0.297D-04-0.825D-05-0.101D-03-0.862D-03
 Coeff-Com: -0.546D-02 0.113D-02 0.343D-01 0.306D-02-0.428D-01-0.168D+00
 Coeff-Com: -0.203D+00 0.138D+01
 Coeff:      0.109D-05-0.315D-06 0.297D-04-0.825D-05-0.101D-03-0.862D-03
 Coeff:     -0.546D-02 0.113D-02 0.343D-01 0.306D-02-0.428D-01-0.168D+00
 Coeff:     -0.203D+00 0.138D+01
 Gap=     0.045 Goal=   None    Shift=    0.000
 Gap=     0.053 Goal=   None    Shift=    0.000
 RMSDP=1.31D-06 MaxDP=1.36D-04 DE=-1.04D-09 OVMax= 4.91D-05

 Cycle  15  Pass 1  IDiag  1:
 E= -1136.12154660090     Delta-E=       -0.000000000280 Rises=F Damp=F
 DIIS: error= 9.60D-08 at cycle  15 NSaved=  15.
 NSaved=15 IEnMin=15 EnMin= -1136.12154660090     IErMin=15 ErrMin= 9.60D-08
 ErrMax= 9.60D-08  0.00D+00 EMaxC= 1.00D-01 BMatC= 3.59D-12 BMatP= 2.23D-11
 IDIUse=1 WtCom= 1.00D+00 WtEn= 0.00D+00
 Coeff-Com: -0.101D-04 0.133D-04 0.195D-04 0.159D-04 0.408D-03 0.623D-03
 Coeff-Com: -0.115D-02-0.210D-02-0.133D-01 0.116D-01 0.448D-01 0.362D-01
 Coeff-Com: -0.237D+00-0.851D-01 0.125D+01
 Coeff:     -0.101D-04 0.133D-04 0.195D-04 0.159D-04 0.408D-03 0.623D-03
 Coeff:     -0.115D-02-0.210D-02-0.133D-01 0.116D-01 0.448D-01 0.362D-01
 Coeff:     -0.237D+00-0.851D-01 0.125D+01
 Gap=     0.045 Goal=   None    Shift=    0.000
 Gap=     0.053 Goal=   None    Shift=    0.000
 RMSDP=5.35D-07 MaxDP=5.34D-05 DE=-2.80D-10 OVMax= 1.76D-05

 Cycle  16  Pass 1  IDiag  1:
 E= -1136.12154660093     Delta-E=       -0.000000000031 Rises=F Damp=F
 DIIS: error= 3.22D-08 at cycle  16 NSaved=  16.
 NSaved=16 IEnMin=16 EnMin= -1136.12154660093     IErMin=16 ErrMin= 3.22D-08
 ErrMax= 3.22D-08  0.00D+00 EMaxC= 1.00D-01 BMatC= 5.81D-13 BMatP= 3.59D-12
 IDIUse=1 WtCom= 1.00D+00 WtEn= 0.00D+00
 Coeff-Com: -0.104D-05 0.119D-05-0.196D-05 0.371D-05 0.410D-04 0.219D-03
 Coeff-Com:  0.941D-03-0.409D-03-0.739D-02 0.627D-03 0.139D-01 0.252D-01
 Coeff-Com:  0.138D-01-0.231D+00 0.148D+00 0.104D+01
 Coeff:     -0.104D-05 0.119D-05-0.196D-05 0.371D-05 0.410D-04 0.219D-03
 Coeff:      0.941D-03-0.409D-03-0.739D-02 0.627D-03 0.139D-01 0.252D-01
 Coeff:      0.138D-01-0.231D+00 0.148D+00 0.104D+01
 Gap=     0.045 Goal=   None    Shift=    0.000
 Gap=     0.053 Goal=   None    Shift=    0.000
 RMSDP=1.74D-07 MaxDP=1.56D-05 DE=-3.07D-11 OVMax= 6.38D-06

 Cycle  17  Pass 1  IDiag  1:
 E= -1136.12154660093     Delta-E=       -0.000000000001 Rises=F Damp=F
 DIIS: error= 2.00D-08 at cycle  17 NSaved=  17.
 NSaved=17 IEnMin=17 EnMin= -1136.12154660093     IErMin=17 ErrMin= 2.00D-08
 ErrMax= 2.00D-08  0.00D+00 EMaxC= 1.00D-01 BMatC= 1.41D-13 BMatP= 5.81D-13
 IDIUse=1 WtCom= 1.00D+00 WtEn= 0.00D+00
 Coeff-Com:  0.125D-05-0.171D-05-0.372D-05-0.134D-05-0.455D-04-0.494D-04
 Coeff-Com:  0.351D-03 0.347D-03 0.185D-03-0.159D-02-0.336D-02 0.155D-02
 Coeff-Com:  0.335D-01-0.370D-01-0.145D+00 0.173D+00 0.978D+00
 Coeff:      0.125D-05-0.171D-05-0.372D-05-0.134D-05-0.455D-04-0.494D-04
 Coeff:      0.351D-03 0.347D-03 0.185D-03-0.159D-02-0.336D-02 0.155D-02
 Coeff:      0.335D-01-0.370D-01-0.145D+00 0.173D+00 0.978D+00
 Gap=     0.045 Goal=   None    Shift=    0.000
 Gap=     0.053 Goal=   None    Shift=    0.000
 RMSDP=6.07D-08 MaxDP=5.07D-06 DE=-1.36D-12 OVMax= 2.51D-06

 Cycle  18  Pass 1  IDiag  1:
 E= -1136.12154660094     Delta-E=       -0.000000000011 Rises=F Damp=F
 DIIS: error= 8.87D-09 at cycle  18 NSaved=  18.
 NSaved=18 IEnMin=18 EnMin= -1136.12154660094     IErMin=18 ErrMin= 8.87D-09
 ErrMax= 8.87D-09  0.00D+00 EMaxC= 1.00D-01 BMatC= 4.78D-14 BMatP= 1.41D-13
 IDIUse=1 WtCom= 1.00D+00 WtEn= 0.00D+00
 Coeff-Com:  0.727D-06-0.926D-06-0.184D-05-0.227D-05-0.385D-04-0.892D-04
 Coeff-Com: -0.102D-03 0.343D-03 0.212D-02-0.924D-03-0.545D-02-0.712D-02
 Coeff-Com:  0.779D-02 0.653D-01-0.117D+00-0.268D+00 0.297D+00 0.103D+01
 Coeff:      0.727D-06-0.926D-06-0.184D-05-0.227D-05-0.385D-04-0.892D-04
 Coeff:     -0.102D-03 0.343D-03 0.212D-02-0.924D-03-0.545D-02-0.712D-02
 Coeff:      0.779D-02 0.653D-01-0.117D+00-0.268D+00 0.297D+00 0.103D+01
 Gap=     0.045 Goal=   None    Shift=    0.000
 Gap=     0.053 Goal=   None    Shift=    0.000
 RMSDP=3.98D-08 MaxDP=3.56D-06 DE=-1.07D-11 OVMax= 1.93D-06

 Cycle  19  Pass 1  IDiag  1:
 E= -1136.12154660094     Delta-E=        0.000000000004 Rises=F Damp=F
 DIIS: error= 5.00D-09 at cycle  19 NSaved=  19.
 NSaved=19 IEnMin=18 EnMin= -1136.12154660094     IErMin=19 ErrMin= 5.00D-09
 ErrMax= 5.00D-09  0.00D+00 EMaxC= 1.00D-01 BMatC= 8.01D-15 BMatP= 4.78D-14
 IDIUse=1 WtCom= 1.00D+00 WtEn= 0.00D+00
 Coeff-Com: -0.411D-06 0.553D-06 0.194D-05 0.118D-05 0.211D-04 0.247D-04
 Coeff-Com: -0.112D-03-0.211D-03-0.197D-03 0.556D-03 0.175D-02-0.271D-04
 Coeff-Com: -0.936D-02-0.465D-03 0.592D-01-0.915D-02-0.253D+00-0.267D+00
 Coeff-Com:  0.148D+01
 Coeff:     -0.411D-06 0.553D-06 0.194D-05 0.118D-05 0.211D-04 0.247D-04
 Coeff:     -0.112D-03-0.211D-03-0.197D-03 0.556D-03 0.175D-02-0.271D-04
 Coeff:     -0.936D-02-0.465D-03 0.592D-01-0.915D-02-0.253D+00-0.267D+00
 Coeff:      0.148D+01
 Gap=     0.045 Goal=   None    Shift=    0.000
 Gap=     0.053 Goal=   None    Shift=    0.000
 RMSDP=2.00D-08 MaxDP=1.44D-06 DE= 3.87D-12 OVMax= 1.15D-06

 Cycle  20  Pass 1  IDiag  1:
 E= -1136.12154660094     Delta-E=        0.000000000001 Rises=F Damp=F
 DIIS: error= 1.62D-09 at cycle  20 NSaved=  20.
 NSaved=20 IEnMin=18 EnMin= -1136.12154660094     IErMin=20 ErrMin= 1.62D-09
 ErrMax= 1.62D-09  0.00D+00 EMaxC= 1.00D-01 BMatC= 1.03D-15 BMatP= 8.01D-15
 IDIUse=1 WtCom= 1.00D+00 WtEn= 0.00D+00
 Large coefficients: NSaved= 20 BigCof=    0.00 CofMax=   10.00 Det=-1.19D-15
 Inversion failed.  Reducing to 19 matrices.
 Large coefficients: NSaved= 19 BigCof=    0.00 CofMax=   10.00 Det=-1.34D-15
 Inversion failed.  Reducing to 18 matrices.
 Large coefficients: NSaved= 18 BigCof=    0.00 CofMax=   10.00 Det=-1.35D-15
 Inversion failed.  Reducing to 17 matrices.
 Large coefficients: NSaved= 17 BigCof=    0.00 CofMax=   10.00 Det=-1.41D-15
 Inversion failed.  Reducing to 16 matrices.
 Large coefficients: NSaved= 16 BigCof=    0.00 CofMax=   10.00 Det=-1.64D-15
 Inversion failed.  Reducing to 15 matrices.
 Coeff-Com:  0.666D-05 0.324D-04-0.164D-04-0.184D-03 0.672D-04 0.179D-03
 Coeff-Com:  0.987D-03 0.914D-03-0.103D-01 0.101D-01 0.494D-01-0.332D-01
 Coeff-Com: -0.131D+00-0.111D+00 0.122D+01
 Coeff:      0.666D-05 0.324D-04-0.164D-04-0.184D-03 0.672D-04 0.179D-03
 Coeff:      0.987D-03 0.914D-03-0.103D-01 0.101D-01 0.494D-01-0.332D-01
 Coeff:     -0.131D+00-0.111D+00 0.122D+01
 Gap=     0.045 Goal=   None    Shift=    0.000
 Gap=     0.053 Goal=   None    Shift=    0.000
 RMSDP=7.20D-09 MaxDP=6.21D-07 DE= 6.82D-13 OVMax= 3.19D-07

 SCF Done:  E(UB3LYP) =  -1136.12154660     A.U. after   20 cycles
            NFock= 20  Conv=0.72D-08     -V/T= 2.0029
 <Sx>= 0.0000 <Sy>= 0.0000 <Sz>= 0.5000 <S**2>= 0.7611 S= 0.5055
 <L.S>= 0.000000000000E+00
 KE= 1.132877370093D+03 PE=-3.365832277979D+03 EE= 7.785170086675D+02
 Annihilation of the first spin contaminant:
 S**2 before annihilation     0.7611,   after     0.7501
 Leave Link  502 at Sat Dec  9 05:24:42 2023, MaxMem=  1879048192 cpu:             185.4 elap:              16.7
 (Enter /home/sekinelabo/g16/l601.exe)
 Copying SCF densities to generalized density rwf, IOpCl= 1 IROHF=0.

 **********************************************************************

            Population analysis using the SCF Density.

 **********************************************************************

 Orbital symmetries:
 Alpha Orbitals:
       Occupied  (A) (A) (A) (A) (A) (A) (A) (A) (A) (A) (A) (A)
                 (A) (A) (A) (A) (A) (A) (A) (A) (A) (A) (A) (A)
                 (A) (A) (A) (A) (A) (A) (A) (A) (A) (A) (A) (A)
                 (A) (A) (A)
       Virtual   (A) (A) (A) (A) (A) (A) (A) (A) (A) (A) (A) (A)
                 (A) (A) (A) (A) (A) (A) (A) (A) (A) (A) (A) (A)
                 (A) (A) (A) (A) (A) (A) (A) (A) (A) (A) (A) (A)
                 (A) (A) (A) (A) (A) (A) (A) (A) (A) (A) (A) (A)
                 (A) (A) (A) (A) (A) (A) (A) (A) (A) (A) (A) (A)
                 (A) (A) (A) (A) (A) (A) (A) (A) (A) (A) (A) (A)
                 (A) (A) (A) (A) (A) (A) (A) (A) (A) (A) (A) (A)
                 (A) (A) (A) (A) (A) (A) (A) (A) (A) (A) (A) (A)
                 (A) (A) (A) (A) (A) (A) (A) (A) (A) (A) (A) (A)
                 (A) (A) (A) (A) (A) (A) (A) (A) (A) (A) (A) (A)
                 (A) (A) (A) (A) (A) (A) (A) (A) (A) (A) (A) (A)
                 (A) (A) (A) (A) (A) (A) (A) (A) (A) (A) (A) (A)
                 (A) (A) (A) (A) (A) (A) (A) (A) (A) (A) (A) (A)
                 (A) (A) (A) (A) (A) (A) (A) (A) (A) (A) (A) (A)
                 (A) (A) (A)
 Beta  Orbitals:
       Occupied  (A) (A) (A) (A) (A) (A) (A) (A) (A) (A) (A) (A)
                 (A) (A) (A) (A) (A) (A) (A) (A) (A) (A) (A) (A)
                 (A) (A) (A) (A) (A) (A) (A) (A) (A) (A) (A) (A)
                 (A) (A)
       Virtual   (A) (A) (A) (A) (A) (A) (A) (A) (A) (A) (A) (A)
                 (A) (A) (A) (A) (A) (A) (A) (A) (A) (A) (A) (A)
                 (A) (A) (A) (A) (A) (A) (A) (A) (A) (A) (A) (A)
                 (A) (A) (A) (A) (A) (A) (A) (A) (A) (A) (A) (A)
                 (A) (A) (A) (A) (A) (A) (A) (A) (A) (A) (A) (A)
                 (A) (A) (A) (A) (A) (A) (A) (A) (A) (A) (A) (A)
                 (A) (A) (A) (A) (A) (A) (A) (A) (A) (A) (A) (A)
                 (A) (A) (A) (A) (A) (A) (A) (A) (A) (A) (A) (A)
                 (A) (A) (A) (A) (A) (A) (A) (A) (A) (A) (A) (A)
                 (A) (A) (A) (A) (A) (A) (A) (A) (A) (A) (A) (A)
                 (A) (A) (A) (A) (A) (A) (A) (A) (A) (A) (A) (A)
                 (A) (A) (A) (A) (A) (A) (A) (A) (A) (A) (A) (A)
                 (A) (A) (A) (A) (A) (A) (A) (A) (A) (A) (A) (A)
                 (A) (A) (A) (A) (A) (A) (A) (A) (A) (A) (A) (A)
                 (A) (A) (A) (A)
 The electronic state is 2-A.
 Alpha  occ. eigenvalues --  -38.44470 -38.44243 -38.44031 -38.44019 -38.44009
 Alpha  occ. eigenvalues --  -38.43833 -38.43723  -2.20343  -2.20037  -2.19976
 Alpha  occ. eigenvalues --   -2.19853  -2.19791  -2.19772  -2.19482  -1.14086
 Alpha  occ. eigenvalues --   -1.14002  -1.13969  -1.13828  -1.13745  -1.13737
 Alpha  occ. eigenvalues --   -1.13622  -1.13593  -1.13545  -1.13525  -1.13496
 Alpha  occ. eigenvalues --   -1.13465  -1.13462  -1.13446  -1.13437  -1.13436
 Alpha  occ. eigenvalues --   -1.13416  -1.13318  -1.13156  -1.13148  -1.13112
 Alpha  occ. eigenvalues --   -0.18062  -0.13306  -0.12005  -0.10616
 Alpha virt. eigenvalues --   -0.06148  -0.05559  -0.04859  -0.03341  -0.02649
 Alpha virt. eigenvalues --   -0.02340  -0.01958  -0.01713  -0.00707  -0.00236
 Alpha virt. eigenvalues --   -0.00105   0.00171   0.00652   0.00722   0.00770
 Alpha virt. eigenvalues --    0.00816   0.00845   0.00886   0.01176   0.01205
 Alpha virt. eigenvalues --    0.01297   0.01439   0.01609   0.01745   0.02009
 Alpha virt. eigenvalues --    0.02211   0.02243   0.02360   0.02651   0.02694
 Alpha virt. eigenvalues --    0.02838   0.02893   0.02950   0.03012   0.03046
 Alpha virt. eigenvalues --    0.03156   0.03220   0.03256   0.03369   0.03692
 Alpha virt. eigenvalues --    0.03815   0.03952   0.04096   0.04287   0.04445
 Alpha virt. eigenvalues --    0.04637   0.04926   0.05088   0.05403   0.05737
 Alpha virt. eigenvalues --    0.05880   0.06112   0.06517   0.06660   0.07279
 Alpha virt. eigenvalues --    0.07568   0.07787   0.08110   0.08675   0.08901
 Alpha virt. eigenvalues --    0.09177   0.09387   0.09676   0.10139   0.11004
 Alpha virt. eigenvalues --    0.11134   0.11702   0.12011   0.12157   0.12657
 Alpha virt. eigenvalues --    0.12872   0.13426   0.13618   0.14066   0.14324
 Alpha virt. eigenvalues --    0.14717   0.15046   0.15722   0.15913   0.18192
 Alpha virt. eigenvalues --    0.25190   0.26634   0.28122   0.29144   0.30469
 Alpha virt. eigenvalues --    0.30908   0.31855   0.32067   0.33033   0.33459
 Alpha virt. eigenvalues --    0.34435   0.35094   0.35900   0.36300   0.36946
 Alpha virt. eigenvalues --    0.37458   0.38368   0.39415   0.39626   0.41059
 Alpha virt. eigenvalues --    0.41878   0.42541   0.42937   0.43542   0.43770
 Alpha virt. eigenvalues --    0.43814   0.44324   0.44570   0.44745   0.45075
 Alpha virt. eigenvalues --    0.45444   0.46039   0.46512   0.46771   0.47414
 Alpha virt. eigenvalues --    0.47744   0.47999   0.49399   0.49641   0.50716
 Alpha virt. eigenvalues --    0.51603   0.52305   0.52392   0.53954   0.54500
 Alpha virt. eigenvalues --    0.55097   0.55719   0.56331   0.57323   0.58271
 Alpha virt. eigenvalues --    0.59157   0.60446   0.61106   0.61986   0.73158
 Alpha virt. eigenvalues --    0.79133   2.03717   2.09821   2.10473   2.15440
 Alpha virt. eigenvalues --    2.16847   2.20962   2.24197   4.42378   4.44060
 Alpha virt. eigenvalues --    4.44526   4.45202   4.45548   4.45819   4.46134
 Alpha virt. eigenvalues --    4.46470   4.46609   4.46973   4.47218   4.47740
 Alpha virt. eigenvalues --    4.48952   4.49455   4.49622   4.50556   4.50865
 Alpha virt. eigenvalues --    4.52705   4.55864   4.66207   4.75427  96.23366
 Alpha virt. eigenvalues --   96.30703  96.30993  96.36716  96.38906  96.44947
 Alpha virt. eigenvalues --   96.49038
  Beta  occ. eigenvalues --  -38.44463 -38.44242 -38.44037 -38.43962 -38.43921
  Beta  occ. eigenvalues --  -38.43803 -38.43720  -2.20333  -2.20036  -2.19892
  Beta  occ. eigenvalues --   -2.19802  -2.19722  -2.19672  -2.19476  -1.14076
  Beta  occ. eigenvalues --   -1.13998  -1.13932  -1.13770  -1.13743  -1.13724
  Beta  occ. eigenvalues --   -1.13625  -1.13520  -1.13486  -1.13472  -1.13467
  Beta  occ. eigenvalues --   -1.13423  -1.13414  -1.13397  -1.13374  -1.13370
  Beta  occ. eigenvalues --   -1.13312  -1.13278  -1.13153  -1.13136  -1.13109
  Beta  occ. eigenvalues --   -0.17331  -0.13172  -0.11893
  Beta virt. eigenvalues --   -0.06613  -0.05962  -0.05465  -0.04765  -0.02661
  Beta virt. eigenvalues --   -0.02100  -0.01926  -0.01646  -0.01398  -0.00701
  Beta virt. eigenvalues --   -0.00065   0.00047   0.00241   0.00718   0.00745
  Beta virt. eigenvalues --    0.00808   0.00861   0.01000   0.01137   0.01274
  Beta virt. eigenvalues --    0.01348   0.01453   0.01527   0.01711   0.01803
  Beta virt. eigenvalues --    0.02046   0.02272   0.02368   0.02381   0.02653
  Beta virt. eigenvalues --    0.02759   0.02980   0.02983   0.03033   0.03076
  Beta virt. eigenvalues --    0.03104   0.03219   0.03252   0.03311   0.03404
  Beta virt. eigenvalues --    0.03805   0.03881   0.04047   0.04267   0.04444
  Beta virt. eigenvalues --    0.04562   0.04767   0.05143   0.05233   0.05656
  Beta virt. eigenvalues --    0.05858   0.05963   0.06312   0.06565   0.06722
  Beta virt. eigenvalues --    0.07410   0.07703   0.07863   0.08190   0.08808
  Beta virt. eigenvalues --    0.09075   0.09281   0.09523   0.09767   0.10282
  Beta virt. eigenvalues --    0.11177   0.11469   0.12054   0.12323   0.12491
  Beta virt. eigenvalues --    0.12865   0.13154   0.13631   0.13756   0.14281
  Beta virt. eigenvalues --    0.14627   0.15078   0.15241   0.15979   0.16150
  Beta virt. eigenvalues --    0.18381   0.25404   0.26842   0.28524   0.29399
  Beta virt. eigenvalues --    0.30824   0.31051   0.32166   0.32280   0.33182
  Beta virt. eigenvalues --    0.33708   0.34740   0.35366   0.36141   0.36588
  Beta virt. eigenvalues --    0.37043   0.37920   0.38376   0.39518   0.39737
  Beta virt. eigenvalues --    0.41269   0.42141   0.42765   0.43111   0.43858
  Beta virt. eigenvalues --    0.43936   0.43998   0.44366   0.44792   0.44968
  Beta virt. eigenvalues --    0.45249   0.45484   0.46076   0.46617   0.46874
  Beta virt. eigenvalues --    0.47607   0.47820   0.48240   0.49636   0.49797
  Beta virt. eigenvalues --    0.50905   0.51808   0.52506   0.52689   0.54111
  Beta virt. eigenvalues --    0.54730   0.55276   0.55923   0.56619   0.57616
  Beta virt. eigenvalues --    0.58551   0.59247   0.60539   0.61278   0.62027
  Beta virt. eigenvalues --    0.73274   0.79263   2.03836   2.09832   2.10586
  Beta virt. eigenvalues --    2.15455   2.17067   2.21152   2.24297   4.42417
  Beta virt. eigenvalues --    4.44151   4.44546   4.45226   4.45580   4.45858
  Beta virt. eigenvalues --    4.46154   4.46498   4.46676   4.47019   4.47276
  Beta virt. eigenvalues --    4.47818   4.48958   4.49515   4.49621   4.50597
  Beta virt. eigenvalues --    4.50960   4.52742   4.55932   4.66249   4.75477
  Beta virt. eigenvalues --   96.23403  96.30705  96.31032  96.36721  96.38976
  Beta virt. eigenvalues --   96.44995  96.49081
          Condensed to atoms (all electrons):
               1          2          3          4          5          6
     1  Na  11.251310   0.791519   0.049142  -0.932209  -0.384156  -0.020905
     2  Na   0.791519  12.526477  -0.143379  -0.427844  -1.294181  -0.125690
     3  Na   0.049142  -0.143379  10.498029   0.087272   0.048090   0.052575
     4  Na  -0.932209  -0.427844   0.087272  14.008318  -1.349523   0.318347
     5  Na  -0.384156  -1.294181   0.048090  -1.349523  13.184599  -0.049522
     6  Na  -0.020905  -0.125690   0.052575   0.318347  -0.049522  10.679358
     7  Na   0.002701   0.042025   0.111110  -0.041208   0.280990   0.144654
               7
     1  Na   0.002701
     2  Na   0.042025
     3  Na   0.111110
     4  Na  -0.041208
     5  Na   0.280990
     6  Na   0.144654
     7  Na  10.532290
          Atomic-Atomic Spin Densities.
               1          2          3          4          5          6
     1  Na   0.195120   0.620073  -0.044774  -0.120650  -0.451060  -0.067677
     2  Na   0.620073   1.982301  -0.111850  -0.665066  -0.968705  -0.213287
     3  Na  -0.044774  -0.111850  -0.014958   0.033223   0.066678   0.012224
     4  Na  -0.120650  -0.665066   0.033223   0.443811   0.456706   0.081958
     5  Na  -0.451060  -0.968705   0.066678   0.456706   0.784228   0.167835
     6  Na  -0.067677  -0.213287   0.012224   0.081958   0.167835   0.047138
     7  Na  -0.049956  -0.063760  -0.013116   0.031783   0.071376   0.004407
               7
     1  Na  -0.049956
     2  Na  -0.063760
     3  Na  -0.013116
     4  Na   0.031783
     5  Na   0.071376
     6  Na   0.004407
     7  Na   0.009636
 Mulliken charges and spin densities:
               1          2
     1  Na   0.242598   0.081076
     2  Na  -0.368927   0.579706
     3  Na   0.297160  -0.072574
     4  Na  -0.663154   0.261765
     5  Na   0.563702   0.127058
     6  Na   0.001183   0.032597
     7  Na  -0.072562  -0.009630
 Sum of Mulliken charges =  -0.00000   1.00000
 Mulliken charges and spin densities with hydrogens summed into heavy atoms:
               1          2
     1  Na   0.242598   0.081076
     2  Na  -0.368927   0.579706
     3  Na   0.297160  -0.072574
     4  Na  -0.663154   0.261765
     5  Na   0.563702   0.127058
     6  Na   0.001183   0.032597
     7  Na  -0.072562  -0.009630
 Electronic spatial extent (au):  <R**2>=           2764.1563
 Charge=             -0.0000 electrons
 Dipole moment (field-independent basis, Debye):
    X=             -0.1281    Y=             -0.5334    Z=              0.3750  Tot=              0.6645
 Quadrupole moment (field-independent basis, Debye-Ang):
   XX=            -57.6240   YY=            -59.6517   ZZ=            -75.6484
   XY=              1.5737   XZ=              1.1046   YZ=             -2.2347
 Traceless Quadrupole moment (field-independent basis, Debye-Ang):
   XX=              6.6840   YY=              4.6563   ZZ=            -11.3403
   XY=              1.5737   XZ=              1.1046   YZ=             -2.2347
 Octapole moment (field-independent basis, Debye-Ang**2):
  XXX=             26.4952  YYY=             -5.4309  ZZZ=              4.9461  XYY=            -16.3337
  XXY=            -23.3183  XXZ=              1.8541  XZZ=             -1.6162  YZZ=              0.9191
  YYZ=              2.7945  XYZ=              4.7894
 Hexadecapole moment (field-independent basis, Debye-Ang**3):
 XXXX=          -1918.6756 YYYY=          -1639.6838 ZZZZ=           -813.8928 XXXY=            -32.0484
 XXXZ=             38.6997 YYYX=             44.6916 YYYZ=            -53.6770 ZZZX=              6.0417
 ZZZY=              5.1388 XXYY=           -535.7687 XXZZ=           -520.1416 YYZZ=           -476.4248
 XXYZ=            -26.6394 YYXZ=            -17.3967 ZZXY=             -0.3155
 N-N= 3.183163526183D+02 E-N=-3.365832278067D+03  KE= 1.132877370093D+03
                          Isotropic Fermi Contact Couplings
        Atom                 a.u.       MegaHertz       Gauss      10(-4) cm-1
     1  Na(23)            -0.01393     -16.47942      -5.88027      -5.49694
     2  Na(23)             0.40465     478.71100     170.81599     159.68080
     3  Na(23)            -0.02750     -32.53661     -11.60987     -10.85304
     4  Na(23)             0.07344      86.88601      31.00309      28.98205
     5  Na(23)             0.16466     194.79454      69.50754      64.97646
     6  Na(23)             0.00436       5.16222       1.84201       1.72193
     7  Na(23)            -0.00794      -9.39238      -3.35144      -3.13296
 --------------------------------------------------------
       Center         ----  Spin Dipole Couplings  ----
                      3XX-RR        3YY-RR        3ZZ-RR
 --------------------------------------------------------
     1   Atom       -0.016234     -0.016318      0.032552
     2   Atom       -0.002222      0.007042     -0.004819
     3   Atom        0.000475     -0.002173      0.001698
     4   Atom       -0.012576     -0.018128      0.030703
     5   Atom       -0.006682     -0.011174      0.017855
     6   Atom       -0.006058     -0.001951      0.008008
     7   Atom       -0.007383     -0.006459      0.013841
 --------------------------------------------------------
                        XY            XZ            YZ
 --------------------------------------------------------
     1   Atom        0.002426      0.007198      0.009577
     2   Atom        0.002384     -0.001159     -0.005585
     3   Atom       -0.000824      0.000225      0.000220
     4   Atom       -0.004013      0.022957     -0.008531
     5   Atom       -0.002624     -0.017318      0.007323
     6   Atom        0.000715      0.000925      0.002043
     7   Atom        0.003961     -0.000260     -0.002813
 --------------------------------------------------------


 ---------------------------------------------------------------------------------
              Anisotropic Spin Dipole Couplings in Principal Axis System
 ---------------------------------------------------------------------------------

       Atom             a.u.   MegaHertz   Gauss  10(-4) cm-1        Axes

              Baa    -0.0188    -2.660    -0.949    -0.887 -0.5603  0.8249 -0.0753
     1 Na(23) Bbb    -0.0166    -2.347    -0.837    -0.783  0.8157  0.5336 -0.2233
              Bcc     0.0355     5.007     1.787     1.670  0.1441  0.1865  0.9718
 
              Baa    -0.0070    -0.995    -0.355    -0.332  0.0449  0.3617  0.9312
     2 Na(23) Bbb    -0.0028    -0.394    -0.141    -0.132  0.9758 -0.2157  0.0367
              Bcc     0.0098     1.389     0.496     0.463  0.2142  0.9070 -0.3626
 
              Baa    -0.0024    -0.343    -0.122    -0.114  0.2773  0.9585 -0.0663
     3 Na(23) Bbb     0.0007     0.097     0.035     0.032  0.9470 -0.2844 -0.1492
              Bcc     0.0017     0.246     0.088     0.082  0.1619  0.0214  0.9866
 
              Baa    -0.0225    -3.180    -1.135    -1.061  0.9193  0.1014 -0.3803
     4 Na(23) Bbb    -0.0196    -2.764    -0.986    -0.922 -0.0332  0.9828  0.1819
              Bcc     0.0421     5.943     2.121     1.982  0.3922 -0.1546  0.9068
 
              Baa    -0.0160    -2.253    -0.804    -0.751  0.8244 -0.2912  0.4854
     5 Na(23) Bbb    -0.0124    -1.746    -0.623    -0.582  0.3475  0.9372 -0.0280
              Bcc     0.0283     3.999     1.427     1.334 -0.4468  0.1917  0.8739
 
              Baa    -0.0062    -0.876    -0.313    -0.292  0.9884 -0.1452 -0.0434
     6 Na(23) Bbb    -0.0023    -0.322    -0.115    -0.108  0.1335  0.9697 -0.2045
              Bcc     0.0085     1.198     0.428     0.400  0.0718  0.1963  0.9779
 
              Baa    -0.0110    -1.557    -0.555    -0.519  0.7321 -0.6777 -0.0690
     7 Na(23) Bbb    -0.0032    -0.456    -0.163    -0.152  0.6801  0.7216  0.1293
              Bcc     0.0143     2.013     0.718     0.671 -0.0378 -0.1416  0.9892
 

 ---------------------------------------------------------------------------------

 No NMR shielding tensors so no spin-rotation constants.
 Leave Link  601 at Sat Dec  9 05:24:42 2023, MaxMem=  1879048192 cpu:               2.3 elap:               0.2
 (Enter /home/sekinelabo/g16/l701.exe)
 ... and contract with generalized density number  0.
 Compute integral first derivatives.
 Leave Link  701 at Sat Dec  9 05:24:42 2023, MaxMem=  1879048192 cpu:               1.5 elap:               0.1
 (Enter /home/sekinelabo/g16/l702.exe)
 L702 exits ... SP integral derivatives will be done elsewhere.
 Leave Link  702 at Sat Dec  9 05:24:42 2023, MaxMem=  1879048192 cpu:               0.5 elap:               0.0
 (Enter /home/sekinelabo/g16/l703.exe)
 Integral derivatives from FoFJK, PRISM(SPDF).
 Compute integral first derivatives, UseDBF=F ICtDFT=           0.
 Calling FoFJK, ICntrl=      2127 FMM=F ISym2X=0 I1Cent= 0 IOpClX= 1 NMat=1 NMatS=1 NMatT=0.
 FoFJK:  IHMeth= 1 ICntrl=    2127 DoSepK=F KAlg= 0 I1Cent=           0 FoldK=F
 IRaf=         0 NMat=       1 IRICut=       1 DoRegI=T DoRafI=F ISym2E= 0 IDoP0=0 IntGTp=1.
 FoFCou: FMM=F IPFlag=           0 FMFlag=      100000 FMFlg1=         800
         NFxFlg=           0 DoJE=F BraDBF=F KetDBF=F FulRan=T
         wScrn=  0.000000 ICntrl=      2127 IOpCl=  1 I1Cent=           0 NGrid=           0
         NMat0=    1 NMatS0=      1 NMatT0=    0 NMatD0=    1 NMtDS0=    0 NMtDT0=    0
 Symmetry not used in FoFCou.
 Leave Link  703 at Sat Dec  9 05:24:44 2023, MaxMem=  1879048192 cpu:              32.2 elap:               2.2
 (Enter /home/sekinelabo/g16/l716.exe)
 Dipole        =-5.03886874D-02-2.09844735D-01 1.47537140D-01
 ***** Axes restored to original set *****
 -------------------------------------------------------------------
 Center     Atomic                   Forces (Hartrees/Bohr)
 Number     Number              X              Y              Z
 -------------------------------------------------------------------
      1       11          -0.004080793    0.004555525    0.001482109
      2       11           0.001380603   -0.001332268   -0.000666987
      3       11           0.003499858   -0.001376110    0.003191080
      4       11          -0.008540330    0.000245260   -0.008170324
      5       11           0.008766009   -0.009249948    0.005242770
      6       11          -0.002314300    0.004359367   -0.002210310
      7       11           0.001288953    0.002798175    0.001131663
 -------------------------------------------------------------------
 Cartesian Forces:  Max     0.009249948 RMS     0.004565471
 Z-matrix is all fixed cartesians, so copy forces.
 Force constants in Cartesian coordinates: 
                1             2             3             4             5 
      1  0.492184D-01
      2 -0.163151D-02  0.813765D-01
      3 -0.723369D-02  0.103094D-01  0.427807D-01
      4 -0.147119D-01  0.765264D-02  0.942562D-02  0.801755D-01
      5 -0.167114D-01 -0.178299D-01  0.130267D-01 -0.397233D-02  0.643844D-01
      6  0.337291D-03 -0.105495D-01 -0.126961D-01 -0.209542D-01  0.530746D-02
      7  0.310144D-02 -0.376535D-03 -0.643514D-03  0.257943D-02  0.114026D-02
      8 -0.453035D-02  0.132418D-02  0.186413D-03 -0.433228D-03  0.263435D-02
      9 -0.386386D-02  0.215712D-03  0.103861D-02 -0.575753D-02  0.101915D-02
     10 -0.179894D-01 -0.108019D-02  0.131579D-02 -0.178451D-01 -0.408503D-02
     11 -0.306553D-02 -0.198149D-01 -0.225564D-01  0.259634D-02 -0.131127D-01
     12  0.572339D-02  0.836890D-02 -0.295424D-01 -0.279876D-02  0.495400D-02
     13 -0.293401D-01 -0.280463D-02  0.195764D-02 -0.242136D-01  0.482616D-02
     14  0.266477D-01 -0.409501D-01 -0.155733D-04  0.249976D-03 -0.995348D-02
     15  0.976294D-02 -0.494836D-02 -0.126079D-01  0.150780D-01 -0.372941D-02
     16  0.697470D-02  0.106479D-03 -0.216171D-02 -0.142645D-01  0.103609D-01
     17  0.358671D-03 -0.269882D-02  0.121276D-02 -0.760567D-03 -0.101874D-01
     18 -0.219648D-02 -0.455712D-03  0.387737D-02  0.947742D-02 -0.107240D-01
     19  0.274699D-02 -0.186625D-02 -0.266013D-02 -0.117198D-01  0.844152D-02
     20 -0.106749D-02 -0.140695D-02 -0.216327D-02 -0.533283D-02 -0.159353D-01
     21 -0.252959D-02 -0.294045D-02  0.714975D-02 -0.447053D-02 -0.985383D-02
                6             7             8             9            10 
      6  0.796802D-01
      7  0.816574D-03  0.270995D-01
      8 -0.168124D-02 -0.176844D-02  0.303468D-01
      9 -0.412434D-02  0.540023D-02  0.289648D-04  0.287442D-01
     10  0.127953D-01 -0.282320D-01 -0.299390D-03  0.172397D-01  0.126914D+00
     11 -0.158029D-02  0.901383D-02 -0.269861D-01 -0.508043D-03 -0.521571D-02
     12 -0.245552D-01  0.198913D-02 -0.964683D-02 -0.240416D-01 -0.104176D-01
     13 -0.344219D-02  0.411964D-02 -0.115072D-02 -0.685288D-02 -0.507064D-01
     14 -0.262389D-02 -0.365229D-02  0.108857D-01  0.254360D-02  0.762537D-02
     15 -0.122297D-01 -0.511606D-02  0.312642D-02  0.783262D-02 -0.210797D-01
     16 -0.158188D-02  0.165225D-02  0.147475D-02  0.227016D-03  0.534365D-02
     17  0.713496D-02  0.327164D-02  0.344077D-02  0.178402D-02  0.299126D-02
     18 -0.773750D-02 -0.478153D-03 -0.191190D-03  0.404712D-03 -0.277400D-02
     19  0.120291D-01 -0.103202D-01  0.670737D-02 -0.639267D-02 -0.174849D-01
     20  0.399248D-02 -0.762847D-02 -0.216458D-01 -0.508340D-02  0.636971D-04
     21 -0.183373D-01 -0.196821D-02  0.817746D-02 -0.985427D-02  0.292059D-02
               11            12            13            14            15 
     11  0.133376D+00
     12 -0.106628D-02  0.156494D+00
     13  0.275251D-02  0.107852D-01  0.120652D+00
     14 -0.499882D-01 -0.276516D-02 -0.990775D-02  0.996050D-01
     15  0.358011D-02 -0.517710D-01  0.562329D-03  0.465208D-02  0.758214D-01
     16  0.941397D-03 -0.840242D-03 -0.166457D-01 -0.127411D-01  0.545746D-02
     17 -0.163164D-02  0.449347D-02  0.944325D-02 -0.111881D-01  0.762255D-03
     18  0.958415D-02  0.235276D-03 -0.131577D-02  0.110327D-02 -0.105918D-01
     19 -0.702284D-02 -0.444108D-02 -0.386553D-02 -0.822189D-02 -0.466494D-02
     20 -0.218428D-01 -0.433809D-02 -0.315882D-02  0.158917D-02 -0.344309D-02
     21  0.125468D-01 -0.268195D-01 -0.169432D-02 -0.289432D-02  0.354635D-02
               16            17            18            19            20 
     16  0.313722D-01
     17 -0.390983D-02  0.425083D-01
     18  0.340110D-02 -0.720618D-02  0.267856D-01
     19 -0.144326D-01 -0.113944D-01 -0.611412D-02  0.550760D-01
     20  0.376741D-02 -0.202430D-01  0.788972D-02  0.133565D-01  0.794847D-01
     21 -0.450175D-02 -0.818127D-02 -0.129737D-01  0.122438D-01  0.314565D-02
               21 
     21  0.572887D-01
 Leave Link  716 at Sat Dec  9 05:24:44 2023, MaxMem=  1879048192 cpu:               0.4 elap:               0.0
 (Enter /home/sekinelabo/g16/l103.exe)

 GradGradGradGradGradGradGradGradGradGradGradGradGradGradGradGradGradGrad
 Berny optimization.
 Search for a local minimum.
 Step number   1 out of a maximum of    2
 All quantities printed in internal units (Hartrees-Bohrs-Radians)
 Second derivative matrix not updated -- first step.
 ITU=  0
     Eigenvalues ---    0.02957   0.03247   0.03473   0.04200   0.06153
     Eigenvalues ---    0.07029   0.08132   0.08854   0.09456   0.11175
     Eigenvalues ---    0.13057   0.13521   0.17222   0.18757   0.20889
 Angle between quadratic step and forces=  40.39 degrees.
 Linear search not attempted -- first point.
 B after Tr=     0.000000    0.000000    0.000000
         Rot=    1.000000    0.000000    0.000000    0.000000 Ang=   0.00 deg.
 Variable       Old X    -DE/DX   Delta X   Delta X   Delta X     New X
                                 (Linear)    (Quad)   (Total)
    X1       26.57465  -0.00408   0.00000  -0.04453  -0.04453  26.53012
    Y1       30.58144   0.00456   0.00000   0.01146   0.01146  30.59290
    Z1       26.47280   0.00148   0.00000  -0.00837  -0.00837  26.46443
    X2       22.52705   0.00138   0.00000   0.00666   0.00666  22.53370
    Y2       25.01563  -0.00133   0.00000  -0.02218  -0.02218  24.99344
    Z2       28.29676  -0.00067   0.00000  -0.02366  -0.02366  28.27310
    X3       19.16428   0.00350   0.00000   0.08141   0.08141  19.24569
    Y3       25.02886  -0.00138   0.00000  -0.03137  -0.03137  24.99748
    Z3       18.56134   0.00319   0.00000   0.10279   0.10279  18.66413
    X4       25.12164  -0.00854   0.00000  -0.04813  -0.04813  25.07351
    Y4       26.25302   0.00025   0.00000  -0.02984  -0.02984  26.22318
    Z4       21.95635  -0.00817   0.00000  -0.04037  -0.04037  21.91598
    X5       29.04736   0.00877   0.00000   0.03157   0.03157  29.07892
    Y5       25.61524  -0.00925   0.00000  -0.07979  -0.07979  25.53545
    Z5       25.60541   0.00524   0.00000   0.02717   0.02717  25.63258
    X6       26.81540  -0.00231   0.00000  -0.04835  -0.04835  26.76705
    Y6       18.56665   0.00436   0.00000   0.09223   0.09223  18.65889
    Z6       27.66521  -0.00221   0.00000  -0.06280  -0.06280  27.60241
    X7       22.07446   0.00129   0.00000   0.02138   0.02138  22.09583
    Y7       20.26391   0.00280   0.00000   0.05949   0.05949  20.32340
    Z7       22.76685   0.00113   0.00000   0.00524   0.00524  22.77209
         Item               Value     Threshold  Converged?
 Maximum Force            0.009250     0.000450     NO 
 RMS     Force            0.004565     0.000300     NO 
 Maximum Displacement     0.102788     0.001800     NO 
 RMS     Displacement     0.050335     0.001200     NO 
 Predicted change in Energy=-1.837804D-03
 GradGradGradGradGradGradGradGradGradGradGradGradGradGradGradGradGradGrad

 Leave Link  103 at Sat Dec  9 05:24:44 2023, MaxMem=  1879048192 cpu:               0.2 elap:               0.0
 (Enter /home/sekinelabo/g16/l9999.exe)
 1\1\GINC-SEKINELABO-XA7R-R37\Force\UB3LYP\6-311+G(d)\Na7(2)\SEKINELABO
 \09-Dec-2023\0\\#P B3LYP/6-311+g(d) force\\DPGEN\\0,2\Na,14.0627,16.18
 3,14.0088\Na,11.9208,13.2377,14.974\Na,10.1413,13.2447,9.82224\Na,13.2
 938,13.8925,11.6188\Na,15.3712,13.555,13.5498\Na,14.1901,9.82505,14.63
 98\Na,11.6813,10.7232,12.0477\\Version=ES64L-G16RevB.01\State=2-A\HF=-
 1136.1215466\S2=0.761103\S2-1=0.\S2A=0.750069\RMSD=7.198e-09\RMSF=4.56
 5e-03\Dipole=-0.084147,0.2365178,0.0729361\Quadrupole=-1.2237425,4.243
 5524,-3.01981,1.2691763,6.5251017,0.4318872\PG=C01 [X(Na7)]\\@


 READER, WHETHER YOU BE DILETTANTE OR PROFESSOR ... SHOW YOURSELF TO BE
 MORE HUMAN THAN CRITICAL, AND THEN YOUR PLEASURE WILL INCREASE.
                                           -- DOMENICO SCARLATTI (1738)
 Job cpu time:       0 days  0 hours  3 minutes 53.7 seconds.
 Elapsed time:       0 days  0 hours  0 minutes 19.9 seconds.
 File lengths (MBytes):  RWF=     32 Int=      0 D2E=      0 Chk=      4 Scr=      1
 Normal termination of Gaussian 16 at Sat Dec  9 05:24:44 2023.
