 Set GAUSS_MDEF to "14GB".
 Entering Gaussian System, Link 0=g16
 Initial command:
 /home/sekinelabo/g16/l1.exe "/home/sekinelabo/g16temp/Gau-1474806.inp" -scrdir="/home/sekinelabo/g16temp/"
 Entering Link 1 = /home/sekinelabo/g16/l1.exe PID=   1474808.
  
 Copyright (c) 1988-2017, Gaussian, Inc.  All Rights Reserved.
  
 This is part of the Gaussian(R) 16 program.  It is based on
 the Gaussian(R) 09 system (copyright 2009, Gaussian, Inc.),
 the Gaussian(R) 03 system (copyright 2003, Gaussian, Inc.),
 the Gaussian(R) 98 system (copyright 1998, Gaussian, Inc.),
 the Gaussian(R) 94 system (copyright 1995, Gaussian, Inc.),
 the Gaussian 92(TM) system (copyright 1992, Gaussian, Inc.),
 the Gaussian 90(TM) system (copyright 1990, Gaussian, Inc.),
 the Gaussian 88(TM) system (copyright 1988, Gaussian, Inc.),
 the Gaussian 86(TM) system (copyright 1986, Carnegie Mellon
 University), and the Gaussian 82(TM) system (copyright 1983,
 Carnegie Mellon University). Gaussian is a federally registered
 trademark of Gaussian, Inc.
  
 This software contains proprietary and confidential information,
 including trade secrets, belonging to Gaussian, Inc.
  
 This software is provided under written license and may be
 used, copied, transmitted, or stored only in accord with that
 written license.
  
 The following legend is applicable only to US Government
 contracts under FAR:
  
                    RESTRICTED RIGHTS LEGEND
  
 Use, reproduction and disclosure by the US Government is
 subject to restrictions as set forth in subparagraphs (a)
 and (c) of the Commercial Computer Software - Restricted
 Rights clause in FAR 52.227-19.
  
 Gaussian, Inc.
 340 Quinnipiac St., Bldg. 40, Wallingford CT 06492
  
  
 ---------------------------------------------------------------
 Warning -- This program may not be used in any manner that
 competes with the business of Gaussian, Inc. or will provide
 assistance to any competitor of Gaussian, Inc.  The licensee
 of this program is prohibited from giving any competitor of
 Gaussian, Inc. access to this program.  By using this program,
 the user acknowledges that Gaussian, Inc. is engaged in the
 business of creating and licensing software in the field of
 computational chemistry and represents and warrants to the
 licensee that it is not a competitor of Gaussian, Inc. and that
 it will not use this program in any manner prohibited above.
 ---------------------------------------------------------------
  

 Cite this work as:
 Gaussian 16, Revision B.01,
 M. J. Frisch, G. W. Trucks, H. B. Schlegel, G. E. Scuseria, 
 M. A. Robb, J. R. Cheeseman, G. Scalmani, V. Barone, 
 G. A. Petersson, H. Nakatsuji, X. Li, M. Caricato, A. V. Marenich, 
 J. Bloino, B. G. Janesko, R. Gomperts, B. Mennucci, H. P. Hratchian, 
 J. V. Ortiz, A. F. Izmaylov, J. L. Sonnenberg, D. Williams-Young, 
 F. Ding, F. Lipparini, F. Egidi, J. Goings, B. Peng, A. Petrone, 
 T. Henderson, D. Ranasinghe, V. G. Zakrzewski, J. Gao, N. Rega, 
 G. Zheng, W. Liang, M. Hada, M. Ehara, K. Toyota, R. Fukuda, 
 J. Hasegawa, M. Ishida, T. Nakajima, Y. Honda, O. Kitao, H. Nakai, 
 T. Vreven, K. Throssell, J. A. Montgomery, Jr., J. E. Peralta, 
 F. Ogliaro, M. J. Bearpark, J. J. Heyd, E. N. Brothers, K. N. Kudin, 
 V. N. Staroverov, T. A. Keith, R. Kobayashi, J. Normand, 
 K. Raghavachari, A. P. Rendell, J. C. Burant, S. S. Iyengar, 
 J. Tomasi, M. Cossi, J. M. Millam, M. Klene, C. Adamo, R. Cammi, 
 J. W. Ochterski, R. L. Martin, K. Morokuma, O. Farkas, 
 J. B. Foresman, and D. J. Fox, Gaussian, Inc., Wallingford CT, 2016.
 
 ******************************************
 Gaussian 16:  ES64L-G16RevB.01 20-Dec-2017
                 7-Dec-2023 
 ******************************************
 %nproc=15
 Will use up to   15 processors via shared memory.
 -------------------------
 #P B3LYP/6-311+g(d) force
 -------------------------
 1/10=7,30=1,38=1/1,3;
 2/12=2,17=6,18=5,40=1/2;
 3/5=4,6=6,7=11,11=2,25=1,30=1,71=1,74=-5/1,2,3;
 4//1;
 5/5=2,38=5/2;
 6/7=2,8=2,9=2,10=2,28=1/1;
 7/29=1/1,2,3,16;
 1/10=7,30=1/3;
 99//99;
 Leave Link    1 at Thu Dec  7 15:55:21 2023, MaxMem=           0 cpu:               0.3 elap:               0.0
 (Enter /home/sekinelabo/g16/l101.exe)
 -----
 DPGEN
 -----
 Symbolic Z-matrix:
 Charge =  0 Multiplicity = 2
 Na                    11.8836   15.0103   11.586 
 Na                    12.3723   11.6683   11.0994 
 Na                    15.4362   14.2365   15.6831 
 Na                    14.4565   10.8048   14.6278 
 Na                    14.806    13.1547   12.2781 
 Na                    11.7603   13.3317   14.9015 
 Na                    13.9552   16.4638   14.4942 
 
 ITRead=  0  0  0  0  0  0  0
 MicOpt= -1 -1 -1 -1 -1 -1 -1
 NAtoms=      7 NQM=        7 NQMF=       0 NMMI=      0 NMMIF=      0
                NMic=       0 NMicF=      0.
                    Isotopes and Nuclear Properties:
 (Nuclear quadrupole moments (NQMom) in fm**2, nuclear magnetic moments (NMagM)
  in nuclear magnetons)

  Atom         1           2           3           4           5           6           7
 IAtWgt=          23          23          23          23          23          23          23
 AtmWgt=  22.9897697  22.9897697  22.9897697  22.9897697  22.9897697  22.9897697  22.9897697
 NucSpn=           3           3           3           3           3           3           3
 AtZEff=  -0.0000000  -0.0000000  -0.0000000  -0.0000000  -0.0000000  -0.0000000  -0.0000000
 NQMom=   10.4000000  10.4000000  10.4000000  10.4000000  10.4000000  10.4000000  10.4000000
 NMagM=    2.2175200   2.2175200   2.2175200   2.2175200   2.2175200   2.2175200   2.2175200
 AtZNuc=  11.0000000  11.0000000  11.0000000  11.0000000  11.0000000  11.0000000  11.0000000
 Leave Link  101 at Thu Dec  7 15:55:22 2023, MaxMem=  1879048192 cpu:               2.4 elap:               0.2
 (Enter /home/sekinelabo/g16/l103.exe)

 GradGradGradGradGradGradGradGradGradGradGradGradGradGradGradGradGradGrad
 Berny optimization.
 Initialization pass.
 Trust Radius=3.00D-01 FncErr=1.00D-07 GrdErr=1.00D-07 EigMax=2.50D+02 EigMin=1.00D-04
 Number of steps in this run=      2 maximum allowed number of steps=      2.
 GradGradGradGradGradGradGradGradGradGradGradGradGradGradGradGradGradGrad

 Leave Link  103 at Thu Dec  7 15:55:22 2023, MaxMem=  1879048192 cpu:               0.2 elap:               0.0
 (Enter /home/sekinelabo/g16/l202.exe)
                          Input orientation:                          
 ---------------------------------------------------------------------
 Center     Atomic      Atomic             Coordinates (Angstroms)
 Number     Number       Type             X           Y           Z
 ---------------------------------------------------------------------
      1         11           0       11.883600   15.010300   11.586000
      2         11           0       12.372300   11.668300   11.099400
      3         11           0       15.436200   14.236500   15.683100
      4         11           0       14.456500   10.804800   14.627800
      5         11           0       14.806000   13.154700   12.278100
      6         11           0       11.760300   13.331700   14.901500
      7         11           0       13.955200   16.463800   14.494200
 ---------------------------------------------------------------------
                    Distance matrix (angstroms):
                    1          2          3          4          5
     1  Na   0.000000
     2  Na   3.412414   0.000000
     3  Na   5.477770   6.082223   0.000000
     4  Na   5.792978   4.187974   3.721564   0.000000
     5  Na   3.530251   3.085711   3.627874   3.341447   0.000000
     6  Na   3.718258   4.194926   3.865463   3.705352   4.023661
     7  Na   3.855103   6.084986   2.927065   5.682731   4.072481
                    6          7
     6  Na   0.000000
     7  Na   3.846236   0.000000
 Stoichiometry    Na7(2)
 Framework group  C1[X(Na7)]
 Deg. of freedom    15
 Full point group                 C1      NOp   1
 Largest Abelian subgroup         C1      NOp   1
 Largest concise Abelian subgroup C1      NOp   1
                         Standard orientation:                         
 ---------------------------------------------------------------------
 Center     Atomic      Atomic             Coordinates (Angstroms)
 Number     Number       Type             X           Y           Z
 ---------------------------------------------------------------------
      1         11           0        1.296488   -2.641145    0.023899
      2         11           0        3.256711    0.146262   -0.156265
      3         11           0       -2.756415    1.014209   -0.443358
      4         11           0        0.273840    3.055824    0.263322
      5         11           0        0.587788    0.362826   -1.689744
      6         11           0       -0.182235   -0.045940    2.238337
      7         11           0       -2.476177   -1.892036   -0.236191
 ---------------------------------------------------------------------
 Rotational constants (GHZ):           0.7505385           0.6338367           0.4623350
 Leave Link  202 at Thu Dec  7 15:55:22 2023, MaxMem=  1879048192 cpu:               0.0 elap:               0.0
 (Enter /home/sekinelabo/g16/l301.exe)
 Standard basis: 6-311+G(d) (5D, 7F)
 Ernie: Thresh=  0.10000D-02 Tol=  0.10000D-05 Strict=F.
 There are   217 symmetry adapted cartesian basis functions of A   symmetry.
 There are   210 symmetry adapted basis functions of A   symmetry.
   210 basis functions,   350 primitive gaussians,   217 cartesian basis functions
    39 alpha electrons       38 beta electrons
       nuclear repulsion energy       335.1165965354 Hartrees.
 IExCor=  402 DFT=T Ex+Corr=B3LYP ExCW=0 ScaHFX=  0.200000
 ScaDFX=  0.800000  0.720000  1.000000  0.810000 ScalE2=  1.000000  1.000000
 IRadAn=      5 IRanWt=     -1 IRanGd=            0 ICorTp=0 IEmpDi=  4
 NAtoms=    7 NActive=    7 NUniq=    7 SFac= 1.00D+00 NAtFMM=   60 NAOKFM=F Big=F
 Integral buffers will be    131072 words long.
 Raffenetti 2 integral format.
 Two-electron integral symmetry is turned on.
 Leave Link  301 at Thu Dec  7 15:55:22 2023, MaxMem=  1879048192 cpu:               0.5 elap:               0.0
 (Enter /home/sekinelabo/g16/l302.exe)
 NPDir=0 NMtPBC=     1 NCelOv=     1 NCel=       1 NClECP=     1 NCelD=      1
         NCelK=      1 NCelE2=     1 NClLst=     1 CellRange=     0.0.
 One-electron integrals computed using PRISM.
 One-electron integral symmetry used in STVInt
 NBasis=   210 RedAO= T EigKep=  4.43D-06  NBF=   210
 NBsUse=   210 1.00D-06 EigRej= -1.00D+00 NBFU=   210
 Precomputing XC quadrature grid using
 IXCGrd= 4 IRadAn=           5 IRanWt=          -1 IRanGd=           0 AccXCQ= 0.00D+00.
 Generated NRdTot=       0 NPtTot=           0 NUsed=           0 NTot=          32
 NSgBfM=   211   211   211   211   211 MxSgAt=     7 MxSgA2=     7.
 Leave Link  302 at Thu Dec  7 15:55:22 2023, MaxMem=  1879048192 cpu:               2.1 elap:               0.1
 (Enter /home/sekinelabo/g16/l303.exe)
 DipDrv:  MaxL=1.
 Leave Link  303 at Thu Dec  7 15:55:22 2023, MaxMem=  1879048192 cpu:               0.5 elap:               0.0
 (Enter /home/sekinelabo/g16/l401.exe)
 ExpMin= 7.60D-03 ExpMax= 3.62D+04 ExpMxC= 1.21D+03 IAcc=3 IRadAn=         5 AccDes= 0.00D+00
 Harris functional with IExCor=  402 and IRadAn=       5 diagonalized for initial guess.
 HarFok:  IExCor=  402 AccDes= 0.00D+00 IRadAn=         5 IDoV= 1 UseB2=F ITyADJ=14
 ICtDFT=  3500011 ScaDFX=  1.000000  1.000000  1.000000  1.000000
 FoFCou: FMM=F IPFlag=           0 FMFlag=      100000 FMFlg1=           0
         NFxFlg=           0 DoJE=T BraDBF=F KetDBF=T FulRan=T
         wScrn=  0.000000 ICntrl=       500 IOpCl=  0 I1Cent=   200000004 NGrid=           0
         NMat0=    1 NMatS0=      1 NMatT0=    0 NMatD0=    1 NMtDS0=    0 NMtDT0=    0
 Petite list used in FoFCou.
 Harris En= -1135.90174898078    
 JPrj=0 DoOrth=F DoCkMO=F.
 Initial guess <Sx>= 0.0000 <Sy>= 0.0000 <Sz>= 0.5000 <S**2>= 0.7500 S= 0.5000
 Leave Link  401 at Thu Dec  7 15:55:22 2023, MaxMem=  1879048192 cpu:               4.5 elap:               0.3
 (Enter /home/sekinelabo/g16/l502.exe)
 Keep R1 and R2 ints in memory in canonical form, NReq=506573307.
 FoFCou: FMM=F IPFlag=           0 FMFlag=           0 FMFlg1=           0
         NFxFlg=           0 DoJE=F BraDBF=F KetDBF=F FulRan=T
         wScrn=  0.000000 ICntrl=       600 IOpCl=  0 I1Cent=           0 NGrid=           0
         NMat0=    1 NMatS0=  22155 NMatT0=    0 NMatD0=    1 NMtDS0=    0 NMtDT0=    0
 Symmetry not used in FoFCou.
 Two-electron integral symmetry not used.
 UHF open shell SCF:
 Using DIIS extrapolation, IDIIS=  1040.
 NGot=  1879048192 LenX=  1388082593 LenY=  1388035063
 Requested convergence on RMS density matrix=1.00D-08 within 128 cycles.
 Requested convergence on MAX density matrix=1.00D-06.
 Requested convergence on             energy=1.00D-06.
 No special actions if energy rises.

 Cycle   1  Pass 1  IDiag  1:
 E= -1136.09846611210    
 DIIS: error= 1.16D-02 at cycle   1 NSaved=   1.
 NSaved= 1 IEnMin= 1 EnMin= -1136.09846611210     IErMin= 1 ErrMin= 1.16D-02
 ErrMax= 1.16D-02  0.00D+00 EMaxC= 1.00D-01 BMatC= 1.92D-01 BMatP= 1.92D-01
 IDIUse=3 WtCom= 8.84D-01 WtEn= 1.16D-01
 Coeff-Com:  0.100D+01
 Coeff-En:   0.100D+01
 Coeff:      0.100D+01
 Gap=     0.042 Goal=   None    Shift=    0.000
 Gap=     0.048 Goal=   None    Shift=    0.000
 GapD=    0.042 DampG=0.250 DampE=0.500 DampFc=0.2500 IDamp=-1.
 Damping current iteration by 2.50D-01
 RMSDP=2.16D-02 MaxDP=1.30D+00              OVMax= 2.19D-01

 Cycle   2  Pass 1  IDiag  1:
 E= -1136.11039762720     Delta-E=       -0.011931515098 Rises=F Damp=T
 DIIS: error= 8.16D-03 at cycle   2 NSaved=   2.
 NSaved= 2 IEnMin= 2 EnMin= -1136.11039762720     IErMin= 2 ErrMin= 8.16D-03
 ErrMax= 8.16D-03  0.00D+00 EMaxC= 1.00D-01 BMatC= 7.32D-02 BMatP= 1.92D-01
 IDIUse=3 WtCom= 9.18D-01 WtEn= 8.16D-02
 Coeff-Com: -0.128D+01 0.228D+01
 Coeff-En:   0.000D+00 0.100D+01
 Coeff:     -0.118D+01 0.218D+01
 Gap=     0.053 Goal=   None    Shift=    0.000
 Gap=     0.050 Goal=   None    Shift=    0.000
 RMSDP=1.22D-02 MaxDP=7.92D-01 DE=-1.19D-02 OVMax= 1.35D-01

 Cycle   3  Pass 1  IDiag  1:
 E= -1136.13193903121     Delta-E=       -0.021541404007 Rises=F Damp=F
 DIIS: error= 2.23D-03 at cycle   3 NSaved=   3.
 NSaved= 3 IEnMin= 3 EnMin= -1136.13193903121     IErMin= 3 ErrMin= 2.23D-03
 ErrMax= 2.23D-03  0.00D+00 EMaxC= 1.00D-01 BMatC= 1.33D-03 BMatP= 7.32D-02
 IDIUse=3 WtCom= 9.78D-01 WtEn= 2.23D-02
 Coeff-Com: -0.919D-01 0.174D+00 0.918D+00
 Coeff-En:   0.000D+00 0.000D+00 0.100D+01
 Coeff:     -0.899D-01 0.170D+00 0.920D+00
 Gap=     0.050 Goal=   None    Shift=    0.000
 Gap=     0.049 Goal=   None    Shift=    0.000
 RMSDP=4.29D-03 MaxDP=5.50D-01 DE=-2.15D-02 OVMax= 5.76D-02

 Cycle   4  Pass 1  IDiag  1:
 E= -1136.13147930187     Delta-E=        0.000459729336 Rises=F Damp=F
 DIIS: error= 2.27D-03 at cycle   4 NSaved=   4.
 NSaved= 4 IEnMin= 3 EnMin= -1136.13193903121     IErMin= 3 ErrMin= 2.23D-03
 ErrMax= 2.27D-03  0.00D+00 EMaxC= 1.00D-01 BMatC= 1.68D-03 BMatP= 1.33D-03
 IDIUse=3 WtCom= 1.73D-01 WtEn= 8.27D-01
 Coeff-Com:  0.988D-02-0.131D-01 0.532D+00 0.472D+00
 Coeff-En:   0.000D+00 0.000D+00 0.578D+00 0.422D+00
 Coeff:      0.171D-02-0.227D-02 0.570D+00 0.430D+00
 Gap=     0.051 Goal=   None    Shift=    0.000
 Gap=     0.049 Goal=   None    Shift=    0.000
 RMSDP=1.84D-03 MaxDP=2.44D-01 DE= 4.60D-04 OVMax= 3.32D-02

 Cycle   5  Pass 1  IDiag  1:
 E= -1136.13298562432     Delta-E=       -0.001506322442 Rises=F Damp=F
 DIIS: error= 3.26D-04 at cycle   5 NSaved=   5.
 NSaved= 5 IEnMin= 5 EnMin= -1136.13298562432     IErMin= 5 ErrMin= 3.26D-04
 ErrMax= 3.26D-04  0.00D+00 EMaxC= 1.00D-01 BMatC= 3.95D-05 BMatP= 1.33D-03
 IDIUse=3 WtCom= 9.97D-01 WtEn= 3.26D-03
 Coeff-Com:  0.125D-02-0.221D-02 0.298D+00 0.234D+00 0.469D+00
 Coeff-En:   0.000D+00 0.000D+00 0.000D+00 0.000D+00 0.100D+01
 Coeff:      0.124D-02-0.221D-02 0.297D+00 0.233D+00 0.471D+00
 Gap=     0.051 Goal=   None    Shift=    0.000
 Gap=     0.049 Goal=   None    Shift=    0.000
 RMSDP=1.89D-04 MaxDP=1.20D-02 DE=-1.51D-03 OVMax= 7.12D-03

 Cycle   6  Pass 1  IDiag  1:
 E= -1136.13301901278     Delta-E=       -0.000033388465 Rises=F Damp=F
 DIIS: error= 1.07D-04 at cycle   6 NSaved=   6.
 NSaved= 6 IEnMin= 6 EnMin= -1136.13301901278     IErMin= 6 ErrMin= 1.07D-04
 ErrMax= 1.07D-04  0.00D+00 EMaxC= 1.00D-01 BMatC= 2.73D-06 BMatP= 3.95D-05
 IDIUse=3 WtCom= 9.99D-01 WtEn= 1.07D-03
 EnCoef did     2 forward-backward iterations
 Coeff-Com: -0.363D-02 0.450D-02-0.144D-02-0.118D-01 0.191D+00 0.821D+00
 Coeff-En:   0.000D+00 0.000D+00 0.000D+00 0.000D+00 0.306D-02 0.997D+00
 Coeff:     -0.363D-02 0.450D-02-0.144D-02-0.118D-01 0.191D+00 0.822D+00
 Gap=     0.051 Goal=   None    Shift=    0.000
 Gap=     0.049 Goal=   None    Shift=    0.000
 RMSDP=1.75D-04 MaxDP=2.21D-02 DE=-3.34D-05 OVMax= 3.00D-03

 Cycle   7  Pass 1  IDiag  1:
 E= -1136.13302183802     Delta-E=       -0.000002825236 Rises=F Damp=F
 DIIS: error= 6.55D-05 at cycle   7 NSaved=   7.
 NSaved= 7 IEnMin= 7 EnMin= -1136.13302183802     IErMin= 7 ErrMin= 6.55D-05
 ErrMax= 6.55D-05  0.00D+00 EMaxC= 1.00D-01 BMatC= 1.29D-06 BMatP= 2.73D-06
 IDIUse=1 WtCom= 1.00D+00 WtEn= 0.00D+00
 Coeff-Com: -0.248D-02 0.312D-02-0.400D-01-0.378D-01 0.624D-01 0.525D+00
 Coeff-Com:  0.489D+00
 Coeff:     -0.248D-02 0.312D-02-0.400D-01-0.378D-01 0.624D-01 0.525D+00
 Coeff:      0.489D+00
 Gap=     0.051 Goal=   None    Shift=    0.000
 Gap=     0.049 Goal=   None    Shift=    0.000
 RMSDP=9.01D-05 MaxDP=1.41D-02 DE=-2.83D-06 OVMax= 1.31D-03

 Cycle   8  Pass 1  IDiag  1:
 E= -1136.13302354190     Delta-E=       -0.000001703884 Rises=F Damp=F
 DIIS: error= 1.34D-05 at cycle   8 NSaved=   8.
 NSaved= 8 IEnMin= 8 EnMin= -1136.13302354190     IErMin= 8 ErrMin= 1.34D-05
 ErrMax= 1.34D-05  0.00D+00 EMaxC= 1.00D-01 BMatC= 6.04D-08 BMatP= 1.29D-06
 IDIUse=1 WtCom= 1.00D+00 WtEn= 0.00D+00
 Coeff-Com:  0.354D-03-0.458D-03-0.105D-01-0.716D-02-0.221D-01-0.537D-01
 Coeff-Com:  0.110D+00 0.983D+00
 Coeff:      0.354D-03-0.458D-03-0.105D-01-0.716D-02-0.221D-01-0.537D-01
 Coeff:      0.110D+00 0.983D+00
 Gap=     0.051 Goal=   None    Shift=    0.000
 Gap=     0.049 Goal=   None    Shift=    0.000
 RMSDP=3.24D-05 MaxDP=4.07D-03 DE=-1.70D-06 OVMax= 6.73D-04

 Cycle   9  Pass 1  IDiag  1:
 E= -1136.13302369293     Delta-E=       -0.000000151033 Rises=F Damp=F
 DIIS: error= 1.29D-05 at cycle   9 NSaved=   9.
 NSaved= 9 IEnMin= 9 EnMin= -1136.13302369293     IErMin= 9 ErrMin= 1.29D-05
 ErrMax= 1.29D-05  0.00D+00 EMaxC= 1.00D-01 BMatC= 3.78D-08 BMatP= 6.04D-08
 IDIUse=1 WtCom= 1.00D+00 WtEn= 0.00D+00
 Coeff-Com:  0.559D-03-0.715D-03-0.271D-02-0.960D-03-0.207D-01-0.840D-01
 Coeff-Com:  0.196D-01 0.614D+00 0.475D+00
 Coeff:      0.559D-03-0.715D-03-0.271D-02-0.960D-03-0.207D-01-0.840D-01
 Coeff:      0.196D-01 0.614D+00 0.475D+00
 Gap=     0.051 Goal=   None    Shift=    0.000
 Gap=     0.049 Goal=   None    Shift=    0.000
 RMSDP=7.37D-06 MaxDP=6.57D-04 DE=-1.51D-07 OVMax= 3.16D-04

 Cycle  10  Pass 1  IDiag  1:
 E= -1136.13302375347     Delta-E=       -0.000000060534 Rises=F Damp=F
 DIIS: error= 4.39D-06 at cycle  10 NSaved=  10.
 NSaved=10 IEnMin=10 EnMin= -1136.13302375347     IErMin=10 ErrMin= 4.39D-06
 ErrMax= 4.39D-06  0.00D+00 EMaxC= 1.00D-01 BMatC= 7.36D-09 BMatP= 3.78D-08
 IDIUse=1 WtCom= 1.00D+00 WtEn= 0.00D+00
 Coeff-Com:  0.296D-03-0.380D-03 0.344D-02 0.280D-02-0.503D-02-0.322D-01
 Coeff-Com: -0.377D-01-0.473D-01 0.271D+00 0.845D+00
 Coeff:      0.296D-03-0.380D-03 0.344D-02 0.280D-02-0.503D-02-0.322D-01
 Coeff:     -0.377D-01-0.473D-01 0.271D+00 0.845D+00
 Gap=     0.051 Goal=   None    Shift=    0.000
 Gap=     0.049 Goal=   None    Shift=    0.000
 RMSDP=8.20D-06 MaxDP=1.04D-03 DE=-6.05D-08 OVMax= 2.41D-04

 Cycle  11  Pass 1  IDiag  1:
 E= -1136.13302377978     Delta-E=       -0.000000026309 Rises=F Damp=F
 DIIS: error= 2.14D-06 at cycle  11 NSaved=  11.
 NSaved=11 IEnMin=11 EnMin= -1136.13302377978     IErMin=11 ErrMin= 2.14D-06
 ErrMax= 2.14D-06  0.00D+00 EMaxC= 1.00D-01 BMatC= 9.52D-10 BMatP= 7.36D-09
 IDIUse=1 WtCom= 1.00D+00 WtEn= 0.00D+00
 Coeff-Com: -0.154D-03 0.201D-03 0.114D-02 0.596D-03 0.408D-02 0.151D-01
 Coeff-Com: -0.534D-02-0.146D+00-0.115D+00 0.126D-02 0.124D+01
 Coeff:     -0.154D-03 0.201D-03 0.114D-02 0.596D-03 0.408D-02 0.151D-01
 Coeff:     -0.534D-02-0.146D+00-0.115D+00 0.126D-02 0.124D+01
 Gap=     0.051 Goal=   None    Shift=    0.000
 Gap=     0.049 Goal=   None    Shift=    0.000
 RMSDP=5.43D-06 MaxDP=5.41D-04 DE=-2.63D-08 OVMax= 1.91D-04

 Cycle  12  Pass 1  IDiag  1:
 E= -1136.13302378813     Delta-E=       -0.000000008348 Rises=F Damp=F
 DIIS: error= 9.24D-07 at cycle  12 NSaved=  12.
 NSaved=12 IEnMin=12 EnMin= -1136.13302378813     IErMin=12 ErrMin= 9.24D-07
 ErrMax= 9.24D-07  0.00D+00 EMaxC= 1.00D-01 BMatC= 1.94D-10 BMatP= 9.52D-10
 IDIUse=1 WtCom= 1.00D+00 WtEn= 0.00D+00
 Coeff-Com: -0.950D-04 0.122D-03-0.306D-03-0.300D-03 0.212D-02 0.887D-02
 Coeff-Com:  0.402D-02-0.286D-01-0.675D-01-0.144D+00 0.242D+00 0.984D+00
 Coeff:     -0.950D-04 0.122D-03-0.306D-03-0.300D-03 0.212D-02 0.887D-02
 Coeff:      0.402D-02-0.286D-01-0.675D-01-0.144D+00 0.242D+00 0.984D+00
 Gap=     0.051 Goal=   None    Shift=    0.000
 Gap=     0.049 Goal=   None    Shift=    0.000
 RMSDP=2.52D-06 MaxDP=3.48D-04 DE=-8.35D-09 OVMax= 8.22D-05

 Cycle  13  Pass 1  IDiag  1:
 E= -1136.13302378950     Delta-E=       -0.000000001378 Rises=F Damp=F
 DIIS: error= 4.14D-07 at cycle  13 NSaved=  13.
 NSaved=13 IEnMin=13 EnMin= -1136.13302378950     IErMin=13 ErrMin= 4.14D-07
 ErrMax= 4.14D-07  0.00D+00 EMaxC= 1.00D-01 BMatC= 4.13D-11 BMatP= 1.94D-10
 IDIUse=1 WtCom= 1.00D+00 WtEn= 0.00D+00
 Coeff-Com:  0.168D-04-0.228D-04-0.265D-03-0.123D-03-0.517D-03-0.200D-02
 Coeff-Com:  0.216D-02 0.273D-01 0.636D-02-0.357D-01-0.191D+00 0.163D+00
 Coeff-Com:  0.103D+01
 Coeff:      0.168D-04-0.228D-04-0.265D-03-0.123D-03-0.517D-03-0.200D-02
 Coeff:      0.216D-02 0.273D-01 0.636D-02-0.357D-01-0.191D+00 0.163D+00
 Coeff:      0.103D+01
 Gap=     0.051 Goal=   None    Shift=    0.000
 Gap=     0.049 Goal=   None    Shift=    0.000
 RMSDP=1.23D-06 MaxDP=1.82D-04 DE=-1.38D-09 OVMax= 4.06D-05

 Cycle  14  Pass 1  IDiag  1:
 E= -1136.13302378982     Delta-E=       -0.000000000315 Rises=F Damp=F
 DIIS: error= 1.70D-07 at cycle  14 NSaved=  14.
 NSaved=14 IEnMin=14 EnMin= -1136.13302378982     IErMin=14 ErrMin= 1.70D-07
 ErrMax= 1.70D-07  0.00D+00 EMaxC= 1.00D-01 BMatC= 9.03D-12 BMatP= 4.13D-11
 IDIUse=1 WtCom= 1.00D+00 WtEn= 0.00D+00
 Coeff-Com:  0.239D-04-0.309D-04 0.238D-04 0.328D-04-0.440D-03-0.160D-02
 Coeff-Com: -0.104D-02 0.701D-02 0.163D-01 0.331D-01-0.740D-01-0.222D+00
 Coeff-Com:  0.102D+00 0.114D+01
 Coeff:      0.239D-04-0.309D-04 0.238D-04 0.328D-04-0.440D-03-0.160D-02
 Coeff:     -0.104D-02 0.701D-02 0.163D-01 0.331D-01-0.740D-01-0.222D+00
 Coeff:      0.102D+00 0.114D+01
 Gap=     0.051 Goal=   None    Shift=    0.000
 Gap=     0.049 Goal=   None    Shift=    0.000
 RMSDP=7.19D-07 MaxDP=1.06D-04 DE=-3.15D-10 OVMax= 2.09D-05

 Cycle  15  Pass 1  IDiag  1:
 E= -1136.13302378989     Delta-E=       -0.000000000070 Rises=F Damp=F
 DIIS: error= 8.28D-08 at cycle  15 NSaved=  15.
 NSaved=15 IEnMin=15 EnMin= -1136.13302378989     IErMin=15 ErrMin= 8.28D-08
 ErrMax= 8.28D-08  0.00D+00 EMaxC= 1.00D-01 BMatC= 1.32D-12 BMatP= 9.03D-12
 IDIUse=1 WtCom= 1.00D+00 WtEn= 0.00D+00
 Coeff-Com: -0.107D-04 0.143D-04 0.351D-04 0.376D-05 0.206D-03 0.844D-03
 Coeff-Com: -0.131D-03-0.714D-02-0.424D-02 0.943D-03 0.513D-01 0.247D-01
 Coeff-Com: -0.248D+00-0.231D+00 0.141D+01
 Coeff:     -0.107D-04 0.143D-04 0.351D-04 0.376D-05 0.206D-03 0.844D-03
 Coeff:     -0.131D-03-0.714D-02-0.424D-02 0.943D-03 0.513D-01 0.247D-01
 Coeff:     -0.248D+00-0.231D+00 0.141D+01
 Gap=     0.051 Goal=   None    Shift=    0.000
 Gap=     0.049 Goal=   None    Shift=    0.000
 RMSDP=3.32D-07 MaxDP=4.40D-05 DE=-7.00D-11 OVMax= 9.90D-06

 Cycle  16  Pass 1  IDiag  1:
 E= -1136.13302378989     Delta-E=       -0.000000000005 Rises=F Damp=F
 DIIS: error= 2.05D-08 at cycle  16 NSaved=  16.
 NSaved=16 IEnMin=16 EnMin= -1136.13302378989     IErMin=16 ErrMin= 2.05D-08
 ErrMax= 2.05D-08  0.00D+00 EMaxC= 1.00D-01 BMatC= 1.47D-13 BMatP= 1.32D-12
 IDIUse=1 WtCom= 1.00D+00 WtEn= 0.00D+00
 Coeff-Com: -0.198D-05 0.252D-05-0.246D-05-0.496D-07 0.268D-04 0.124D-03
 Coeff-Com:  0.148D-03-0.465D-03-0.135D-02-0.315D-02 0.344D-02 0.251D-01
 Coeff-Com:  0.535D-02-0.108D+00-0.121D+00 0.120D+01
 Coeff:     -0.198D-05 0.252D-05-0.246D-05-0.496D-07 0.268D-04 0.124D-03
 Coeff:      0.148D-03-0.465D-03-0.135D-02-0.315D-02 0.344D-02 0.251D-01
 Coeff:      0.535D-02-0.108D+00-0.121D+00 0.120D+01
 Gap=     0.051 Goal=   None    Shift=    0.000
 Gap=     0.049 Goal=   None    Shift=    0.000
 RMSDP=7.80D-08 MaxDP=1.05D-05 DE=-5.00D-12 OVMax= 2.61D-06

 Cycle  17  Pass 1  IDiag  1:
 E= -1136.13302378990     Delta-E=       -0.000000000010 Rises=F Damp=F
 DIIS: error= 1.01D-08 at cycle  17 NSaved=  17.
 NSaved=17 IEnMin=17 EnMin= -1136.13302378990     IErMin=17 ErrMin= 1.01D-08
 ErrMax= 1.01D-08  0.00D+00 EMaxC= 1.00D-01 BMatC= 3.04D-14 BMatP= 1.47D-13
 IDIUse=1 WtCom= 1.00D+00 WtEn= 0.00D+00
 Coeff-Com:  0.140D-05-0.188D-05-0.586D-05-0.129D-05-0.246D-04-0.804D-04
 Coeff-Com:  0.260D-04 0.917D-03 0.431D-03-0.504D-03-0.617D-02-0.441D-02
 Coeff-Com:  0.381D-01 0.347D-01-0.245D+00 0.144D+00 0.104D+01
 Coeff:      0.140D-05-0.188D-05-0.586D-05-0.129D-05-0.246D-04-0.804D-04
 Coeff:      0.260D-04 0.917D-03 0.431D-03-0.504D-03-0.617D-02-0.441D-02
 Coeff:      0.381D-01 0.347D-01-0.245D+00 0.144D+00 0.104D+01
 Gap=     0.051 Goal=   None    Shift=    0.000
 Gap=     0.049 Goal=   None    Shift=    0.000
 RMSDP=3.18D-08 MaxDP=3.82D-06 DE=-1.00D-11 OVMax= 8.50D-07

 Cycle  18  Pass 1  IDiag  1:
 E= -1136.13302378990     Delta-E=        0.000000000009 Rises=F Damp=F
 DIIS: error= 3.99D-09 at cycle  18 NSaved=  18.
 NSaved=18 IEnMin=17 EnMin= -1136.13302378990     IErMin=18 ErrMin= 3.99D-09
 ErrMax= 3.99D-09  0.00D+00 EMaxC= 1.00D-01 BMatC= 6.96D-15 BMatP= 3.04D-14
 IDIUse=1 WtCom= 1.00D+00 WtEn= 0.00D+00
 Coeff-Com:  0.647D-06-0.842D-06-0.934D-06-0.349D-06-0.934D-05-0.483D-04
 Coeff-Com: -0.201D-04 0.328D-03 0.318D-03 0.378D-03-0.211D-02-0.432D-02
 Coeff-Com:  0.562D-02 0.196D-01 0.486D-02-0.260D+00 0.220D+00 0.102D+01
 Coeff:      0.647D-06-0.842D-06-0.934D-06-0.349D-06-0.934D-05-0.483D-04
 Coeff:     -0.201D-04 0.328D-03 0.318D-03 0.378D-03-0.211D-02-0.432D-02
 Coeff:      0.562D-02 0.196D-01 0.486D-02-0.260D+00 0.220D+00 0.102D+01
 Gap=     0.051 Goal=   None    Shift=    0.000
 Gap=     0.049 Goal=   None    Shift=    0.000
 RMSDP=1.59D-08 MaxDP=1.57D-06 DE= 9.09D-12 OVMax= 4.23D-07

 Cycle  19  Pass 1  IDiag  1:
 E= -1136.13302378991     Delta-E=       -0.000000000016 Rises=F Damp=F
 DIIS: error= 1.85D-09 at cycle  19 NSaved=  19.
 NSaved=19 IEnMin=19 EnMin= -1136.13302378991     IErMin=19 ErrMin= 1.85D-09
 ErrMax= 1.85D-09  0.00D+00 EMaxC= 1.00D-01 BMatC= 8.75D-16 BMatP= 6.96D-15
 IDIUse=1 WtCom= 1.00D+00 WtEn= 0.00D+00
 Large coefficients: NSaved= 19 BigCof=    0.00 CofMax=   10.00 Det=-2.00D-15
 Inversion failed.  Reducing to 18 matrices.
 Large coefficients: NSaved= 18 BigCof=    0.00 CofMax=   10.00 Det=-2.37D-15
 Inversion failed.  Reducing to 17 matrices.
 Large coefficients: NSaved= 17 BigCof=    0.00 CofMax=   10.00 Det=-2.40D-15
 Inversion failed.  Reducing to 16 matrices.
 Large coefficients: NSaved= 16 BigCof=    0.00 CofMax=   10.00 Det=-2.44D-15
 Inversion failed.  Reducing to 15 matrices.
 Coeff-Com: -0.999D-06-0.669D-05-0.505D-05 0.260D-04-0.388D-05 0.333D-04
 Coeff-Com:  0.125D-03-0.513D-04-0.223D-02 0.355D-03 0.192D-01-0.422D-01
 Coeff-Com: -0.105D+00 0.733D-01 0.106D+01
 Coeff:     -0.999D-06-0.669D-05-0.505D-05 0.260D-04-0.388D-05 0.333D-04
 Coeff:      0.125D-03-0.513D-04-0.223D-02 0.355D-03 0.192D-01-0.422D-01
 Coeff:     -0.105D+00 0.733D-01 0.106D+01
 Gap=     0.051 Goal=   None    Shift=    0.000
 Gap=     0.049 Goal=   None    Shift=    0.000
 RMSDP=5.14D-09 MaxDP=3.75D-07 DE=-1.64D-11 OVMax= 1.58D-07

 SCF Done:  E(UB3LYP) =  -1136.13302379     A.U. after   19 cycles
            NFock= 19  Conv=0.51D-08     -V/T= 2.0029
 <Sx>= 0.0000 <Sy>= 0.0000 <Sz>= 0.5000 <S**2>= 0.7602 S= 0.5051
 <L.S>= 0.000000000000E+00
 KE= 1.132900153623D+03 PE=-3.399648186140D+03 EE= 7.954984121916D+02
 Annihilation of the first spin contaminant:
 S**2 before annihilation     0.7602,   after     0.7501
 Leave Link  502 at Thu Dec  7 15:55:38 2023, MaxMem=  1879048192 cpu:             177.9 elap:              16.0
 (Enter /home/sekinelabo/g16/l601.exe)
 Copying SCF densities to generalized density rwf, IOpCl= 1 IROHF=0.

 **********************************************************************

            Population analysis using the SCF Density.

 **********************************************************************

 Orbital symmetries:
 Alpha Orbitals:
       Occupied  (A) (A) (A) (A) (A) (A) (A) (A) (A) (A) (A) (A)
                 (A) (A) (A) (A) (A) (A) (A) (A) (A) (A) (A) (A)
                 (A) (A) (A) (A) (A) (A) (A) (A) (A) (A) (A) (A)
                 (A) (A) (A)
       Virtual   (A) (A) (A) (A) (A) (A) (A) (A) (A) (A) (A) (A)
                 (A) (A) (A) (A) (A) (A) (A) (A) (A) (A) (A) (A)
                 (A) (A) (A) (A) (A) (A) (A) (A) (A) (A) (A) (A)
                 (A) (A) (A) (A) (A) (A) (A) (A) (A) (A) (A) (A)
                 (A) (A) (A) (A) (A) (A) (A) (A) (A) (A) (A) (A)
                 (A) (A) (A) (A) (A) (A) (A) (A) (A) (A) (A) (A)
                 (A) (A) (A) (A) (A) (A) (A) (A) (A) (A) (A) (A)
                 (A) (A) (A) (A) (A) (A) (A) (A) (A) (A) (A) (A)
                 (A) (A) (A) (A) (A) (A) (A) (A) (A) (A) (A) (A)
                 (A) (A) (A) (A) (A) (A) (A) (A) (A) (A) (A) (A)
                 (A) (A) (A) (A) (A) (A) (A) (A) (A) (A) (A) (A)
                 (A) (A) (A) (A) (A) (A) (A) (A) (A) (A) (A) (A)
                 (A) (A) (A) (A) (A) (A) (A) (A) (A) (A) (A) (A)
                 (A) (A) (A) (A) (A) (A) (A) (A) (A) (A) (A) (A)
                 (A) (A) (A)
 Beta  Orbitals:
       Occupied  (A) (A) (A) (A) (A) (A) (A) (A) (A) (A) (A) (A)
                 (A) (A) (A) (A) (A) (A) (A) (A) (A) (A) (A) (A)
                 (A) (A) (A) (A) (A) (A) (A) (A) (A) (A) (A) (A)
                 (A) (A)
       Virtual   (A) (A) (A) (A) (A) (A) (A) (A) (A) (A) (A) (A)
                 (A) (A) (A) (A) (A) (A) (A) (A) (A) (A) (A) (A)
                 (A) (A) (A) (A) (A) (A) (A) (A) (A) (A) (A) (A)
                 (A) (A) (A) (A) (A) (A) (A) (A) (A) (A) (A) (A)
                 (A) (A) (A) (A) (A) (A) (A) (A) (A) (A) (A) (A)
                 (A) (A) (A) (A) (A) (A) (A) (A) (A) (A) (A) (A)
                 (A) (A) (A) (A) (A) (A) (A) (A) (A) (A) (A) (A)
                 (A) (A) (A) (A) (A) (A) (A) (A) (A) (A) (A) (A)
                 (A) (A) (A) (A) (A) (A) (A) (A) (A) (A) (A) (A)
                 (A) (A) (A) (A) (A) (A) (A) (A) (A) (A) (A) (A)
                 (A) (A) (A) (A) (A) (A) (A) (A) (A) (A) (A) (A)
                 (A) (A) (A) (A) (A) (A) (A) (A) (A) (A) (A) (A)
                 (A) (A) (A) (A) (A) (A) (A) (A) (A) (A) (A) (A)
                 (A) (A) (A) (A) (A) (A) (A) (A) (A) (A) (A) (A)
                 (A) (A) (A) (A)
 The electronic state is 2-A.
 Alpha  occ. eigenvalues --  -38.44428 -38.44007 -38.43842 -38.43629 -38.43582
 Alpha  occ. eigenvalues --  -38.43566 -38.43366  -2.20266  -2.19851  -2.19719
 Alpha  occ. eigenvalues --   -2.19504  -2.19481  -2.19408  -2.19185  -1.13983
 Alpha  occ. eigenvalues --   -1.13915  -1.13888  -1.13511  -1.13502  -1.13480
 Alpha  occ. eigenvalues --   -1.13469  -1.13374  -1.13346  -1.13184  -1.13151
 Alpha  occ. eigenvalues --   -1.13140  -1.13125  -1.13115  -1.13104  -1.13081
 Alpha  occ. eigenvalues --   -1.13074  -1.13037  -1.12852  -1.12848  -1.12823
 Alpha  occ. eigenvalues --   -0.18335  -0.13252  -0.12189  -0.10970
 Alpha virt. eigenvalues --   -0.05823  -0.04951  -0.04793  -0.03377  -0.03002
 Alpha virt. eigenvalues --   -0.02802  -0.01587  -0.01048  -0.00376  -0.00362
 Alpha virt. eigenvalues --   -0.00060   0.00354   0.00792   0.00845   0.00883
 Alpha virt. eigenvalues --    0.00921   0.01001   0.01130   0.01166   0.01279
 Alpha virt. eigenvalues --    0.01330   0.01404   0.01655   0.01790   0.02138
 Alpha virt. eigenvalues --    0.02248   0.02284   0.02529   0.02590   0.02837
 Alpha virt. eigenvalues --    0.02937   0.02962   0.02981   0.03003   0.03131
 Alpha virt. eigenvalues --    0.03213   0.03223   0.03262   0.03341   0.03443
 Alpha virt. eigenvalues --    0.04121   0.04353   0.04493   0.04603   0.04783
 Alpha virt. eigenvalues --    0.04850   0.04943   0.05171   0.05312   0.05397
 Alpha virt. eigenvalues --    0.05732   0.06959   0.07036   0.07215   0.07302
 Alpha virt. eigenvalues --    0.07519   0.07629   0.07787   0.08091   0.09039
 Alpha virt. eigenvalues --    0.09230   0.09900   0.10600   0.10748   0.11262
 Alpha virt. eigenvalues --    0.11589   0.12033   0.12489   0.12561   0.13033
 Alpha virt. eigenvalues --    0.13451   0.13987   0.14330   0.14469   0.14697
 Alpha virt. eigenvalues --    0.14990   0.15406   0.16048   0.16509   0.17041
 Alpha virt. eigenvalues --    0.26252   0.27255   0.28094   0.28377   0.29358
 Alpha virt. eigenvalues --    0.29672   0.30556   0.30852   0.31558   0.32752
 Alpha virt. eigenvalues --    0.34547   0.35091   0.35533   0.37232   0.37889
 Alpha virt. eigenvalues --    0.39395   0.40814   0.41176   0.41727   0.42298
 Alpha virt. eigenvalues --    0.42978   0.43286   0.44059   0.44225   0.44265
 Alpha virt. eigenvalues --    0.44724   0.44790   0.45156   0.45269   0.45980
 Alpha virt. eigenvalues --    0.46392   0.46848   0.47608   0.48098   0.48637
 Alpha virt. eigenvalues --    0.49505   0.50384   0.50718   0.51510   0.52252
 Alpha virt. eigenvalues --    0.52741   0.53338   0.53649   0.54377   0.55285
 Alpha virt. eigenvalues --    0.56151   0.57199   0.57856   0.58145   0.60028
 Alpha virt. eigenvalues --    0.60845   0.61913   0.65094   0.66815   0.70205
 Alpha virt. eigenvalues --    0.75508   2.03199   2.13780   2.14670   2.17215
 Alpha virt. eigenvalues --    2.18562   2.19197   2.23985   4.42926   4.43498
 Alpha virt. eigenvalues --    4.44299   4.45028   4.45281   4.45386   4.46229
 Alpha virt. eigenvalues --    4.46988   4.47252   4.47462   4.48071   4.48476
 Alpha virt. eigenvalues --    4.48535   4.50055   4.52123   4.52912   4.53407
 Alpha virt. eigenvalues --    4.56415   4.64019   4.65605   4.69712  96.23088
 Alpha virt. eigenvalues --   96.34892  96.36204  96.38868  96.41111  96.42579
 Alpha virt. eigenvalues --   96.47884
  Beta  occ. eigenvalues --  -38.44424 -38.43901 -38.43830 -38.43625 -38.43578
  Beta  occ. eigenvalues --  -38.43515 -38.43361  -2.20260  -2.19700  -2.19656
  Beta  occ. eigenvalues --   -2.19475  -2.19412  -2.19404  -2.19178  -1.13969
  Beta  occ. eigenvalues --   -1.13902  -1.13886  -1.13498  -1.13376  -1.13350
  Beta  occ. eigenvalues --   -1.13349  -1.13327  -1.13322  -1.13126  -1.13115
  Beta  occ. eigenvalues --   -1.13112  -1.13096  -1.13089  -1.13078  -1.13064
  Beta  occ. eigenvalues --   -1.13053  -1.13031  -1.12846  -1.12825  -1.12820
  Beta  occ. eigenvalues --   -0.17631  -0.13000  -0.11996
  Beta virt. eigenvalues --   -0.07058  -0.05750  -0.04947  -0.04677  -0.02635
  Beta virt. eigenvalues --   -0.02232  -0.01774  -0.01489  -0.00970  -0.00419
  Beta virt. eigenvalues --   -0.00391   0.00107   0.00402   0.00830   0.00892
  Beta virt. eigenvalues --    0.00925   0.00995   0.01121   0.01271   0.01339
  Beta virt. eigenvalues --    0.01423   0.01433   0.01498   0.01736   0.01820
  Beta virt. eigenvalues --    0.02233   0.02241   0.02362   0.02518   0.02572
  Beta virt. eigenvalues --    0.02964   0.02983   0.03031   0.03036   0.03168
  Beta virt. eigenvalues --    0.03216   0.03262   0.03309   0.03334   0.03432
  Beta virt. eigenvalues --    0.03486   0.04212   0.04422   0.04586   0.04771
  Beta virt. eigenvalues --    0.04899   0.04962   0.05066   0.05249   0.05481
  Beta virt. eigenvalues --    0.05597   0.06022   0.07014   0.07152   0.07307
  Beta virt. eigenvalues --    0.07344   0.07666   0.07691   0.07915   0.08183
  Beta virt. eigenvalues --    0.09284   0.09484   0.10054   0.10728   0.10907
  Beta virt. eigenvalues --    0.11589   0.11908   0.12222   0.12679   0.13015
  Beta virt. eigenvalues --    0.13217   0.13769   0.14199   0.14506   0.14668
  Beta virt. eigenvalues --    0.14806   0.15270   0.15626   0.16235   0.16672
  Beta virt. eigenvalues --    0.17330   0.26499   0.27385   0.28394   0.28651
  Beta virt. eigenvalues --    0.29780   0.29955   0.30701   0.31117   0.31979
  Beta virt. eigenvalues --    0.33114   0.34839   0.35266   0.35793   0.37516
  Beta virt. eigenvalues --    0.38227   0.39513   0.41135   0.41425   0.42184
  Beta virt. eigenvalues --    0.42411   0.43251   0.43559   0.44193   0.44265
  Beta virt. eigenvalues --    0.44484   0.44847   0.44912   0.45310   0.45436
  Beta virt. eigenvalues --    0.46197   0.46454   0.46968   0.47777   0.48238
  Beta virt. eigenvalues --    0.48756   0.49541   0.50547   0.50728   0.51736
  Beta virt. eigenvalues --    0.52263   0.53016   0.53545   0.53879   0.54569
  Beta virt. eigenvalues --    0.55652   0.56406   0.57268   0.58032   0.58354
  Beta virt. eigenvalues --    0.60454   0.61183   0.61897   0.65188   0.66990
  Beta virt. eigenvalues --    0.70401   0.75477   2.03361   2.13801   2.14675
  Beta virt. eigenvalues --    2.17534   2.18603   2.19263   2.24175   4.42975
  Beta virt. eigenvalues --    4.43528   4.44315   4.45073   4.45327   4.45422
  Beta virt. eigenvalues --    4.46261   4.47058   4.47356   4.47482   4.48184
  Beta virt. eigenvalues --    4.48522   4.48610   4.50089   4.52173   4.52952
  Beta virt. eigenvalues --    4.53407   4.56452   4.64068   4.65692   4.69722
  Beta virt. eigenvalues --   96.23136  96.34903  96.36210  96.38968  96.41126
  Beta virt. eigenvalues --   96.42592  96.47940
          Condensed to atoms (all electrons):
               1          2          3          4          5          6
     1  Na  10.876870   0.073844   0.174786   0.149959  -0.493735   0.026531
     2  Na   0.073844  11.077203  -0.401118   0.141188  -0.501978   0.111070
     3  Na   0.174786  -0.401118  11.045663   0.246031   0.368806  -0.692627
     4  Na   0.149959   0.141188   0.246031  10.845869  -0.536865   0.063688
     5  Na  -0.493735  -0.501978   0.368806  -0.536865  14.025467  -1.835099
     6  Na   0.026531   0.111070  -0.692627   0.063688  -1.835099  13.896806
     7  Na   0.215912   0.164879   0.051891   0.025517  -0.002253  -0.075671
               7
     1  Na   0.215912
     2  Na   0.164879
     3  Na   0.051891
     4  Na   0.025517
     5  Na  -0.002253
     6  Na  -0.075671
     7  Na  10.682611
          Atomic-Atomic Spin Densities.
               1          2          3          4          5          6
     1  Na   0.000186   0.007578  -0.041740  -0.013549  -0.134479   0.193550
     2  Na   0.007578  -0.110386   0.065573   0.029914  -0.041673   0.015999
     3  Na  -0.041740   0.065573   0.009250  -0.097449   0.430469  -0.383536
     4  Na  -0.013549   0.029914  -0.097449   0.006244  -0.215839   0.265154
     5  Na  -0.134479  -0.041673   0.430469  -0.215839   2.280936  -2.109574
     6  Na   0.193550   0.015999  -0.383536   0.265154  -2.109574   2.914167
     7  Na  -0.030566  -0.025601   0.068991  -0.008693   0.131006  -0.150965
               7
     1  Na  -0.030566
     2  Na  -0.025601
     3  Na   0.068991
     4  Na  -0.008693
     5  Na   0.131006
     6  Na  -0.150965
     7  Na  -0.009535
 Mulliken charges and spin densities:
               1          2
     1  Na  -0.024167  -0.019020
     2  Na   0.334912  -0.058596
     3  Na   0.206568   0.051557
     4  Na   0.064614  -0.034217
     5  Na  -0.024343   0.340846
     6  Na  -0.494697   0.744794
     7  Na  -0.062888  -0.025363
 Sum of Mulliken charges =  -0.00000   1.00000
 Mulliken charges and spin densities with hydrogens summed into heavy atoms:
               1          2
     1  Na  -0.024167  -0.019020
     2  Na   0.334912  -0.058596
     3  Na   0.206568   0.051557
     4  Na   0.064614  -0.034217
     5  Na  -0.024343   0.340846
     6  Na  -0.494697   0.744794
     7  Na  -0.062888  -0.025363
 Electronic spatial extent (au):  <R**2>=           2335.7070
 Charge=             -0.0000 electrons
 Dipole moment (field-independent basis, Debye):
    X=              0.5184    Y=              0.0410    Z=              0.1531  Tot=              0.5421
 Quadrupole moment (field-independent basis, Debye-Ang):
   XX=            -58.6675   YY=            -63.8569   ZZ=            -73.0217
   XY=              0.2594   XZ=              1.3297   YZ=              0.7764
 Traceless Quadrupole moment (field-independent basis, Debye-Ang):
   XX=              6.5145   YY=              1.3251   ZZ=             -7.8397
   XY=              0.2594   XZ=              1.3297   YZ=              0.7764
 Octapole moment (field-independent basis, Debye-Ang**2):
  XXX=             21.3489  YYY=             -0.8617  ZZZ=             -0.0643  XYY=             -2.0725
  XXY=              4.7637  XXZ=              0.9578  XZZ=              0.0356  YZZ=              0.4467
  YYZ=              0.8081  XYZ=              1.1297
 Hexadecapole moment (field-independent basis, Debye-Ang**3):
 XXXX=          -1544.6457 YYYY=          -1365.1378 ZZZZ=           -798.1233 XXXY=             12.6299
 XXXZ=             26.7318 YYYX=             -3.2574 YYYZ=             28.6982 ZZZX=             -7.5031
 ZZZY=             -4.1938 XXYY=           -521.7026 XXZZ=           -473.4059 YYZZ=           -430.6323
 XXYZ=             -4.4545 YYXZ=             14.1062 ZZXY=              0.7887
 N-N= 3.351165965354D+02 E-N=-3.399648186098D+03  KE= 1.132900153623D+03
                          Isotropic Fermi Contact Couplings
        Atom                 a.u.       MegaHertz       Gauss      10(-4) cm-1
     1  Na(23)            -0.01661     -19.65224      -7.01241      -6.55528
     2  Na(23)            -0.00913     -10.80618      -3.85592      -3.60456
     3  Na(23)             0.02051      24.26474       8.65826       8.09384
     4  Na(23)            -0.00928     -10.97914      -3.91763      -3.66225
     5  Na(23)             0.19942     235.92166      84.18271      78.69499
     6  Na(23)             0.43736     517.40750     184.62386     172.58856
     7  Na(23)            -0.00938     -11.10239      -3.96161      -3.70336
 --------------------------------------------------------
       Center         ----  Spin Dipole Couplings  ----
                      3XX-RR        3YY-RR        3ZZ-RR
 --------------------------------------------------------
     1   Atom       -0.013428     -0.010458      0.023887
     2   Atom       -0.008744     -0.013903      0.022647
     3   Atom       -0.010540     -0.010228      0.020768
     4   Atom       -0.013734     -0.008476      0.022210
     5   Atom        0.004113     -0.005580      0.001467
     6   Atom       -0.003423      0.008933     -0.005510
     7   Atom       -0.009350     -0.008512      0.017862
 --------------------------------------------------------
                        XY            XZ            YZ
 --------------------------------------------------------
     1   Atom       -0.002486     -0.006242      0.000601
     2   Atom        0.000176      0.002603      0.000815
     3   Atom       -0.001845      0.000164      0.012565
     4   Atom        0.000630     -0.002154     -0.007488
     5   Atom       -0.000413     -0.000315      0.000543
     6   Atom       -0.000306      0.000840      0.001034
     7   Atom        0.000268      0.006270     -0.010078
 --------------------------------------------------------


 ---------------------------------------------------------------------------------
              Anisotropic Spin Dipole Couplings in Principal Axis System
 ---------------------------------------------------------------------------------

       Atom             a.u.   MegaHertz   Gauss  10(-4) cm-1        Axes

              Baa    -0.0155    -2.195    -0.783    -0.732  0.8963  0.4222  0.1355
     1 Na(23) Bbb    -0.0094    -1.326    -0.473    -0.442 -0.4126  0.9061 -0.0938
              Bcc     0.0249     3.521     1.256     1.174 -0.1623  0.0281  0.9863
 
              Baa    -0.0139    -1.966    -0.702    -0.656 -0.0235  0.9995 -0.0206
     2 Na(23) Bbb    -0.0090    -1.265    -0.451    -0.422  0.9963  0.0217 -0.0826
              Bcc     0.0229     3.231     1.153     1.078  0.0822  0.0225  0.9964
 
              Baa    -0.0154    -2.168    -0.774    -0.723  0.3497  0.8844 -0.3092
     3 Na(23) Bbb    -0.0099    -1.395    -0.498    -0.465  0.9368 -0.3255  0.1285
              Bcc     0.0252     3.563     1.271     1.188 -0.0130  0.3346  0.9423
 
              Baa    -0.0139    -1.959    -0.699    -0.653  0.9976 -0.0476  0.0497
     4 Na(23) Bbb    -0.0102    -1.441    -0.514    -0.481  0.0352  0.9732  0.2272
              Bcc     0.0241     3.399     1.213     1.134 -0.0592 -0.2249  0.9726
 
              Baa    -0.0056    -0.796    -0.284    -0.266  0.0398  0.9964 -0.0744
     5 Na(23) Bbb     0.0015     0.207     0.074     0.069  0.1283  0.0687  0.9894
              Bcc     0.0042     0.589     0.210     0.197  0.9909 -0.0490 -0.1251
 
              Baa    -0.0059    -0.831    -0.296    -0.277 -0.3301 -0.0725  0.9412
     6 Na(23) Bbb    -0.0031    -0.442    -0.158    -0.147  0.9437 -0.0044  0.3307
              Bcc     0.0090     1.273     0.454     0.424 -0.0198  0.9974  0.0698
 
              Baa    -0.0135    -1.910    -0.682    -0.637 -0.5757  0.7380  0.3519
     7 Na(23) Bbb    -0.0088    -1.247    -0.445    -0.416  0.7970  0.6026  0.0403
              Bcc     0.0224     3.157     1.127     1.053  0.1823 -0.3037  0.9352
 

 ---------------------------------------------------------------------------------

 No NMR shielding tensors so no spin-rotation constants.
 Leave Link  601 at Thu Dec  7 15:55:39 2023, MaxMem=  1879048192 cpu:               2.3 elap:               0.2
 (Enter /home/sekinelabo/g16/l701.exe)
 ... and contract with generalized density number  0.
 Compute integral first derivatives.
 Leave Link  701 at Thu Dec  7 15:55:39 2023, MaxMem=  1879048192 cpu:               1.6 elap:               0.1
 (Enter /home/sekinelabo/g16/l702.exe)
 L702 exits ... SP integral derivatives will be done elsewhere.
 Leave Link  702 at Thu Dec  7 15:55:39 2023, MaxMem=  1879048192 cpu:               0.4 elap:               0.0
 (Enter /home/sekinelabo/g16/l703.exe)
 Integral derivatives from FoFJK, PRISM(SPDF).
 Compute integral first derivatives, UseDBF=F ICtDFT=           0.
 Calling FoFJK, ICntrl=      2127 FMM=F ISym2X=0 I1Cent= 0 IOpClX= 1 NMat=1 NMatS=1 NMatT=0.
 FoFJK:  IHMeth= 1 ICntrl=    2127 DoSepK=F KAlg= 0 I1Cent=           0 FoldK=F
 IRaf=         0 NMat=       1 IRICut=       1 DoRegI=T DoRafI=F ISym2E= 0 IDoP0=0 IntGTp=1.
 FoFCou: FMM=F IPFlag=           0 FMFlag=      100000 FMFlg1=         800
         NFxFlg=           0 DoJE=F BraDBF=F KetDBF=F FulRan=T
         wScrn=  0.000000 ICntrl=      2127 IOpCl=  1 I1Cent=           0 NGrid=           0
         NMat0=    1 NMatS0=      1 NMatT0=    0 NMatD0=    1 NMtDS0=    0 NMtDT0=    0
 Symmetry not used in FoFCou.
 Leave Link  703 at Thu Dec  7 15:55:41 2023, MaxMem=  1879048192 cpu:              33.9 elap:               2.3
 (Enter /home/sekinelabo/g16/l716.exe)
 Dipole        = 2.03970142D-01 1.61206297D-02 6.02440881D-02
 ***** Axes restored to original set *****
 -------------------------------------------------------------------
 Center     Atomic                   Forces (Hartrees/Bohr)
 Number     Number              X              Y              Z
 -------------------------------------------------------------------
      1       11           0.000432399    0.000599621    0.001789345
      2       11          -0.001935540   -0.001201882    0.001353423
      3       11           0.002238100   -0.007380622    0.001561564
      4       11          -0.001079333    0.000844306   -0.000098690
      5       11           0.002705147    0.003314277    0.002398436
      6       11           0.002716067    0.000298936   -0.002043627
      7       11          -0.005076841    0.003525364   -0.004960451
 -------------------------------------------------------------------
 Cartesian Forces:  Max     0.007380622 RMS     0.002870919
 Z-matrix is all fixed cartesians, so copy forces.
 Force constants in Cartesian coordinates: 
                1             2             3             4             5 
      1  0.591004D-01
      2 -0.134111D-01  0.717949D-01
      3  0.165526D-01 -0.109269D-01  0.618774D-01
      4 -0.814085D-02  0.123686D-01 -0.266364D-02  0.386196D-01
      5 -0.574174D-02 -0.257731D-01 -0.589243D-02  0.440620D-02  0.478444D-01
      6 -0.708979D-02  0.880828D-02 -0.102160D-01  0.605903D-02  0.876438D-02
      7  0.647105D-03  0.144887D-02 -0.621430D-02  0.277679D-02 -0.203008D-03
      8  0.141664D-02  0.633291D-02  0.235323D-02  0.645075D-03  0.115169D-02
      9 -0.707345D-02  0.232334D-02 -0.934503D-03 -0.727496D-03 -0.326174D-03
     10  0.404312D-02  0.348623D-02 -0.375366D-02 -0.317241D-04  0.344686D-02
     11  0.806286D-03 -0.939533D-03  0.108754D-02 -0.127319D-03  0.170275D-02
     12 -0.330753D-02  0.366690D-02  0.224158D-02 -0.110370D-03  0.221843D-02
     13 -0.289302D-01 -0.172940D-02  0.141174D-01 -0.404456D-01  0.314714D-02
     14  0.136724D-01 -0.172520D-01 -0.518855D-02 -0.167057D-01 -0.254271D-01
     15 -0.991204D-02  0.571518D-02 -0.206951D-01 -0.573624D-02 -0.307072D-02
     16 -0.150421D-01  0.611097D-02 -0.101923D-01  0.182497D-02 -0.110261D-02
     17 -0.719942D-02 -0.157444D-01  0.654642D-02  0.189449D-02  0.803347D-03
     18  0.169945D-01  0.374466D-02 -0.180422D-01  0.232444D-02 -0.722763D-03
     19 -0.116775D-01 -0.827418D-02 -0.784610D-02  0.539682D-02 -0.395284D-02
     20  0.104569D-01 -0.184188D-01  0.120207D-01 -0.248140D-02 -0.301965D-03
     21 -0.616431D-02 -0.133314D-01 -0.142312D-01  0.854289D-03 -0.970729D-03
                6             7             8             9            10 
      6  0.357346D-01
      7 -0.550688D-02  0.812951D-01
      8 -0.290010D-02 -0.889721D-03  0.764667D-01
      9  0.191715D-02  0.308587D-01  0.970093D-03  0.767238D-01
     10 -0.436421D-02 -0.111982D-01 -0.126158D-01 -0.556313D-02  0.413231D-01
     11 -0.196806D-02  0.572243D-02 -0.192665D-01  0.638129D-02 -0.300415D-02
     12 -0.261513D-02 -0.560861D-02 -0.137381D-01 -0.950967D-02  0.960869D-04
     13  0.140260D-01 -0.218661D-01 -0.466625D-02 -0.139583D-01 -0.210559D-01
     14  0.111964D-03  0.456562D-02 -0.144880D-01 -0.256436D-02 -0.112782D-01
     15 -0.208434D-01  0.186823D-01  0.714435D-03 -0.296695D-01  0.128072D-01
     16 -0.170563D-02 -0.228558D-01 -0.340240D-02  0.109097D-01 -0.200136D-01
     17 -0.780078D-02 -0.347883D-02 -0.648614D-02  0.348937D-02  0.180178D-01
     18 -0.531904D-02 -0.150383D-01 -0.295902D-02 -0.109424D-01  0.407155D-03
     19 -0.141854D-02 -0.287989D-01  0.195125D-01 -0.144460D-01  0.693318D-02
     20 -0.501568D-02 -0.716536D-02 -0.437107D-01 -0.102736D-01  0.194729D-02
     21  0.134179D-02 -0.171728D-01  0.155594D-01 -0.275849D-01  0.370595D-03
               11            12            13            14            15 
     11  0.642417D-01
     12 -0.522782D-02  0.395955D-01
     13  0.552227D-02  0.796487D-03  0.148071D+00
     14 -0.238917D-01  0.170418D-01  0.322892D-02  0.106461D+00
     15 -0.740600D-02 -0.256230D-01 -0.289210D-01  0.202240D-02  0.123512D+00
     16 -0.100665D-01  0.775559D-02 -0.205286D-01 -0.608128D-02  0.332622D-02
     17 -0.155036D-01 -0.492277D-02  0.104226D-02 -0.942440D-02 -0.340306D-02
     18  0.584987D-02 -0.110085D-01  0.120588D-01  0.247371D-02 -0.141451D-01
     19  0.114696D-02  0.378353D-03 -0.152442D-01  0.125982D-01  0.975365D-02
     20 -0.634309D-02  0.961478D-03 -0.654495D-02 -0.159773D-01  0.542777D-02
     21  0.128318D-02  0.691923D-02  0.188064D-02 -0.138970D-01 -0.125361D-01
               16            17            18            19            20 
     16  0.916995D-01
     17  0.803052D-02  0.651046D-01
     18 -0.169367D-01 -0.282554D-02  0.674217D-01
     19 -0.150844D-01 -0.183068D-01  0.190107D-03  0.584750D-01
     20  0.651129D-02 -0.187494D-01 -0.556092D-02 -0.272378D-02  0.103501D+00
     21  0.684312D-02  0.891636D-02 -0.796456D-02  0.133885D-01  0.244019D-02
               21 
     21  0.540558D-01
 Leave Link  716 at Thu Dec  7 15:55:41 2023, MaxMem=  1879048192 cpu:               0.4 elap:               0.0
 (Enter /home/sekinelabo/g16/l103.exe)

 GradGradGradGradGradGradGradGradGradGradGradGradGradGradGradGradGradGrad
 Berny optimization.
 Search for a local minimum.
 Step number   1 out of a maximum of    2
 All quantities printed in internal units (Hartrees-Bohrs-Radians)
 Second derivative matrix not updated -- first step.
 ITU=  0
     Eigenvalues ---    0.03463   0.03850   0.05008   0.06142   0.06381
     Eigenvalues ---    0.07442   0.08272   0.08918   0.10470   0.12273
     Eigenvalues ---    0.13090   0.14482   0.14956   0.15290   0.20087
 Angle between quadratic step and forces=  26.81 degrees.
 Linear search not attempted -- first point.
 B after Tr=     0.000000    0.000000   -0.000000
         Rot=    1.000000   -0.000000    0.000000    0.000000 Ang=   0.00 deg.
 Variable       Old X    -DE/DX   Delta X   Delta X   Delta X     New X
                                 (Linear)    (Quad)   (Total)
    X1       22.45675   0.00043   0.00000   0.01476   0.01476  22.47151
    Y1       28.36536   0.00060   0.00000   0.00911   0.00911  28.37447
    Z1       21.89437   0.00179   0.00000   0.02110   0.02110  21.91546
    X2       23.38026  -0.00194   0.00000  -0.00737  -0.00737  23.37289
    Y2       22.04989  -0.00120   0.00000  -0.00844  -0.00844  22.04145
    Z2       20.97483   0.00135   0.00000   0.04718   0.04718  21.02201
    X3       29.17019   0.00224   0.00000   0.00161   0.00161  29.17180
    Y3       26.90309  -0.00738   0.00000  -0.06383  -0.06383  26.83926
    Z3       29.63676   0.00156   0.00000  -0.00016  -0.00016  29.63660
    X4       27.31883  -0.00108   0.00000  -0.00951  -0.00951  27.30932
    Y4       20.41811   0.00084   0.00000   0.01693   0.01693  20.43504
    Z4       27.64254  -0.00010   0.00000  -0.02147  -0.02147  27.62106
    X5       27.97929   0.00271   0.00000   0.01693   0.01693  27.99621
    Y5       24.85878   0.00331   0.00000   0.02969   0.02969  24.88847
    Z5       23.20225   0.00240   0.00000   0.02708   0.02708  23.22933
    X6       22.22375   0.00272   0.00000   0.02820   0.02820  22.25194
    Y6       25.19326   0.00030   0.00000   0.00635   0.00635  25.19961
    Z6       28.15975  -0.00204   0.00000  -0.02873  -0.02873  28.13103
    X7       26.37151  -0.00508   0.00000  -0.04462  -0.04462  26.32689
    Y7       31.11207   0.00353   0.00000   0.01018   0.01018  31.12226
    Z7       27.39007  -0.00496   0.00000  -0.04500  -0.04500  27.34507
         Item               Value     Threshold  Converged?
 Maximum Force            0.007381     0.000450     NO 
 RMS     Force            0.002871     0.000300     NO 
 Maximum Displacement     0.063825     0.001800     NO 
 RMS     Displacement     0.027336     0.001200     NO 
 Predicted change in Energy=-7.354530D-04
 GradGradGradGradGradGradGradGradGradGradGradGradGradGradGradGradGradGrad

 Leave Link  103 at Thu Dec  7 15:55:41 2023, MaxMem=  1879048192 cpu:               0.2 elap:               0.0
 (Enter /home/sekinelabo/g16/l9999.exe)
 1\1\GINC-SEKINELABO-XA7R-R37\Force\UB3LYP\6-311+G(d)\Na7(2)\SEKINELABO
 \07-Dec-2023\0\\#P B3LYP/6-311+g(d) force\\DPGEN\\0,2\Na,11.8836,15.01
 03,11.586\Na,12.3723,11.6683,11.0994\Na,15.4362,14.2365,15.6831\Na,14.
 4565,10.8048,14.6278\Na,14.806,13.1547,12.2781\Na,11.7603,13.3317,14.9
 015\Na,13.9552,16.4638,14.4942\\Version=ES64L-G16RevB.01\State=2-A\HF=
 -1136.1330238\S2=0.760193\S2-1=0.\S2A=0.750072\RMSD=5.142e-09\RMSF=2.8
 71e-03\Dipole=-0.1262262,-0.1323065,-0.1097951\Quadrupole=-2.6581672,2
 .4319738,0.2261934,0.9124945,4.5154823,1.6764528\PG=C01 [X(Na7)]\\@


 REFRAIN FROM ILLUSIONS, INSIST ON WORK AND NOT WORDS,
 PATIENTLY SEEK DIVINE AND SCIENTIFIC TRUTH.
 LAST WORDS OF MARIA MENDELEEVA TO HER SON DMITRI, C. 1850
 Job cpu time:       0 days  0 hours  3 minutes 48.1 seconds.
 Elapsed time:       0 days  0 hours  0 minutes 19.4 seconds.
 File lengths (MBytes):  RWF=     32 Int=      0 D2E=      0 Chk=      4 Scr=      1
 Normal termination of Gaussian 16 at Thu Dec  7 15:55:41 2023.
