 Set GAUSS_MDEF to "14GB".
 Entering Gaussian System, Link 0=g16
 Initial command:
 /home/sekinelabo/g16/l1.exe "/home/sekinelabo/g16temp/Gau-385590.inp" -scrdir="/home/sekinelabo/g16temp/"
 Entering Link 1 = /home/sekinelabo/g16/l1.exe PID=    385592.
  
 Copyright (c) 1988-2017, Gaussian, Inc.  All Rights Reserved.
  
 This is part of the Gaussian(R) 16 program.  It is based on
 the Gaussian(R) 09 system (copyright 2009, Gaussian, Inc.),
 the Gaussian(R) 03 system (copyright 2003, Gaussian, Inc.),
 the Gaussian(R) 98 system (copyright 1998, Gaussian, Inc.),
 the Gaussian(R) 94 system (copyright 1995, Gaussian, Inc.),
 the Gaussian 92(TM) system (copyright 1992, Gaussian, Inc.),
 the Gaussian 90(TM) system (copyright 1990, Gaussian, Inc.),
 the Gaussian 88(TM) system (copyright 1988, Gaussian, Inc.),
 the Gaussian 86(TM) system (copyright 1986, Carnegie Mellon
 University), and the Gaussian 82(TM) system (copyright 1983,
 Carnegie Mellon University). Gaussian is a federally registered
 trademark of Gaussian, Inc.
  
 This software contains proprietary and confidential information,
 including trade secrets, belonging to Gaussian, Inc.
  
 This software is provided under written license and may be
 used, copied, transmitted, or stored only in accord with that
 written license.
  
 The following legend is applicable only to US Government
 contracts under FAR:
  
                    RESTRICTED RIGHTS LEGEND
  
 Use, reproduction and disclosure by the US Government is
 subject to restrictions as set forth in subparagraphs (a)
 and (c) of the Commercial Computer Software - Restricted
 Rights clause in FAR 52.227-19.
  
 Gaussian, Inc.
 340 Quinnipiac St., Bldg. 40, Wallingford CT 06492
  
  
 ---------------------------------------------------------------
 Warning -- This program may not be used in any manner that
 competes with the business of Gaussian, Inc. or will provide
 assistance to any competitor of Gaussian, Inc.  The licensee
 of this program is prohibited from giving any competitor of
 Gaussian, Inc. access to this program.  By using this program,
 the user acknowledges that Gaussian, Inc. is engaged in the
 business of creating and licensing software in the field of
 computational chemistry and represents and warrants to the
 licensee that it is not a competitor of Gaussian, Inc. and that
 it will not use this program in any manner prohibited above.
 ---------------------------------------------------------------
  

 Cite this work as:
 Gaussian 16, Revision B.01,
 M. J. Frisch, G. W. Trucks, H. B. Schlegel, G. E. Scuseria, 
 M. A. Robb, J. R. Cheeseman, G. Scalmani, V. Barone, 
 G. A. Petersson, H. Nakatsuji, X. Li, M. Caricato, A. V. Marenich, 
 J. Bloino, B. G. Janesko, R. Gomperts, B. Mennucci, H. P. Hratchian, 
 J. V. Ortiz, A. F. Izmaylov, J. L. Sonnenberg, D. Williams-Young, 
 F. Ding, F. Lipparini, F. Egidi, J. Goings, B. Peng, A. Petrone, 
 T. Henderson, D. Ranasinghe, V. G. Zakrzewski, J. Gao, N. Rega, 
 G. Zheng, W. Liang, M. Hada, M. Ehara, K. Toyota, R. Fukuda, 
 J. Hasegawa, M. Ishida, T. Nakajima, Y. Honda, O. Kitao, H. Nakai, 
 T. Vreven, K. Throssell, J. A. Montgomery, Jr., J. E. Peralta, 
 F. Ogliaro, M. J. Bearpark, J. J. Heyd, E. N. Brothers, K. N. Kudin, 
 V. N. Staroverov, T. A. Keith, R. Kobayashi, J. Normand, 
 K. Raghavachari, A. P. Rendell, J. C. Burant, S. S. Iyengar, 
 J. Tomasi, M. Cossi, J. M. Millam, M. Klene, C. Adamo, R. Cammi, 
 J. W. Ochterski, R. L. Martin, K. Morokuma, O. Farkas, 
 J. B. Foresman, and D. J. Fox, Gaussian, Inc., Wallingford CT, 2016.
 
 ******************************************
 Gaussian 16:  ES64L-G16RevB.01 20-Dec-2017
                29-Nov-2023 
 ******************************************
 %nproc=15
 Will use up to   15 processors via shared memory.
 -------------------------
 #P B3LYP/6-311+g(d) force
 -------------------------
 1/10=7,30=1,38=1/1,3;
 2/12=2,17=6,18=5,40=1/2;
 3/5=4,6=6,7=11,11=2,25=1,30=1,71=1,74=-5/1,2,3;
 4//1;
 5/5=2,38=5/2;
 6/7=2,8=2,9=2,10=2,28=1/1;
 7/29=1/1,2,3,16;
 1/10=7,30=1/3;
 99//99;
 Leave Link    1 at Wed Nov 29 04:12:18 2023, MaxMem=           0 cpu:               0.3 elap:               0.0
 (Enter /home/sekinelabo/g16/l101.exe)
 -----
 DPGEN
 -----
 Symbolic Z-matrix:
 Charge =  0 Multiplicity = 2
 Na                    14.5976   15.5242   12.0835 
 Na                    15.4224   13.8719   9.39123 
 Na                    17.2834   14.0349   12.7203 
 Na                    16.4031   14.2861   16.2106 
 Na                    13.3533   14.6699   15.8211 
 Na                    15.2047   16.1057   19.9827 
 Na                    15.1609   18.9328   21.2161 
 
 ITRead=  0  0  0  0  0  0  0
 MicOpt= -1 -1 -1 -1 -1 -1 -1
 NAtoms=      7 NQM=        7 NQMF=       0 NMMI=      0 NMMIF=      0
                NMic=       0 NMicF=      0.
                    Isotopes and Nuclear Properties:
 (Nuclear quadrupole moments (NQMom) in fm**2, nuclear magnetic moments (NMagM)
  in nuclear magnetons)

  Atom         1           2           3           4           5           6           7
 IAtWgt=          23          23          23          23          23          23          23
 AtmWgt=  22.9897697  22.9897697  22.9897697  22.9897697  22.9897697  22.9897697  22.9897697
 NucSpn=           3           3           3           3           3           3           3
 AtZEff=  -0.0000000  -0.0000000  -0.0000000  -0.0000000  -0.0000000  -0.0000000  -0.0000000
 NQMom=   10.4000000  10.4000000  10.4000000  10.4000000  10.4000000  10.4000000  10.4000000
 NMagM=    2.2175200   2.2175200   2.2175200   2.2175200   2.2175200   2.2175200   2.2175200
 AtZNuc=  11.0000000  11.0000000  11.0000000  11.0000000  11.0000000  11.0000000  11.0000000
 Leave Link  101 at Wed Nov 29 04:12:18 2023, MaxMem=  1879048192 cpu:               2.4 elap:               0.2
 (Enter /home/sekinelabo/g16/l103.exe)

 GradGradGradGradGradGradGradGradGradGradGradGradGradGradGradGradGradGrad
 Berny optimization.
 Initialization pass.
 Trust Radius=3.00D-01 FncErr=1.00D-07 GrdErr=1.00D-07 EigMax=2.50D+02 EigMin=1.00D-04
 Number of steps in this run=      2 maximum allowed number of steps=      2.
 GradGradGradGradGradGradGradGradGradGradGradGradGradGradGradGradGradGrad

 Leave Link  103 at Wed Nov 29 04:12:18 2023, MaxMem=  1879048192 cpu:               0.2 elap:               0.0
 (Enter /home/sekinelabo/g16/l202.exe)
                          Input orientation:                          
 ---------------------------------------------------------------------
 Center     Atomic      Atomic             Coordinates (Angstroms)
 Number     Number       Type             X           Y           Z
 ---------------------------------------------------------------------
      1         11           0       14.597600   15.524200   12.083500
      2         11           0       15.422400   13.871900    9.391230
      3         11           0       17.283400   14.034900   12.720300
      4         11           0       16.403100   14.286100   16.210600
      5         11           0       13.353300   14.669900   15.821100
      6         11           0       15.204700   16.105700   19.982700
      7         11           0       15.160900   18.932800   21.216100
 ---------------------------------------------------------------------
                    Distance matrix (angstroms):
                    1          2          3          4          5
     1  Na   0.000000
     2  Na   3.264768   0.000000
     3  Na   3.136407   3.817407   0.000000
     4  Na   4.671796   6.901966   3.608355   0.000000
     5  Na   4.030852   6.801559   5.046174   3.098434   0.000000
     6  Na   7.943807  10.826657   7.832730   4.356127   4.775785
     7  Na   9.764233  12.865016  10.033596   6.941895   7.109554
                    6          7
     6  Na   0.000000
     7  Na   3.084751   0.000000
 Stoichiometry    Na7(2)
 Framework group  C1[X(Na7)]
 Deg. of freedom    15
 Full point group                 C1      NOp   1
 Largest Abelian subgroup         C1      NOp   1
 Largest concise Abelian subgroup C1      NOp   1
                         Standard orientation:                         
 ---------------------------------------------------------------------
 Center     Atomic      Atomic             Coordinates (Angstroms)
 Number     Number       Type             X           Y           Z
 ---------------------------------------------------------------------
      1         11           0        2.989630   -1.369385   -0.653072
      2         11           0        6.108648   -0.452332   -0.353995
      3         11           0        3.002893    1.762934   -0.493537
      4         11           0       -0.421952    1.555873    0.623506
      5         11           0       -0.331205   -1.372569    1.631618
      6         11           0       -4.634518    0.446912    0.642117
      7         11           0       -6.713495   -0.571433   -1.396636
 ---------------------------------------------------------------------
 Rotational constants (GHZ):           1.3546249           0.1713154           0.1663761
 Leave Link  202 at Wed Nov 29 04:12:18 2023, MaxMem=  1879048192 cpu:               0.0 elap:               0.0
 (Enter /home/sekinelabo/g16/l301.exe)
 Standard basis: 6-311+G(d) (5D, 7F)
 Ernie: Thresh=  0.10000D-02 Tol=  0.10000D-05 Strict=F.
 There are   217 symmetry adapted cartesian basis functions of A   symmetry.
 There are   210 symmetry adapted basis functions of A   symmetry.
   210 basis functions,   350 primitive gaussians,   217 cartesian basis functions
    39 alpha electrons       38 beta electrons
       nuclear repulsion energy       263.3415023447 Hartrees.
 IExCor=  402 DFT=T Ex+Corr=B3LYP ExCW=0 ScaHFX=  0.200000
 ScaDFX=  0.800000  0.720000  1.000000  0.810000 ScalE2=  1.000000  1.000000
 IRadAn=      5 IRanWt=     -1 IRanGd=            0 ICorTp=0 IEmpDi=  4
 NAtoms=    7 NActive=    7 NUniq=    7 SFac= 1.00D+00 NAtFMM=   60 NAOKFM=F Big=F
 Integral buffers will be    131072 words long.
 Raffenetti 2 integral format.
 Two-electron integral symmetry is turned on.
 Leave Link  301 at Wed Nov 29 04:12:18 2023, MaxMem=  1879048192 cpu:               0.5 elap:               0.0
 (Enter /home/sekinelabo/g16/l302.exe)
 NPDir=0 NMtPBC=     1 NCelOv=     1 NCel=       1 NClECP=     1 NCelD=      1
         NCelK=      1 NCelE2=     1 NClLst=     1 CellRange=     0.0.
 One-electron integrals computed using PRISM.
 One-electron integral symmetry used in STVInt
 NBasis=   210 RedAO= T EigKep=  9.21D-06  NBF=   210
 NBsUse=   210 1.00D-06 EigRej= -1.00D+00 NBFU=   210
 Precomputing XC quadrature grid using
 IXCGrd= 4 IRadAn=           5 IRanWt=          -1 IRanGd=           0 AccXCQ= 0.00D+00.
 Generated NRdTot=       0 NPtTot=           0 NUsed=           0 NTot=          32
 NSgBfM=   198   198   198   198   198 MxSgAt=     7 MxSgA2=     7.
 Leave Link  302 at Wed Nov 29 04:12:18 2023, MaxMem=  1879048192 cpu:               1.9 elap:               0.1
 (Enter /home/sekinelabo/g16/l303.exe)
 DipDrv:  MaxL=1.
 Leave Link  303 at Wed Nov 29 04:12:18 2023, MaxMem=  1879048192 cpu:               0.5 elap:               0.0
 (Enter /home/sekinelabo/g16/l401.exe)
 ExpMin= 7.60D-03 ExpMax= 3.62D+04 ExpMxC= 1.21D+03 IAcc=3 IRadAn=         5 AccDes= 0.00D+00
 Harris functional with IExCor=  402 and IRadAn=       5 diagonalized for initial guess.
 HarFok:  IExCor=  402 AccDes= 0.00D+00 IRadAn=         5 IDoV= 1 UseB2=F ITyADJ=14
 ICtDFT=  3500011 ScaDFX=  1.000000  1.000000  1.000000  1.000000
 FoFCou: FMM=F IPFlag=           0 FMFlag=      100000 FMFlg1=           0
         NFxFlg=           0 DoJE=T BraDBF=F KetDBF=T FulRan=T
         wScrn=  0.000000 ICntrl=       500 IOpCl=  0 I1Cent=   200000004 NGrid=           0
         NMat0=    1 NMatS0=      1 NMatT0=    0 NMatD0=    1 NMtDS0=    0 NMtDT0=    0
 Petite list used in FoFCou.
 Harris En= -1135.88176590274    
 JPrj=0 DoOrth=F DoCkMO=F.
 Initial guess <Sx>= 0.0000 <Sy>= 0.0000 <Sz>= 0.5000 <S**2>= 0.7500 S= 0.5000
 Leave Link  401 at Wed Nov 29 04:12:19 2023, MaxMem=  1879048192 cpu:               4.0 elap:               0.3
 (Enter /home/sekinelabo/g16/l502.exe)
 Keep R1 and R2 ints in memory in canonical form, NReq=506573293.
 FoFCou: FMM=F IPFlag=           0 FMFlag=           0 FMFlg1=           0
         NFxFlg=           0 DoJE=F BraDBF=F KetDBF=F FulRan=T
         wScrn=  0.000000 ICntrl=       600 IOpCl=  0 I1Cent=           0 NGrid=           0
         NMat0=    1 NMatS0=  22155 NMatT0=    0 NMatD0=    1 NMtDS0=    0 NMtDT0=    0
 Symmetry not used in FoFCou.
 Two-electron integral symmetry not used.
 UHF open shell SCF:
 Using DIIS extrapolation, IDIIS=  1040.
 NGot=  1879048192 LenX=  1388082607 LenY=  1388035077
 Requested convergence on RMS density matrix=1.00D-08 within 128 cycles.
 Requested convergence on MAX density matrix=1.00D-06.
 Requested convergence on             energy=1.00D-06.
 No special actions if energy rises.

 Cycle   1  Pass 1  IDiag  1:
 E= -1136.08601233349    
 DIIS: error= 8.45D-03 at cycle   1 NSaved=   1.
 NSaved= 1 IEnMin= 1 EnMin= -1136.08601233349     IErMin= 1 ErrMin= 8.45D-03
 ErrMax= 8.45D-03  0.00D+00 EMaxC= 1.00D-01 BMatC= 1.83D-01 BMatP= 1.83D-01
 IDIUse=3 WtCom= 9.16D-01 WtEn= 8.45D-02
 Coeff-Com:  0.100D+01
 Coeff-En:   0.100D+01
 Coeff:      0.100D+01
 Gap=     0.033 Goal=   None    Shift=    0.000
 Gap=     0.046 Goal=   None    Shift=    0.000
 GapD=    0.033 DampG=0.250 DampE=1.000 DampFc=0.2500 IDamp=-1.
 Damping current iteration by 2.50D-01
 RMSDP=5.90D-03 MaxDP=3.53D-01              OVMax= 1.47D-01

 Cycle   2  Pass 1  IDiag  1:
 E= -1136.09430749823     Delta-E=       -0.008295164744 Rises=F Damp=T
 DIIS: error= 5.90D-03 at cycle   2 NSaved=   2.
 NSaved= 2 IEnMin= 2 EnMin= -1136.09430749823     IErMin= 2 ErrMin= 5.90D-03
 ErrMax= 5.90D-03  0.00D+00 EMaxC= 1.00D-01 BMatC= 7.12D-02 BMatP= 1.83D-01
 IDIUse=3 WtCom= 9.41D-01 WtEn= 5.90D-02
 Coeff-Com: -0.131D+01 0.231D+01
 Coeff-En:   0.000D+00 0.100D+01
 Coeff:     -0.124D+01 0.224D+01
 Gap=     0.039 Goal=   None    Shift=    0.000
 Gap=     0.051 Goal=   None    Shift=    0.000
 RMSDP=4.04D-03 MaxDP=2.61D-01 DE=-8.30D-03 OVMax= 1.14D-01

 Cycle   3  Pass 1  IDiag  1:
 E= -1136.11041702840     Delta-E=       -0.016109530165 Rises=F Damp=F
 DIIS: error= 1.77D-03 at cycle   3 NSaved=   3.
 NSaved= 3 IEnMin= 3 EnMin= -1136.11041702840     IErMin= 3 ErrMin= 1.77D-03
 ErrMax= 1.77D-03  0.00D+00 EMaxC= 1.00D-01 BMatC= 1.06D-03 BMatP= 7.12D-02
 IDIUse=3 WtCom= 9.82D-01 WtEn= 1.77D-02
 Coeff-Com: -0.127D+00 0.210D+00 0.917D+00
 Coeff-En:   0.000D+00 0.000D+00 0.100D+01
 Coeff:     -0.125D+00 0.206D+00 0.919D+00
 Gap=     0.035 Goal=   None    Shift=    0.000
 Gap=     0.052 Goal=   None    Shift=    0.000
 RMSDP=1.49D-03 MaxDP=6.88D-02 DE=-1.61D-02 OVMax= 1.01D-01

 Cycle   4  Pass 1  IDiag  1:
 E= -1136.10900232138     Delta-E=        0.001414707021 Rises=F Damp=F
 DIIS: error= 2.30D-03 at cycle   4 NSaved=   4.
 NSaved= 4 IEnMin= 3 EnMin= -1136.11041702840     IErMin= 3 ErrMin= 1.77D-03
 ErrMax= 2.30D-03  0.00D+00 EMaxC= 1.00D-01 BMatC= 2.12D-03 BMatP= 1.06D-03
 IDIUse=3 WtCom= 1.72D-01 WtEn= 8.28D-01
 Coeff-Com: -0.192D-01 0.262D-01 0.587D+00 0.406D+00
 Coeff-En:   0.000D+00 0.000D+00 0.641D+00 0.359D+00
 Coeff:     -0.331D-02 0.451D-02 0.632D+00 0.367D+00
 Gap=     0.036 Goal=   None    Shift=    0.000
 Gap=     0.050 Goal=   None    Shift=    0.000
 RMSDP=7.92D-04 MaxDP=3.71D-02 DE= 1.41D-03 OVMax= 5.10D-02

 Cycle   5  Pass 1  IDiag  1:
 E= -1136.11181029503     Delta-E=       -0.002807973652 Rises=F Damp=F
 DIIS: error= 2.37D-04 at cycle   5 NSaved=   5.
 NSaved= 5 IEnMin= 5 EnMin= -1136.11181029503     IErMin= 5 ErrMin= 2.37D-04
 ErrMax= 2.37D-04  0.00D+00 EMaxC= 1.00D-01 BMatC= 3.86D-05 BMatP= 1.06D-03
 IDIUse=3 WtCom= 9.98D-01 WtEn= 2.37D-03
 Coeff-Com:  0.548D-02-0.820D-02 0.206D+00 0.668D-01 0.730D+00
 Coeff-En:   0.000D+00 0.000D+00 0.000D+00 0.000D+00 0.100D+01
 Coeff:      0.546D-02-0.818D-02 0.205D+00 0.666D-01 0.731D+00
 Gap=     0.037 Goal=   None    Shift=    0.000
 Gap=     0.049 Goal=   None    Shift=    0.000
 RMSDP=1.96D-04 MaxDP=1.07D-02 DE=-2.81D-03 OVMax= 9.58D-03

 Cycle   6  Pass 1  IDiag  1:
 E= -1136.11185474173     Delta-E=       -0.000044446700 Rises=F Damp=F
 DIIS: error= 1.44D-04 at cycle   6 NSaved=   6.
 NSaved= 6 IEnMin= 6 EnMin= -1136.11185474173     IErMin= 6 ErrMin= 1.44D-04
 ErrMax= 1.44D-04  0.00D+00 EMaxC= 1.00D-01 BMatC= 4.56D-06 BMatP= 3.86D-05
 IDIUse=3 WtCom= 9.99D-01 WtEn= 1.44D-03
 Coeff-Com:  0.575D-02-0.829D-02-0.337D-01-0.584D-01 0.318D+00 0.777D+00
 Coeff-En:   0.000D+00 0.000D+00 0.000D+00 0.000D+00 0.000D+00 0.100D+01
 Coeff:      0.574D-02-0.828D-02-0.337D-01-0.584D-01 0.318D+00 0.777D+00
 Gap=     0.037 Goal=   None    Shift=    0.000
 Gap=     0.049 Goal=   None    Shift=    0.000
 RMSDP=8.43D-05 MaxDP=3.33D-03 DE=-4.44D-05 OVMax= 4.99D-03

 Cycle   7  Pass 1  IDiag  1:
 E= -1136.11186571371     Delta-E=       -0.000010971978 Rises=F Damp=F
 DIIS: error= 6.10D-05 at cycle   7 NSaved=   7.
 NSaved= 7 IEnMin= 7 EnMin= -1136.11186571371     IErMin= 7 ErrMin= 6.10D-05
 ErrMax= 6.10D-05  0.00D+00 EMaxC= 1.00D-01 BMatC= 6.62D-07 BMatP= 4.56D-06
 IDIUse=1 WtCom= 1.00D+00 WtEn= 0.00D+00
 Coeff-Com: -0.145D-03 0.254D-03-0.501D-01-0.271D-01-0.608D-01 0.143D+00
 Coeff-Com:  0.995D+00
 Coeff:     -0.145D-03 0.254D-03-0.501D-01-0.271D-01-0.608D-01 0.143D+00
 Coeff:      0.995D+00
 Gap=     0.037 Goal=   None    Shift=    0.000
 Gap=     0.050 Goal=   None    Shift=    0.000
 RMSDP=7.44D-05 MaxDP=3.54D-03 DE=-1.10D-05 OVMax= 3.50D-03

 Cycle   8  Pass 1  IDiag  1:
 E= -1136.11187015576     Delta-E=       -0.000004442051 Rises=F Damp=F
 DIIS: error= 3.17D-05 at cycle   8 NSaved=   8.
 NSaved= 8 IEnMin= 8 EnMin= -1136.11187015576     IErMin= 8 ErrMin= 3.17D-05
 ErrMax= 3.17D-05  0.00D+00 EMaxC= 1.00D-01 BMatC= 1.99D-07 BMatP= 6.62D-07
 IDIUse=1 WtCom= 1.00D+00 WtEn= 0.00D+00
 Coeff-Com: -0.168D-03 0.333D-03 0.381D-03 0.783D-02-0.564D-01-0.142D+00
 Coeff-Com:  0.473D-01 0.114D+01
 Coeff:     -0.168D-03 0.333D-03 0.381D-03 0.783D-02-0.564D-01-0.142D+00
 Coeff:      0.473D-01 0.114D+01
 Gap=     0.037 Goal=   None    Shift=    0.000
 Gap=     0.050 Goal=   None    Shift=    0.000
 RMSDP=5.18D-05 MaxDP=2.08D-03 DE=-4.44D-06 OVMax= 3.32D-03

 Cycle   9  Pass 1  IDiag  1:
 E= -1136.11187221735     Delta-E=       -0.000002061595 Rises=F Damp=F
 DIIS: error= 2.20D-05 at cycle   9 NSaved=   9.
 NSaved= 9 IEnMin= 9 EnMin= -1136.11187221735     IErMin= 9 ErrMin= 2.20D-05
 ErrMax= 2.20D-05  0.00D+00 EMaxC= 1.00D-01 BMatC= 8.18D-08 BMatP= 1.99D-07
 IDIUse=1 WtCom= 1.00D+00 WtEn= 0.00D+00
 Coeff-Com:  0.630D-04-0.643D-04 0.141D-01 0.880D-02 0.740D-02-0.567D-01
 Coeff-Com: -0.328D+00 0.259D+00 0.110D+01
 Coeff:      0.630D-04-0.643D-04 0.141D-01 0.880D-02 0.740D-02-0.567D-01
 Coeff:     -0.328D+00 0.259D+00 0.110D+01
 Gap=     0.037 Goal=   None    Shift=    0.000
 Gap=     0.050 Goal=   None    Shift=    0.000
 RMSDP=3.78D-05 MaxDP=1.33D-03 DE=-2.06D-06 OVMax= 2.55D-03

 Cycle  10  Pass 1  IDiag  1:
 E= -1136.11187319912     Delta-E=       -0.000000981763 Rises=F Damp=F
 DIIS: error= 1.46D-05 at cycle  10 NSaved=  10.
 NSaved=10 IEnMin=10 EnMin= -1136.11187319912     IErMin=10 ErrMin= 1.46D-05
 ErrMax= 1.46D-05  0.00D+00 EMaxC= 1.00D-01 BMatC= 3.24D-08 BMatP= 8.18D-08
 IDIUse=1 WtCom= 1.00D+00 WtEn= 0.00D+00
 Coeff-Com: -0.167D-03 0.188D-03 0.417D-02-0.884D-03 0.267D-01 0.434D-01
 Coeff-Com: -0.117D+00-0.446D+00 0.364D+00 0.113D+01
 Coeff:     -0.167D-03 0.188D-03 0.417D-02-0.884D-03 0.267D-01 0.434D-01
 Coeff:     -0.117D+00-0.446D+00 0.364D+00 0.113D+01
 Gap=     0.037 Goal=   None    Shift=    0.000
 Gap=     0.050 Goal=   None    Shift=    0.000
 RMSDP=2.85D-05 MaxDP=9.72D-04 DE=-9.82D-07 OVMax= 2.23D-03

 Cycle  11  Pass 1  IDiag  1:
 E= -1136.11187362676     Delta-E=       -0.000000427645 Rises=F Damp=F
 DIIS: error= 5.37D-06 at cycle  11 NSaved=  11.
 NSaved=11 IEnMin=11 EnMin= -1136.11187362676     IErMin=11 ErrMin= 5.37D-06
 ErrMax= 5.37D-06  0.00D+00 EMaxC= 1.00D-01 BMatC= 6.77D-09 BMatP= 3.24D-08
 IDIUse=1 WtCom= 1.00D+00 WtEn= 0.00D+00
 Coeff-Com: -0.445D-04 0.431D-04-0.277D-02-0.273D-02 0.667D-02 0.220D-01
 Coeff-Com:  0.698D-01-0.177D+00-0.252D+00 0.232D+00 0.110D+01
 Coeff:     -0.445D-04 0.431D-04-0.277D-02-0.273D-02 0.667D-02 0.220D-01
 Coeff:      0.698D-01-0.177D+00-0.252D+00 0.232D+00 0.110D+01
 Gap=     0.037 Goal=   None    Shift=    0.000
 Gap=     0.050 Goal=   None    Shift=    0.000
 RMSDP=1.32D-05 MaxDP=4.83D-04 DE=-4.28D-07 OVMax= 1.11D-03

 Cycle  12  Pass 1  IDiag  1:
 E= -1136.11187372061     Delta-E=       -0.000000093851 Rises=F Damp=F
 DIIS: error= 1.85D-06 at cycle  12 NSaved=  12.
 NSaved=12 IEnMin=12 EnMin= -1136.11187372061     IErMin=12 ErrMin= 1.85D-06
 ErrMax= 1.85D-06  0.00D+00 EMaxC= 1.00D-01 BMatC= 1.63D-09 BMatP= 6.77D-09
 IDIUse=1 WtCom= 1.00D+00 WtEn= 0.00D+00
 Coeff-Com:  0.611D-04-0.785D-04-0.144D-02-0.358D-03-0.475D-02-0.434D-02
 Coeff-Com:  0.408D-01 0.535D-01-0.150D+00-0.169D+00 0.311D+00 0.925D+00
 Coeff:      0.611D-04-0.785D-04-0.144D-02-0.358D-03-0.475D-02-0.434D-02
 Coeff:      0.408D-01 0.535D-01-0.150D+00-0.169D+00 0.311D+00 0.925D+00
 Gap=     0.037 Goal=   None    Shift=    0.000
 Gap=     0.050 Goal=   None    Shift=    0.000
 RMSDP=4.05D-06 MaxDP=1.83D-04 DE=-9.39D-08 OVMax= 3.65D-04

 Cycle  13  Pass 1  IDiag  1:
 E= -1136.11187373351     Delta-E=       -0.000000012898 Rises=F Damp=F
 DIIS: error= 1.11D-06 at cycle  13 NSaved=  13.
 NSaved=13 IEnMin=13 EnMin= -1136.11187373351     IErMin=13 ErrMin= 1.11D-06
 ErrMax= 1.11D-06  0.00D+00 EMaxC= 1.00D-01 BMatC= 5.13D-10 BMatP= 1.63D-09
 IDIUse=1 WtCom= 1.00D+00 WtEn= 0.00D+00
 Coeff-Com:  0.521D-04-0.622D-04 0.237D-03 0.716D-03-0.445D-02-0.848D-02
 Coeff-Com: -0.603D-02 0.831D-01 0.241D-01-0.147D+00-0.252D+00 0.391D+00
 Coeff-Com:  0.919D+00
 Coeff:      0.521D-04-0.622D-04 0.237D-03 0.716D-03-0.445D-02-0.848D-02
 Coeff:     -0.603D-02 0.831D-01 0.241D-01-0.147D+00-0.252D+00 0.391D+00
 Coeff:      0.919D+00
 Gap=     0.037 Goal=   None    Shift=    0.000
 Gap=     0.050 Goal=   None    Shift=    0.000
 RMSDP=1.73D-06 MaxDP=9.56D-05 DE=-1.29D-08 OVMax= 1.70D-04

 Cycle  14  Pass 1  IDiag  1:
 E= -1136.11187373658     Delta-E=       -0.000000003067 Rises=F Damp=F
 DIIS: error= 4.66D-07 at cycle  14 NSaved=  14.
 NSaved=14 IEnMin=14 EnMin= -1136.11187373658     IErMin=14 ErrMin= 4.66D-07
 ErrMax= 4.66D-07  0.00D+00 EMaxC= 1.00D-01 BMatC= 6.53D-11 BMatP= 5.13D-10
 IDIUse=1 WtCom= 1.00D+00 WtEn= 0.00D+00
 Coeff-Com: -0.146D-04 0.197D-04 0.309D-03 0.137D-03 0.759D-03 0.236D-03
 Coeff-Com: -0.103D-01-0.335D-02 0.355D-01 0.177D-01-0.924D-01-0.118D+00
 Coeff-Com:  0.123D+00 0.105D+01
 Coeff:     -0.146D-04 0.197D-04 0.309D-03 0.137D-03 0.759D-03 0.236D-03
 Coeff:     -0.103D-01-0.335D-02 0.355D-01 0.177D-01-0.924D-01-0.118D+00
 Coeff:      0.123D+00 0.105D+01
 Gap=     0.037 Goal=   None    Shift=    0.000
 Gap=     0.050 Goal=   None    Shift=    0.000
 RMSDP=6.55D-07 MaxDP=3.57D-05 DE=-3.07D-09 OVMax= 5.59D-05

 Cycle  15  Pass 1  IDiag  1:
 E= -1136.11187373707     Delta-E=       -0.000000000489 Rises=F Damp=F
 DIIS: error= 2.22D-07 at cycle  15 NSaved=  15.
 NSaved=15 IEnMin=15 EnMin= -1136.11187373707     IErMin=15 ErrMin= 2.22D-07
 ErrMax= 2.22D-07  0.00D+00 EMaxC= 1.00D-01 BMatC= 2.03D-11 BMatP= 6.53D-11
 IDIUse=1 WtCom= 1.00D+00 WtEn= 0.00D+00
 Coeff-Com: -0.188D-04 0.239D-04 0.838D-04-0.660D-04 0.104D-02 0.172D-02
 Coeff-Com: -0.274D-02-0.154D-01 0.666D-02 0.317D-01 0.188D-01-0.113D+00
 Coeff-Com: -0.152D+00 0.390D+00 0.833D+00
 Coeff:     -0.188D-04 0.239D-04 0.838D-04-0.660D-04 0.104D-02 0.172D-02
 Coeff:     -0.274D-02-0.154D-01 0.666D-02 0.317D-01 0.188D-01-0.113D+00
 Coeff:     -0.152D+00 0.390D+00 0.833D+00
 Gap=     0.037 Goal=   None    Shift=    0.000
 Gap=     0.050 Goal=   None    Shift=    0.000
 RMSDP=2.66D-07 MaxDP=1.70D-05 DE=-4.89D-10 OVMax= 2.07D-05

 Cycle  16  Pass 1  IDiag  1:
 E= -1136.11187373717     Delta-E=       -0.000000000104 Rises=F Damp=F
 DIIS: error= 9.74D-08 at cycle  16 NSaved=  16.
 NSaved=16 IEnMin=16 EnMin= -1136.11187373717     IErMin=16 ErrMin= 9.74D-08
 ErrMax= 9.74D-08  0.00D+00 EMaxC= 1.00D-01 BMatC= 3.25D-12 BMatP= 2.03D-11
 IDIUse=1 WtCom= 1.00D+00 WtEn= 0.00D+00
 Coeff-Com:  0.223D-05-0.325D-05-0.646D-04-0.436D-04-0.703D-04 0.117D-03
 Coeff-Com:  0.247D-02-0.861D-03-0.102D-01 0.113D-02 0.296D-01 0.107D-01
 Coeff-Com: -0.630D-01-0.188D+00 0.680D-01 0.115D+01
 Coeff:      0.223D-05-0.325D-05-0.646D-04-0.436D-04-0.703D-04 0.117D-03
 Coeff:      0.247D-02-0.861D-03-0.102D-01 0.113D-02 0.296D-01 0.107D-01
 Coeff:     -0.630D-01-0.188D+00 0.680D-01 0.115D+01
 Gap=     0.037 Goal=   None    Shift=    0.000
 Gap=     0.050 Goal=   None    Shift=    0.000
 RMSDP=1.75D-07 MaxDP=8.70D-06 DE=-1.04D-10 OVMax= 1.29D-05

 Cycle  17  Pass 1  IDiag  1:
 E= -1136.11187373719     Delta-E=       -0.000000000020 Rises=F Damp=F
 DIIS: error= 3.76D-08 at cycle  17 NSaved=  17.
 NSaved=17 IEnMin=17 EnMin= -1136.11187373719     IErMin=17 ErrMin= 3.76D-08
 ErrMax= 3.76D-08  0.00D+00 EMaxC= 1.00D-01 BMatC= 5.07D-13 BMatP= 3.25D-12
 IDIUse=1 WtCom= 1.00D+00 WtEn= 0.00D+00
 Coeff-Com:  0.441D-05-0.571D-05-0.257D-04 0.122D-04-0.245D-03-0.333D-03
 Coeff-Com:  0.850D-03 0.293D-02-0.224D-02-0.633D-02-0.654D-03 0.238D-01
 Coeff-Com:  0.225D-01-0.955D-01-0.114D+00 0.172D-01 0.115D+01
 Coeff:      0.441D-05-0.571D-05-0.257D-04 0.122D-04-0.245D-03-0.333D-03
 Coeff:      0.850D-03 0.293D-02-0.224D-02-0.633D-02-0.654D-03 0.238D-01
 Coeff:      0.225D-01-0.955D-01-0.114D+00 0.172D-01 0.115D+01
 Gap=     0.037 Goal=   None    Shift=    0.000
 Gap=     0.050 Goal=   None    Shift=    0.000
 RMSDP=7.46D-08 MaxDP=3.66D-06 DE=-2.00D-11 OVMax= 5.22D-06

 Cycle  18  Pass 1  IDiag  1:
 E= -1136.11187373720     Delta-E=       -0.000000000006 Rises=F Damp=F
 DIIS: error= 2.04D-08 at cycle  18 NSaved=  18.
 NSaved=18 IEnMin=18 EnMin= -1136.11187373720     IErMin=18 ErrMin= 2.04D-08
 ErrMax= 2.04D-08  0.00D+00 EMaxC= 1.00D-01 BMatC= 9.93D-14 BMatP= 5.07D-13
 IDIUse=1 WtCom= 1.00D+00 WtEn= 0.00D+00
 Coeff-Com: -0.319D-06 0.495D-06 0.388D-05 0.834D-05-0.357D-04-0.415D-04
 Coeff-Com: -0.215D-03 0.328D-03 0.153D-02-0.118D-02-0.469D-02 0.176D-02
 Coeff-Com:  0.124D-01 0.182D-01-0.312D-01-0.174D+00 0.138D+00 0.104D+01
 Coeff:     -0.319D-06 0.495D-06 0.388D-05 0.834D-05-0.357D-04-0.415D-04
 Coeff:     -0.215D-03 0.328D-03 0.153D-02-0.118D-02-0.469D-02 0.176D-02
 Coeff:      0.124D-01 0.182D-01-0.312D-01-0.174D+00 0.138D+00 0.104D+01
 Gap=     0.037 Goal=   None    Shift=    0.000
 Gap=     0.050 Goal=   None    Shift=    0.000
 RMSDP=3.14D-08 MaxDP=1.75D-06 DE=-6.14D-12 OVMax= 2.01D-06

 Cycle  19  Pass 1  IDiag  1:
 E= -1136.11187373719     Delta-E=        0.000000000001 Rises=F Damp=F
 DIIS: error= 6.97D-09 at cycle  19 NSaved=  19.
 NSaved=19 IEnMin=18 EnMin= -1136.11187373720     IErMin=19 ErrMin= 6.97D-09
 ErrMax= 6.97D-09  0.00D+00 EMaxC= 1.00D-01 BMatC= 2.00D-14 BMatP= 9.93D-14
 IDIUse=1 WtCom= 1.00D+00 WtEn= 0.00D+00
 Coeff-Com: -0.949D-06 0.123D-05 0.672D-05-0.243D-05 0.567D-04 0.571D-04
 Coeff-Com: -0.201D-03-0.550D-03 0.450D-03 0.140D-02-0.249D-03-0.498D-02
 Coeff-Com: -0.377D-02 0.209D-01 0.223D-01-0.521D-02-0.253D+00 0.102D+00
 Coeff-Com:  0.112D+01
 Coeff:     -0.949D-06 0.123D-05 0.672D-05-0.243D-05 0.567D-04 0.571D-04
 Coeff:     -0.201D-03-0.550D-03 0.450D-03 0.140D-02-0.249D-03-0.498D-02
 Coeff:     -0.377D-02 0.209D-01 0.223D-01-0.521D-02-0.253D+00 0.102D+00
 Coeff:      0.112D+01
 Gap=     0.037 Goal=   None    Shift=    0.000
 Gap=     0.050 Goal=   None    Shift=    0.000
 RMSDP=1.63D-08 MaxDP=1.08D-06 DE= 6.82D-13 OVMax= 7.30D-07

 Cycle  20  Pass 1  IDiag  1:
 E= -1136.11187373721     Delta-E=       -0.000000000016 Rises=F Damp=F
 DIIS: error= 1.91D-09 at cycle  20 NSaved=  20.
 NSaved=20 IEnMin=20 EnMin= -1136.11187373721     IErMin=20 ErrMin= 1.91D-09
 ErrMax= 1.91D-09  0.00D+00 EMaxC= 1.00D-01 BMatC= 2.16D-15 BMatP= 2.00D-14
 IDIUse=1 WtCom= 1.00D+00 WtEn= 0.00D+00
 Large coefficients: NSaved= 20 BigCof=    0.00 CofMax=   10.00 Det=-5.32D-15
 Inversion failed.  Reducing to 19 matrices.
 Large coefficients: NSaved= 19 BigCof=    0.00 CofMax=   10.00 Det=-7.09D-15
 Inversion failed.  Reducing to 18 matrices.
 Large coefficients: NSaved= 18 BigCof=    0.00 CofMax=   10.00 Det=-7.44D-15
 Inversion failed.  Reducing to 17 matrices.
 Large coefficients: NSaved= 17 BigCof=    0.00 CofMax=   10.00 Det=-7.51D-15
 Inversion failed.  Reducing to 16 matrices.
 Large coefficients: NSaved= 16 BigCof=    0.00 CofMax=   10.00 Det=-8.54D-15
 Inversion failed.  Reducing to 15 matrices.
 Coeff-Com: -0.734D-06 0.214D-04 0.547D-05-0.157D-03 0.866D-04 0.431D-03
 Coeff-Com: -0.222D-03-0.112D-02-0.106D-02 0.316D-02 0.124D-01-0.283D-02
 Coeff-Com: -0.144D+00-0.142D-01 0.115D+01
 Coeff:     -0.734D-06 0.214D-04 0.547D-05-0.157D-03 0.866D-04 0.431D-03
 Coeff:     -0.222D-03-0.112D-02-0.106D-02 0.316D-02 0.124D-01-0.283D-02
 Coeff:     -0.144D+00-0.142D-01 0.115D+01
 Gap=     0.037 Goal=   None    Shift=    0.000
 Gap=     0.050 Goal=   None    Shift=    0.000
 RMSDP=6.03D-09 MaxDP=4.57D-07 DE=-1.57D-11 OVMax= 2.40D-07

 SCF Done:  E(UB3LYP) =  -1136.11187374     A.U. after   20 cycles
            NFock= 20  Conv=0.60D-08     -V/T= 2.0029
 <Sx>= 0.0000 <Sy>= 0.0000 <Sz>= 0.5000 <S**2>= 0.7714 S= 0.5107
 <L.S>= 0.000000000000E+00
 KE= 1.132866670540D+03 PE=-3.255720905361D+03 EE= 7.234008587395D+02
 Annihilation of the first spin contaminant:
 S**2 before annihilation     0.7714,   after     0.7502
 Leave Link  502 at Wed Nov 29 04:12:34 2023, MaxMem=  1879048192 cpu:             159.3 elap:              14.9
 (Enter /home/sekinelabo/g16/l601.exe)
 Copying SCF densities to generalized density rwf, IOpCl= 1 IROHF=0.

 **********************************************************************

            Population analysis using the SCF Density.

 **********************************************************************

 Orbital symmetries:
 Alpha Orbitals:
       Occupied  (A) (A) (A) (A) (A) (A) (A) (A) (A) (A) (A) (A)
                 (A) (A) (A) (A) (A) (A) (A) (A) (A) (A) (A) (A)
                 (A) (A) (A) (A) (A) (A) (A) (A) (A) (A) (A) (A)
                 (A) (A) (A)
       Virtual   (A) (A) (A) (A) (A) (A) (A) (A) (A) (A) (A) (A)
                 (A) (A) (A) (A) (A) (A) (A) (A) (A) (A) (A) (A)
                 (A) (A) (A) (A) (A) (A) (A) (A) (A) (A) (A) (A)
                 (A) (A) (A) (A) (A) (A) (A) (A) (A) (A) (A) (A)
                 (A) (A) (A) (A) (A) (A) (A) (A) (A) (A) (A) (A)
                 (A) (A) (A) (A) (A) (A) (A) (A) (A) (A) (A) (A)
                 (A) (A) (A) (A) (A) (A) (A) (A) (A) (A) (A) (A)
                 (A) (A) (A) (A) (A) (A) (A) (A) (A) (A) (A) (A)
                 (A) (A) (A) (A) (A) (A) (A) (A) (A) (A) (A) (A)
                 (A) (A) (A) (A) (A) (A) (A) (A) (A) (A) (A) (A)
                 (A) (A) (A) (A) (A) (A) (A) (A) (A) (A) (A) (A)
                 (A) (A) (A) (A) (A) (A) (A) (A) (A) (A) (A) (A)
                 (A) (A) (A) (A) (A) (A) (A) (A) (A) (A) (A) (A)
                 (A) (A) (A) (A) (A) (A) (A) (A) (A) (A) (A) (A)
                 (A) (A) (A)
 Beta  Orbitals:
       Occupied  (A) (A) (A) (A) (A) (A) (A) (A) (A) (A) (A) (A)
                 (A) (A) (A) (A) (A) (A) (A) (A) (A) (A) (A) (A)
                 (A) (A) (A) (A) (A) (A) (A) (A) (A) (A) (A) (A)
                 (A) (A)
       Virtual   (A) (A) (A) (A) (A) (A) (A) (A) (A) (A) (A) (A)
                 (A) (A) (A) (A) (A) (A) (A) (A) (A) (A) (A) (A)
                 (A) (A) (A) (A) (A) (A) (A) (A) (A) (A) (A) (A)
                 (A) (A) (A) (A) (A) (A) (A) (A) (A) (A) (A) (A)
                 (A) (A) (A) (A) (A) (A) (A) (A) (A) (A) (A) (A)
                 (A) (A) (A) (A) (A) (A) (A) (A) (A) (A) (A) (A)
                 (A) (A) (A) (A) (A) (A) (A) (A) (A) (A) (A) (A)
                 (A) (A) (A) (A) (A) (A) (A) (A) (A) (A) (A) (A)
                 (A) (A) (A) (A) (A) (A) (A) (A) (A) (A) (A) (A)
                 (A) (A) (A) (A) (A) (A) (A) (A) (A) (A) (A) (A)
                 (A) (A) (A) (A) (A) (A) (A) (A) (A) (A) (A) (A)
                 (A) (A) (A) (A) (A) (A) (A) (A) (A) (A) (A) (A)
                 (A) (A) (A) (A) (A) (A) (A) (A) (A) (A) (A) (A)
                 (A) (A) (A) (A) (A) (A) (A) (A) (A) (A) (A) (A)
                 (A) (A) (A) (A)
 The electronic state is 2-A.
 Alpha  occ. eigenvalues --  -38.45053 -38.45040 -38.44339 -38.44085 -38.44030
 Alpha  occ. eigenvalues --  -38.43753 -38.43694  -2.20885  -2.20843  -2.20202
 Alpha  occ. eigenvalues --   -2.19911  -2.19852  -2.19539  -2.19483  -1.14603
 Alpha  occ. eigenvalues --   -1.14571  -1.14535  -1.14506  -1.14490  -1.14421
 Alpha  occ. eigenvalues --   -1.13893  -1.13858  -1.13775  -1.13657  -1.13584
 Alpha  occ. eigenvalues --   -1.13550  -1.13500  -1.13478  -1.13447  -1.13276
 Alpha  occ. eigenvalues --   -1.13197  -1.13196  -1.13150  -1.13137  -1.13059
 Alpha  occ. eigenvalues --   -0.16751  -0.13812  -0.12139  -0.10773
 Alpha virt. eigenvalues --   -0.07077  -0.05284  -0.04661  -0.03700  -0.02798
 Alpha virt. eigenvalues --   -0.02649  -0.02058  -0.01980  -0.01050  -0.00864
 Alpha virt. eigenvalues --   -0.00286  -0.00156   0.00069   0.00302   0.00381
 Alpha virt. eigenvalues --    0.00656   0.00791   0.00908   0.01069   0.01121
 Alpha virt. eigenvalues --    0.01333   0.01408   0.01490   0.01692   0.01771
 Alpha virt. eigenvalues --    0.01807   0.02011   0.02125   0.02214   0.02331
 Alpha virt. eigenvalues --    0.02404   0.02459   0.02608   0.02704   0.02805
 Alpha virt. eigenvalues --    0.03081   0.03156   0.03289   0.03411   0.03454
 Alpha virt. eigenvalues --    0.03744   0.03771   0.03800   0.04028   0.04104
 Alpha virt. eigenvalues --    0.04435   0.04830   0.04972   0.04979   0.05366
 Alpha virt. eigenvalues --    0.05603   0.06204   0.06605   0.07078   0.07177
 Alpha virt. eigenvalues --    0.07511   0.08012   0.08130   0.08310   0.08406
 Alpha virt. eigenvalues --    0.08612   0.08962   0.09032   0.09459   0.09710
 Alpha virt. eigenvalues --    0.10123   0.10467   0.10845   0.11087   0.11514
 Alpha virt. eigenvalues --    0.11662   0.12110   0.12552   0.13126   0.13619
 Alpha virt. eigenvalues --    0.14285   0.14691   0.15491   0.16252   0.16698
 Alpha virt. eigenvalues --    0.25611   0.27404   0.28873   0.29770   0.30088
 Alpha virt. eigenvalues --    0.30263   0.30485   0.31318   0.31514   0.32301
 Alpha virt. eigenvalues --    0.32837   0.33843   0.34043   0.34501   0.34812
 Alpha virt. eigenvalues --    0.35893   0.36672   0.37308   0.38550   0.38973
 Alpha virt. eigenvalues --    0.39576   0.41602   0.42640   0.42974   0.43143
 Alpha virt. eigenvalues --    0.43300   0.43808   0.44004   0.44120   0.44231
 Alpha virt. eigenvalues --    0.44312   0.44549   0.44779   0.45453   0.45719
 Alpha virt. eigenvalues --    0.45996   0.46330   0.46691   0.47057   0.47934
 Alpha virt. eigenvalues --    0.48403   0.49111   0.49213   0.49920   0.50476
 Alpha virt. eigenvalues --    0.51205   0.52085   0.52609   0.53611   0.54378
 Alpha virt. eigenvalues --    0.55536   0.56107   0.63645   0.66765   0.69704
 Alpha virt. eigenvalues --    0.70141   2.02764   2.06832   2.09355   2.12361
 Alpha virt. eigenvalues --    2.14657   2.15224   2.19716   4.41642   4.42338
 Alpha virt. eigenvalues --    4.42701   4.42741   4.43745   4.44525   4.44722
 Alpha virt. eigenvalues --    4.44872   4.45336   4.45590   4.46240   4.46355
 Alpha virt. eigenvalues --    4.46984   4.47430   4.47931   4.49330   4.51472
 Alpha virt. eigenvalues --    4.55545   4.60844   4.62155   4.62982  96.22120
 Alpha virt. eigenvalues --   96.26960  96.30147  96.34019  96.37106  96.37431
 Alpha virt. eigenvalues --   96.43424
  Beta  occ. eigenvalues --  -38.45041 -38.45016 -38.44258 -38.44070 -38.43979
  Beta  occ. eigenvalues --  -38.43759 -38.43692  -2.20843  -2.20822  -2.20053
  Beta  occ. eigenvalues --   -2.19889  -2.19756  -2.19549  -2.19479  -1.14560
  Beta  occ. eigenvalues --   -1.14543  -1.14507  -1.14491  -1.14469  -1.14398
  Beta  occ. eigenvalues --   -1.13796  -1.13760  -1.13655  -1.13624  -1.13572
  Beta  occ. eigenvalues --   -1.13512  -1.13433  -1.13410  -1.13393  -1.13281
  Beta  occ. eigenvalues --   -1.13204  -1.13203  -1.13147  -1.13134  -1.13062
  Beta  occ. eigenvalues --   -0.16065  -0.13742  -0.11976
  Beta virt. eigenvalues --   -0.07020  -0.06808  -0.05005  -0.04171  -0.03501
  Beta virt. eigenvalues --   -0.02580  -0.02070  -0.01904  -0.01802  -0.00871
  Beta virt. eigenvalues --   -0.00545  -0.00170   0.00059   0.00347   0.00435
  Beta virt. eigenvalues --    0.00480   0.00702   0.00923   0.01029   0.01147
  Beta virt. eigenvalues --    0.01193   0.01417   0.01502   0.01564   0.01799
  Beta virt. eigenvalues --    0.01840   0.01949   0.02064   0.02195   0.02317
  Beta virt. eigenvalues --    0.02406   0.02513   0.02548   0.02695   0.02823
  Beta virt. eigenvalues --    0.02893   0.03203   0.03273   0.03372   0.03454
  Beta virt. eigenvalues --    0.03475   0.03815   0.03900   0.03963   0.04119
  Beta virt. eigenvalues --    0.04184   0.04523   0.04973   0.05053   0.05106
  Beta virt. eigenvalues --    0.05482   0.05666   0.06249   0.06739   0.07126
  Beta virt. eigenvalues --    0.07258   0.07594   0.08132   0.08175   0.08357
  Beta virt. eigenvalues --    0.08432   0.08746   0.09032   0.09341   0.09500
  Beta virt. eigenvalues --    0.10025   0.10229   0.10652   0.11004   0.11441
  Beta virt. eigenvalues --    0.11722   0.11828   0.12204   0.12803   0.13359
  Beta virt. eigenvalues --    0.14001   0.14385   0.14830   0.15689   0.16326
  Beta virt. eigenvalues --    0.17013   0.25976   0.27778   0.29173   0.30071
  Beta virt. eigenvalues --    0.30273   0.30504   0.30817   0.31488   0.31725
  Beta virt. eigenvalues --    0.32433   0.32921   0.33973   0.34233   0.34627
  Beta virt. eigenvalues --    0.34982   0.36114   0.36870   0.37584   0.38713
  Beta virt. eigenvalues --    0.39171   0.39840   0.41740   0.42830   0.43164
  Beta virt. eigenvalues --    0.43331   0.43455   0.43911   0.44037   0.44299
  Beta virt. eigenvalues --    0.44316   0.44455   0.44764   0.45011   0.45566
  Beta virt. eigenvalues --    0.45852   0.46097   0.46479   0.46882   0.47131
  Beta virt. eigenvalues --    0.48113   0.48457   0.49250   0.49383   0.50100
  Beta virt. eigenvalues --    0.50657   0.51386   0.52395   0.52740   0.53839
  Beta virt. eigenvalues --    0.54519   0.55868   0.56358   0.63774   0.67033
  Beta virt. eigenvalues --    0.69703   0.70342   2.02871   2.06843   2.09464
  Beta virt. eigenvalues --    2.12593   2.14663   2.15309   2.19913   4.41695
  Beta virt. eigenvalues --    4.42364   4.42708   4.42786   4.43768   4.44525
  Beta virt. eigenvalues --    4.44720   4.44923   4.45355   4.45687   4.46251
  Beta virt. eigenvalues --    4.46413   4.46989   4.47475   4.48018   4.49441
  Beta virt. eigenvalues --    4.51534   4.55586   4.60901   4.62192   4.62979
  Beta virt. eigenvalues --   96.22159  96.26964  96.30186  96.34094  96.37113
  Beta virt. eigenvalues --   96.37453  96.43485
          Condensed to atoms (all electrons):
               1          2          3          4          5          6
     1  Na  11.400243  -0.058334   0.435154  -0.322574   0.165332  -0.064075
     2  Na  -0.058334  10.579502   0.036010  -0.103947  -0.040840   0.033012
     3  Na   0.435154   0.036010  11.242063  -0.463905  -0.179304  -0.085252
     4  Na  -0.322574  -0.103947  -0.463905  11.634230   0.314223   0.078557
     5  Na   0.165332  -0.040840  -0.179304   0.314223  10.822916  -0.205524
     6  Na  -0.064075   0.033012  -0.085252   0.078557  -0.205524  11.596997
     7  Na  -0.028039  -0.004051  -0.043671  -0.000864   0.033362   0.127551
               7
     1  Na  -0.028039
     2  Na  -0.004051
     3  Na  -0.043671
     4  Na  -0.000864
     5  Na   0.033362
     6  Na   0.127551
     7  Na  10.478410
          Atomic-Atomic Spin Densities.
               1          2          3          4          5          6
     1  Na   0.362473  -0.001236  -0.081314  -0.073931   0.094641  -0.033865
     2  Na  -0.001236   0.098530  -0.007280  -0.093781   0.015310   0.003193
     3  Na  -0.081314  -0.007280   0.347788   0.096320  -0.118807   0.010311
     4  Na  -0.073931  -0.093781   0.096320   0.242291  -0.063343   0.046292
     5  Na   0.094641   0.015310  -0.118807  -0.063343   0.351354  -0.010877
     6  Na  -0.033865   0.003193   0.010311   0.046292  -0.010877   0.047119
     7  Na  -0.000246  -0.004893  -0.016363   0.036740   0.014900  -0.028005
               7
     1  Na  -0.000246
     2  Na  -0.004893
     3  Na  -0.016363
     4  Na   0.036740
     5  Na   0.014900
     6  Na  -0.028005
     7  Na  -0.017091
 Mulliken charges and spin densities:
               1          2
     1  Na  -0.527705   0.266522
     2  Na   0.558648   0.009844
     3  Na   0.058905   0.230655
     4  Na  -0.135720   0.190589
     5  Na   0.089836   0.283178
     6  Na  -0.481267   0.034169
     7  Na   0.437302  -0.014957
 Sum of Mulliken charges =  -0.00000   1.00000
 Mulliken charges and spin densities with hydrogens summed into heavy atoms:
               1          2
     1  Na  -0.527705   0.266522
     2  Na   0.558648   0.009844
     3  Na   0.058905   0.230655
     4  Na  -0.135720   0.190589
     5  Na   0.089836   0.283178
     6  Na  -0.481267   0.034169
     7  Na   0.437302  -0.014957
 Electronic spatial extent (au):  <R**2>=           5578.1923
 Charge=             -0.0000 electrons
 Dipole moment (field-independent basis, Debye):
    X=              2.6401    Y=             -0.4135    Z=             -0.1901  Tot=              2.6791
 Quadrupole moment (field-independent basis, Debye-Ang):
   XX=            -53.7993   YY=            -71.1704   ZZ=            -68.8578
   XY=              1.9401   XZ=              2.9527   YZ=              2.6053
 Traceless Quadrupole moment (field-independent basis, Debye-Ang):
   XX=             10.8099   YY=             -6.5612   ZZ=             -4.2486
   XY=              1.9401   XZ=              2.9527   YZ=              2.6053
 Octapole moment (field-independent basis, Debye-Ang**2):
  XXX=            171.9429  YYY=             -1.6233  ZZZ=             -1.5673  XYY=              1.8895
  XXY=            -21.9531  XXZ=            -45.4717  XZZ=            -17.5528  YZZ=             -6.9143
  YYZ=              1.6723  XYZ=            -11.1948
 Hexadecapole moment (field-independent basis, Debye-Ang**3):
 XXXX=          -6063.2355 YYYY=           -962.8084 ZZZZ=           -631.3511 XXXY=            227.2092
 XXXZ=            438.6833 YYYX=             12.9206 YYYZ=             21.1846 ZZZX=             34.2429
 ZZZY=             11.2718 XXYY=          -1470.9581 XXZZ=          -1289.9749 YYZZ=           -252.1843
 XXYZ=             93.6078 YYXZ=             -9.4160 ZZXY=             18.4069
 N-N= 2.633415023447D+02 E-N=-3.255720905742D+03  KE= 1.132866670540D+03
                          Isotropic Fermi Contact Couplings
        Atom                 a.u.       MegaHertz       Gauss      10(-4) cm-1
     1  Na(23)             0.06513      77.05302      27.49443      25.70212
     2  Na(23)             0.04255      50.33302      17.96007      16.78929
     3  Na(23)             0.32536     384.90490     137.34364     128.39045
     4  Na(23)             0.00927      10.96129       3.91126       3.65629
     5  Na(23)             0.22411     265.13314      94.60610      88.43889
     6  Na(23)             0.01475      17.45259       6.22752       5.82156
     7  Na(23)            -0.02548     -30.14605     -10.75686     -10.05564
 --------------------------------------------------------
       Center         ----  Spin Dipole Couplings  ----
                      3XX-RR        3YY-RR        3ZZ-RR
 --------------------------------------------------------
     1   Atom       -0.004251      0.014740     -0.010490
     2   Atom       -0.004868      0.009236     -0.004368
     3   Atom        0.011995     -0.002781     -0.009214
     4   Atom        0.008210      0.005059     -0.013270
     5   Atom        0.004101     -0.004906      0.000806
     6   Atom       -0.003012      0.002025      0.000988
     7   Atom        0.000544     -0.000224     -0.000320
 --------------------------------------------------------
                        XY            XZ            YZ
 --------------------------------------------------------
     1   Atom       -0.004154     -0.002375     -0.011521
     2   Atom        0.003597     -0.000384     -0.000311
     3   Atom       -0.013621     -0.002236      0.000732
     4   Atom        0.023750     -0.015166     -0.013760
     5   Atom       -0.000926     -0.001837      0.004415
     6   Atom       -0.003199     -0.001955     -0.001791
     7   Atom        0.000360      0.000534      0.000248
 --------------------------------------------------------


 ---------------------------------------------------------------------------------
              Anisotropic Spin Dipole Couplings in Principal Axis System
 ---------------------------------------------------------------------------------

       Atom             a.u.   MegaHertz   Gauss  10(-4) cm-1        Axes

              Baa    -0.0161    -2.280    -0.814    -0.761  0.3041  0.3686  0.8784
     1 Na(23) Bbb    -0.0035    -0.487    -0.174    -0.163  0.9441  0.0068 -0.3297
              Bcc     0.0196     2.767     0.987     0.923 -0.1275  0.9296 -0.3459
 
              Baa    -0.0058    -0.818    -0.292    -0.273  0.9524 -0.2236  0.2074
     2 Na(23) Bbb    -0.0043    -0.609    -0.217    -0.203 -0.1955  0.0743  0.9779
              Bcc     0.0101     1.428     0.509     0.476  0.2340  0.9718 -0.0271
 
              Baa    -0.0110    -1.560    -0.557    -0.520  0.5072  0.8096  0.2953
     3 Na(23) Bbb    -0.0092    -1.304    -0.465    -0.435 -0.0874 -0.2926  0.9522
              Bcc     0.0203     2.864     1.022     0.955  0.8574 -0.5088 -0.0776
 
              Baa    -0.0214    -3.020    -1.077    -1.007  0.3153  0.1996  0.9278
     4 Na(23) Bbb    -0.0171    -2.421    -0.864    -0.808 -0.6615  0.7472  0.0640
              Bcc     0.0385     5.441     1.942     1.815  0.6804  0.6339 -0.3676
 
              Baa    -0.0073    -1.032    -0.368    -0.344 -0.0059  0.8778 -0.4789
     5 Na(23) Bbb     0.0016     0.219     0.078     0.073  0.6276  0.3761  0.6817
              Bcc     0.0058     0.813     0.290     0.271  0.7785 -0.2965 -0.5531
 
              Baa    -0.0056    -0.785    -0.280    -0.262  0.8240  0.4336  0.3647
     6 Na(23) Bbb     0.0017     0.241     0.086     0.081 -0.4698  0.1632  0.8676
              Bcc     0.0039     0.544     0.194     0.181 -0.3167  0.8862 -0.3381
 
              Baa    -0.0006    -0.084    -0.030    -0.028 -0.3347 -0.2770  0.9007
     7 Na(23) Bbb    -0.0004    -0.051    -0.018    -0.017 -0.4254  0.8973  0.1179
              Bcc     0.0010     0.135     0.048     0.045  0.8408  0.3437  0.4182
 

 ---------------------------------------------------------------------------------

 No NMR shielding tensors so no spin-rotation constants.
 Leave Link  601 at Wed Nov 29 04:12:34 2023, MaxMem=  1879048192 cpu:               2.2 elap:               0.2
 (Enter /home/sekinelabo/g16/l701.exe)
 ... and contract with generalized density number  0.
 Compute integral first derivatives.
 Leave Link  701 at Wed Nov 29 04:12:34 2023, MaxMem=  1879048192 cpu:               1.5 elap:               0.1
 (Enter /home/sekinelabo/g16/l702.exe)
 L702 exits ... SP integral derivatives will be done elsewhere.
 Leave Link  702 at Wed Nov 29 04:12:34 2023, MaxMem=  1879048192 cpu:               0.4 elap:               0.0
 (Enter /home/sekinelabo/g16/l703.exe)
 Integral derivatives from FoFJK, PRISM(SPDF).
 Compute integral first derivatives, UseDBF=F ICtDFT=           0.
 Calling FoFJK, ICntrl=      2127 FMM=F ISym2X=0 I1Cent= 0 IOpClX= 1 NMat=1 NMatS=1 NMatT=0.
 FoFJK:  IHMeth= 1 ICntrl=    2127 DoSepK=F KAlg= 0 I1Cent=           0 FoldK=F
 IRaf=         0 NMat=       1 IRICut=       1 DoRegI=T DoRafI=F ISym2E= 0 IDoP0=0 IntGTp=1.
 FoFCou: FMM=F IPFlag=           0 FMFlag=      100000 FMFlg1=         800
         NFxFlg=           0 DoJE=F BraDBF=F KetDBF=F FulRan=T
         wScrn=  0.000000 ICntrl=      2127 IOpCl=  1 I1Cent=           0 NGrid=           0
         NMat0=    1 NMatS0=      1 NMatT0=    0 NMatD0=    1 NMtDS0=    0 NMtDT0=    0
 Symmetry not used in FoFCou.
 Leave Link  703 at Wed Nov 29 04:12:36 2023, MaxMem=  1879048192 cpu:              26.9 elap:               1.8
 (Enter /home/sekinelabo/g16/l716.exe)
 Dipole        = 1.03871170D+00-1.62674663D-01-7.47894169D-02
 ***** Axes restored to original set *****
 -------------------------------------------------------------------
 Center     Atomic                   Forces (Hartrees/Bohr)
 Number     Number              X              Y              Z
 -------------------------------------------------------------------
      1       11          -0.004036023    0.000321988    0.001508085
      2       11           0.000849116    0.000937535    0.002001042
      3       11           0.002717804   -0.002454282    0.000874279
      4       11           0.002997767    0.000408641   -0.001703610
      5       11          -0.002274457    0.001301292   -0.001176782
      6       11          -0.000380663   -0.000476705   -0.001755265
      7       11           0.000126455   -0.000038469    0.000252251
 -------------------------------------------------------------------
 Cartesian Forces:  Max     0.004036023 RMS     0.001722227
 Z-matrix is all fixed cartesians, so copy forces.
 Force constants in Cartesian coordinates: 
                1             2             3             4             5 
      1  0.395937D-01
      2 -0.204028D-01  0.417120D-01
      3 -0.109865D-02  0.173771D-02  0.521035D-01
      4 -0.755100D-02  0.757619D-02  0.112198D-01  0.160882D-01
      5  0.325916D-02 -0.186762D-01 -0.137461D-01 -0.544403D-02  0.147912D-01
      6 -0.106289D-02 -0.210060D-02 -0.208296D-01 -0.217444D-03  0.906385D-02
      7 -0.266958D-01  0.958162D-02 -0.141228D-02 -0.132632D-01  0.230445D-02
      8  0.175683D-01 -0.124171D-01  0.263592D-02 -0.338156D-02 -0.124953D-02
      9  0.648805D-03 -0.439921D-03 -0.199458D-01 -0.124091D-01  0.369780D-02
     10  0.216851D-02  0.649012D-04 -0.497805D-02  0.459345D-02  0.386350D-04
     11  0.104232D-02  0.393862D-03  0.324405D-02  0.183904D-03  0.571374D-03
     12 -0.468788D-02  0.876856D-03 -0.300362D-02  0.111843D-02 -0.305309D-04
     13 -0.751550D-02  0.318014D-02 -0.373078D-02  0.132557D-03 -0.158219D-03
     14 -0.146697D-02 -0.110126D-01  0.612838D-02  0.106549D-02  0.456315D-02
     15  0.620063D-02 -0.740419D-04 -0.832446D-02  0.288367D-03  0.101493D-02
     16  0.000000D+00  0.000000D+00  0.000000D+00  0.000000D+00  0.000000D+00
     17  0.000000D+00  0.000000D+00  0.000000D+00  0.000000D+00  0.000000D+00
     18  0.000000D+00  0.000000D+00  0.000000D+00  0.000000D+00  0.000000D+00
     19  0.000000D+00  0.000000D+00  0.000000D+00  0.000000D+00  0.000000D+00
     20  0.000000D+00  0.000000D+00  0.000000D+00  0.000000D+00  0.000000D+00
     21  0.000000D+00  0.000000D+00  0.000000D+00  0.000000D+00  0.000000D+00
                6             7             8             9            10 
      6  0.354880D-01
      7  0.372506D-02  0.626955D-01
      8 -0.423864D-02 -0.157027D-01  0.158138D-01
      9 -0.134818D-01 -0.536929D-03  0.209579D-02  0.464756D-01
     10 -0.257684D-02 -0.204091D-01  0.240436D-02  0.804292D-02  0.449531D-01
     11 -0.207819D-03  0.248033D-02 -0.308838D-02 -0.305259D-02 -0.594289D-02
     12 -0.643708D-03 -0.742592D-02  0.395064D-03 -0.155399D-01  0.774573D-02
     13  0.132123D-03 -0.232745D-02 -0.888434D-03  0.425432D-02 -0.313059D-01
     14 -0.251680D-02  0.133629D-02  0.941180D-03 -0.230109D-02  0.343500D-02
     15 -0.532872D-03  0.565007D-02 -0.888139D-03  0.249190D-02 -0.823375D-02
     16  0.000000D+00  0.000000D+00  0.000000D+00  0.000000D+00  0.000000D+00
     17  0.000000D+00  0.000000D+00  0.000000D+00  0.000000D+00  0.000000D+00
     18  0.000000D+00  0.000000D+00  0.000000D+00  0.000000D+00  0.000000D+00
     19  0.000000D+00  0.000000D+00  0.000000D+00  0.000000D+00  0.000000D+00
     20  0.000000D+00  0.000000D+00  0.000000D+00  0.000000D+00  0.000000D+00
     21  0.000000D+00  0.000000D+00  0.000000D+00  0.000000D+00  0.000000D+00
               11            12            13            14            15 
     11  0.317669D-02
     12 -0.202716D-02  0.336476D-01
     13  0.223634D-02  0.324965D-02  0.410163D-01
     14 -0.105355D-02  0.785768D-03 -0.436982D-02  0.656179D-02
     15  0.204351D-02 -0.144604D-01 -0.390532D-02 -0.209626D-02  0.208259D-01
     16  0.000000D+00  0.000000D+00  0.000000D+00  0.000000D+00  0.000000D+00
     17  0.000000D+00  0.000000D+00  0.000000D+00  0.000000D+00  0.000000D+00
     18  0.000000D+00  0.000000D+00  0.000000D+00  0.000000D+00  0.000000D+00
     19  0.000000D+00  0.000000D+00  0.000000D+00  0.000000D+00  0.000000D+00
     20  0.000000D+00  0.000000D+00  0.000000D+00  0.000000D+00  0.000000D+00
     21  0.000000D+00  0.000000D+00  0.000000D+00  0.000000D+00  0.000000D+00
               16            17            18            19            20 
     16  0.656948D-05
     17 -0.424032D-03  0.273694D-01
     18 -0.184995D-03  0.119407D-01  0.520944D-02
     19 -0.656948D-05  0.424032D-03  0.184995D-03  0.656948D-05
     20  0.424032D-03 -0.273694D-01 -0.119407D-01 -0.424032D-03  0.273694D-01
     21  0.184995D-03 -0.119407D-01 -0.520944D-02 -0.184995D-03  0.119407D-01
               21 
     21  0.520944D-02
 Leave Link  716 at Wed Nov 29 04:12:36 2023, MaxMem=  1879048192 cpu:               0.4 elap:               0.0
 (Enter /home/sekinelabo/g16/l103.exe)

 GradGradGradGradGradGradGradGradGradGradGradGradGradGradGradGradGradGrad
 Berny optimization.
 Search for a local minimum.
 Step number   1 out of a maximum of    2
 All quantities printed in internal units (Hartrees-Bohrs-Radians)
 Second derivative matrix not updated -- first step.
 ITU=  0
     Eigenvalues ---   -0.00000   0.00000   0.00000   0.00000   0.00032
     Eigenvalues ---    0.00763   0.01693   0.02537   0.04125   0.05707
     Eigenvalues ---    0.06238   0.06517   0.07022   0.08618   0.10635
 Eigenvalue     1 is  -2.22D-16 should be greater than     0.000000 Eigenvector:
                          X6        X4        Z7        X5        Y5
   1                    0.59922  -0.30297   0.28892  -0.28082  -0.23828
                          Z5        Y6        Y4        X2        Z6
   1                   -0.23705   0.23693  -0.20623   0.20239   0.18892
 Eigenvalue     2 is   0.00D+00 Eigenvector:
                          Z6        Z7        Y6        Y7        Z5
   1                    0.76799  -0.47753  -0.34835   0.19494  -0.06628
                          Z2        Z1        Z4        Z3        Y2
   1                   -0.05969  -0.05870  -0.05442  -0.05137   0.04114
 Eigenvalue     3 is   6.66D-16 Eigenvector:
                          Z7        Z6        X6        Z3        Z4
   1                    0.57859   0.38071  -0.36877  -0.26027  -0.22928
                          Y6        X4        Z1        Z2        X5
   1                    0.20248   0.18630  -0.18566  -0.17560   0.17325
 Eigenvalue     4 is   1.23D-06 Eigenvector:
                          Y4        Y5        Y2        X6        Y7
   1                    0.50616   0.45490  -0.42598   0.31361  -0.28634
                          Y6        Z1        Z7        X7        Z5
   1                   -0.22516  -0.19819   0.16994  -0.15877  -0.09920
 Quadratic step=1.877D+01 exceeds max=3.000D-01 adjusted using Lamda=-7.463D-03.
 Angle between NR and scaled steps=  33.34 degrees.
 Angle between quadratic step and forces=  47.54 degrees.
 Linear search not attempted -- first point.
 B after Tr=     0.000000    0.000000   -0.000000
         Rot=    1.000000   -0.000000    0.000000    0.000000 Ang=   0.00 deg.
 Variable       Old X    -DE/DX   Delta X   Delta X   Delta X     New X
                                 (Linear)    (Quad)   (Total)
    X1       27.58547  -0.00404   0.00000  -0.06736  -0.06736  27.51810
    Y1       29.33649   0.00032   0.00000  -0.01614  -0.01614  29.32034
    Z1       22.83451   0.00151   0.00000   0.08084   0.08084  22.91534
    X2       29.14411   0.00085   0.00000   0.00716   0.00716  29.15128
    Y2       26.21409   0.00094   0.00000   0.02586   0.02586  26.23995
    Z2       17.74685   0.00200   0.00000   0.09695   0.09695  17.84381
    X3       32.66089   0.00272   0.00000   0.01857   0.01857  32.67947
    Y3       26.52212  -0.00245   0.00000  -0.04784  -0.04784  26.47428
    Z3       24.03788   0.00087   0.00000   0.05896   0.05896  24.09684
    X4       30.99737   0.00300   0.00000   0.07685   0.07685  31.07421
    Y4       26.99682   0.00041   0.00000   0.06191   0.06191  27.05873
    Z4       30.63359  -0.00170   0.00000  -0.03019  -0.03019  30.60340
    X5       25.23408  -0.00227   0.00000  -0.00361  -0.00361  25.23047
    Y5       27.72209   0.00130   0.00000   0.04457   0.04457  27.76667
    Z5       29.89755  -0.00118   0.00000  -0.00799  -0.00799  29.88956
    X6       28.73272  -0.00038   0.00000  -0.05308  -0.05308  28.67964
    Y6       30.43536  -0.00048   0.00000   0.00183   0.00183  30.43720
    Z6       37.76183  -0.00176   0.00000  -0.20377  -0.20377  37.55806
    X7       28.64995   0.00013   0.00000   0.02146   0.02146  28.67141
    Y7       35.77781  -0.00004   0.00000  -0.07020  -0.07020  35.70761
    Z7       40.09262   0.00025   0.00000   0.00520   0.00520  40.09782
         Item               Value     Threshold  Converged?
 Maximum Force            0.004036     0.000450     NO 
 RMS     Force            0.001722     0.000300     NO 
 Maximum Displacement     0.203767     0.001800     NO 
 RMS     Displacement     0.065477     0.001200     NO 
 Predicted change in Energy=-1.138435D-03
 GradGradGradGradGradGradGradGradGradGradGradGradGradGradGradGradGradGrad

 Leave Link  103 at Wed Nov 29 04:12:36 2023, MaxMem=  1879048192 cpu:               0.2 elap:               0.0
 (Enter /home/sekinelabo/g16/l9999.exe)
 1\1\GINC-SEKINELABO-XA7R-R37\Force\UB3LYP\6-311+G(d)\Na7(2)\SEKINELABO
 \29-Nov-2023\0\\#P B3LYP/6-311+g(d) force\\DPGEN\\0,2\Na,14.5976,15.52
 42,12.0835\Na,15.4224,13.8719,9.39123\Na,17.2834,14.0349,12.7203\Na,16
 .4031,14.2861,16.2106\Na,13.3533,14.6699,15.8211\Na,15.2047,16.1057,19
 .9827\Na,15.1609,18.9328,21.2161\\Version=ES64L-G16RevB.01\State=2-A\H
 F=-1136.1118737\S2=0.771414\S2-1=0.\S2A=0.750154\RMSD=6.029e-09\RMSF=1
 .722e-03\Dipole=-0.0558,-0.2014612,-1.0330916\Quadrupole=-6.0459039,0.
 6841589,5.361745,-0.7762323,-0.7396985,5.0793585\PG=C01 [X(Na7)]\\@


 NATURE GIVES TO EVERY TIME AND SEASON SOME BEAUTY OF ITS OWN.

                                                    --DICKENS
 Job cpu time:       0 days  0 hours  3 minutes 21.6 seconds.
 Elapsed time:       0 days  0 hours  0 minutes 17.8 seconds.
 File lengths (MBytes):  RWF=     32 Int=      0 D2E=      0 Chk=      4 Scr=      1
 Normal termination of Gaussian 16 at Wed Nov 29 04:12:36 2023.
