ITEM: TIMESTEP
3710
ITEM: NUMBER OF ATOMS
7
ITEM: BOX BOUNDS xy xz yz ff ff ff
0.0000000000000000e+00 2.3155945151000001e+01 0.0000000000000000e+00
0.0000000000000000e+00 2.3155945151000001e+01 0.0000000000000000e+00
0.0000000000000000e+00 2.3155945151000001e+01 0.0000000000000000e+00
ITEM: ATOMS id type x y z fx fy fz
6 1 13.3255 11.0631 10.3946 -0.0305882 -0.0399482 0.0521003
2 1 9.14287 14.2066 9.49373 -0.00146861 -0.0736284 -0.0355369
1 1 9.87489 10.4981 9.68705 -0.0153961 0.126051 -0.039048
7 1 13.9539 8.50702 13.2416 -0.00245507 0.117051 -0.0527767
5 1 10.8783 9.5652 12.6457 0.035118 0.0607525 0.0609156
3 1 10.4679 14.2573 12.402 0.0123703 -0.0744878 -0.00463798
4 1 13.4025 12.9485 13.181 0.00241963 -0.11579 0.0189837
