ITEM: TIMESTEP
1530
ITEM: NUMBER OF ATOMS
7
ITEM: BOX BOUNDS xy xz yz ff ff ff
0.0000000000000000e+00 2.5473159866800000e+01 0.0000000000000000e+00
0.0000000000000000e+00 2.5473159866800000e+01 0.0000000000000000e+00
0.0000000000000000e+00 2.5473159866800000e+01 0.0000000000000000e+00
ITEM: ATOMS id type x y z fx fy fz
4 1 12.6779 12.0271 10.8325 -0.0563184 -0.0853615 0.00565052
5 1 15.2771 13.6521 9.63533 -0.0351156 0.059996 0.0592588
7 1 11.3566 9.88906 13.4781 0.0379196 0.0234297 -0.00446745
3 1 12.7013 11.4056 16.2069 0.00699324 0.0130968 -0.0356198
6 1 12.1361 15.2687 11.5974 -0.0342449 0.084267 -0.129694
1 1 14.274 13.741 13.4428 0.0944709 -0.1052 0.0937708
2 1 10.733 13.1724 13.9631 -0.0137048 0.00977204 0.0111013
