ITEM: TIMESTEP
9110
ITEM: NUMBER OF ATOMS
7
ITEM: BOX BOUNDS xy xz yz ff ff ff
0.0000000000000000e+00 2.4269985606700001e+01 0.0000000000000000e+00
0.0000000000000000e+00 2.4269985606700001e+01 0.0000000000000000e+00
0.0000000000000000e+00 2.4269985606700001e+01 0.0000000000000000e+00
ITEM: ATOMS id type x y z fx fy fz
6 1 14.3787 9.97341 10.6004 0.0379882 -0.0556243 0.0262933
5 1 9.48928 14.7537 10.3576 0.0153837 -0.0999167 0.17691
2 1 12.8046 14.8858 10.3906 -0.0125202 0.136125 -0.0611459
7 1 15.7468 13.4098 10.7411 0.00055077 -0.0324003 -0.0125714
4 1 10.4023 10.2621 15.7061 -0.0420831 0.111033 -0.107944
1 1 12.9373 8.90314 13.2798 0.0426026 -0.0683554 0.0016156
3 1 9.18603 12.757 13.8692 -0.0419221 0.00913823 -0.0231568
