 Set GAUSS_MDEF to "14GB".
 Entering Gaussian System, Link 0=g16
 Initial command:
 /home/sekinelabo/g16/l1.exe "/home/sekinelabo/g16temp/Gau-353826.inp" -scrdir="/home/sekinelabo/g16temp/"
 Entering Link 1 = /home/sekinelabo/g16/l1.exe PID=    353828.
  
 Copyright (c) 1988-2017, Gaussian, Inc.  All Rights Reserved.
  
 This is part of the Gaussian(R) 16 program.  It is based on
 the Gaussian(R) 09 system (copyright 2009, Gaussian, Inc.),
 the Gaussian(R) 03 system (copyright 2003, Gaussian, Inc.),
 the Gaussian(R) 98 system (copyright 1998, Gaussian, Inc.),
 the Gaussian(R) 94 system (copyright 1995, Gaussian, Inc.),
 the Gaussian 92(TM) system (copyright 1992, Gaussian, Inc.),
 the Gaussian 90(TM) system (copyright 1990, Gaussian, Inc.),
 the Gaussian 88(TM) system (copyright 1988, Gaussian, Inc.),
 the Gaussian 86(TM) system (copyright 1986, Carnegie Mellon
 University), and the Gaussian 82(TM) system (copyright 1983,
 Carnegie Mellon University). Gaussian is a federally registered
 trademark of Gaussian, Inc.
  
 This software contains proprietary and confidential information,
 including trade secrets, belonging to Gaussian, Inc.
  
 This software is provided under written license and may be
 used, copied, transmitted, or stored only in accord with that
 written license.
  
 The following legend is applicable only to US Government
 contracts under FAR:
  
                    RESTRICTED RIGHTS LEGEND
  
 Use, reproduction and disclosure by the US Government is
 subject to restrictions as set forth in subparagraphs (a)
 and (c) of the Commercial Computer Software - Restricted
 Rights clause in FAR 52.227-19.
  
 Gaussian, Inc.
 340 Quinnipiac St., Bldg. 40, Wallingford CT 06492
  
  
 ---------------------------------------------------------------
 Warning -- This program may not be used in any manner that
 competes with the business of Gaussian, Inc. or will provide
 assistance to any competitor of Gaussian, Inc.  The licensee
 of this program is prohibited from giving any competitor of
 Gaussian, Inc. access to this program.  By using this program,
 the user acknowledges that Gaussian, Inc. is engaged in the
 business of creating and licensing software in the field of
 computational chemistry and represents and warrants to the
 licensee that it is not a competitor of Gaussian, Inc. and that
 it will not use this program in any manner prohibited above.
 ---------------------------------------------------------------
  

 Cite this work as:
 Gaussian 16, Revision B.01,
 M. J. Frisch, G. W. Trucks, H. B. Schlegel, G. E. Scuseria, 
 M. A. Robb, J. R. Cheeseman, G. Scalmani, V. Barone, 
 G. A. Petersson, H. Nakatsuji, X. Li, M. Caricato, A. V. Marenich, 
 J. Bloino, B. G. Janesko, R. Gomperts, B. Mennucci, H. P. Hratchian, 
 J. V. Ortiz, A. F. Izmaylov, J. L. Sonnenberg, D. Williams-Young, 
 F. Ding, F. Lipparini, F. Egidi, J. Goings, B. Peng, A. Petrone, 
 T. Henderson, D. Ranasinghe, V. G. Zakrzewski, J. Gao, N. Rega, 
 G. Zheng, W. Liang, M. Hada, M. Ehara, K. Toyota, R. Fukuda, 
 J. Hasegawa, M. Ishida, T. Nakajima, Y. Honda, O. Kitao, H. Nakai, 
 T. Vreven, K. Throssell, J. A. Montgomery, Jr., J. E. Peralta, 
 F. Ogliaro, M. J. Bearpark, J. J. Heyd, E. N. Brothers, K. N. Kudin, 
 V. N. Staroverov, T. A. Keith, R. Kobayashi, J. Normand, 
 K. Raghavachari, A. P. Rendell, J. C. Burant, S. S. Iyengar, 
 J. Tomasi, M. Cossi, J. M. Millam, M. Klene, C. Adamo, R. Cammi, 
 J. W. Ochterski, R. L. Martin, K. Morokuma, O. Farkas, 
 J. B. Foresman, and D. J. Fox, Gaussian, Inc., Wallingford CT, 2016.
 
 ******************************************
 Gaussian 16:  ES64L-G16RevB.01 20-Dec-2017
                29-Nov-2023 
 ******************************************
 %nproc=15
 Will use up to   15 processors via shared memory.
 -------------------------
 #P B3LYP/6-311+g(d) force
 -------------------------
 1/10=7,30=1,38=1/1,3;
 2/12=2,17=6,18=5,40=1/2;
 3/5=4,6=6,7=11,11=2,25=1,30=1,71=1,74=-5/1,2,3;
 4//1;
 5/5=2,38=5/2;
 6/7=2,8=2,9=2,10=2,28=1/1;
 7/29=1/1,2,3,16;
 1/10=7,30=1/3;
 99//99;
 Leave Link    1 at Wed Nov 29 03:26:20 2023, MaxMem=           0 cpu:               0.3 elap:               0.0
 (Enter /home/sekinelabo/g16/l101.exe)
 -----
 DPGEN
 -----
 Symbolic Z-matrix:
 Charge =  0 Multiplicity = 2
 Na                    15.4756   15.5868   12.7139 
 Na                    15.9608   12.4785   11.0549 
 Na                    18.6568   13.8992   12.3546 
 Na                    17.5043   15.9234   15.2718 
 Na                    13.6001   16.1981   15.7299 
 Na                    12.7075   17.6369   18.7464 
 Na                    13.5204   15.7025   21.554 
 
 ITRead=  0  0  0  0  0  0  0
 MicOpt= -1 -1 -1 -1 -1 -1 -1
 NAtoms=      7 NQM=        7 NQMF=       0 NMMI=      0 NMMIF=      0
                NMic=       0 NMicF=      0.
                    Isotopes and Nuclear Properties:
 (Nuclear quadrupole moments (NQMom) in fm**2, nuclear magnetic moments (NMagM)
  in nuclear magnetons)

  Atom         1           2           3           4           5           6           7
 IAtWgt=          23          23          23          23          23          23          23
 AtmWgt=  22.9897697  22.9897697  22.9897697  22.9897697  22.9897697  22.9897697  22.9897697
 NucSpn=           3           3           3           3           3           3           3
 AtZEff=  -0.0000000  -0.0000000  -0.0000000  -0.0000000  -0.0000000  -0.0000000  -0.0000000
 NQMom=   10.4000000  10.4000000  10.4000000  10.4000000  10.4000000  10.4000000  10.4000000
 NMagM=    2.2175200   2.2175200   2.2175200   2.2175200   2.2175200   2.2175200   2.2175200
 AtZNuc=  11.0000000  11.0000000  11.0000000  11.0000000  11.0000000  11.0000000  11.0000000
 Leave Link  101 at Wed Nov 29 03:26:20 2023, MaxMem=  1879048192 cpu:               2.3 elap:               0.2
 (Enter /home/sekinelabo/g16/l103.exe)

 GradGradGradGradGradGradGradGradGradGradGradGradGradGradGradGradGradGrad
 Berny optimization.
 Initialization pass.
 Trust Radius=3.00D-01 FncErr=1.00D-07 GrdErr=1.00D-07 EigMax=2.50D+02 EigMin=1.00D-04
 Number of steps in this run=      2 maximum allowed number of steps=      2.
 GradGradGradGradGradGradGradGradGradGradGradGradGradGradGradGradGradGrad

 Leave Link  103 at Wed Nov 29 03:26:20 2023, MaxMem=  1879048192 cpu:               0.2 elap:               0.0
 (Enter /home/sekinelabo/g16/l202.exe)
                          Input orientation:                          
 ---------------------------------------------------------------------
 Center     Atomic      Atomic             Coordinates (Angstroms)
 Number     Number       Type             X           Y           Z
 ---------------------------------------------------------------------
      1         11           0       15.475600   15.586800   12.713900
      2         11           0       15.960800   12.478500   11.054900
      3         11           0       18.656800   13.899200   12.354600
      4         11           0       17.504300   15.923400   15.271800
      5         11           0       13.600100   16.198100   15.729900
      6         11           0       12.707500   17.636900   18.746400
      7         11           0       13.520400   15.702500   21.554000
 ---------------------------------------------------------------------
                    Distance matrix (angstroms):
                    1          2          3          4          5
     1  Na   0.000000
     2  Na   3.556575   0.000000
     3  Na   3.618995   3.313008   0.000000
     4  Na   3.282038   5.659680   3.733055   0.000000
     5  Na   3.603810   6.423702   6.499831   3.940570   0.000000
     6  Na   6.946679   9.815917   9.498404   6.165891   3.459213
     7  Na   9.054477  11.250815  10.689409   7.442197   5.845692
                    6          7
     6  Na   0.000000
     7  Na   3.505043   0.000000
 Stoichiometry    Na7(2)
 Framework group  C1[X(Na7)]
 Deg. of freedom    15
 Full point group                 C1      NOp   1
 Largest Abelian subgroup         C1      NOp   1
 Largest concise Abelian subgroup C1      NOp   1
                         Standard orientation:                         
 ---------------------------------------------------------------------
 Center     Atomic      Atomic             Coordinates (Angstroms)
 Number     Number       Type             X           Y           Z
 ---------------------------------------------------------------------
      1         11           0        2.243619   -1.144414   -0.813320
      2         11           0        4.807568   -1.087433    1.650854
      3         11           0        4.373763    1.692549   -0.098299
      4         11           0        0.780165    1.778726   -1.105436
      5         11           0       -1.306827   -1.460974   -0.282693
      6         11           0       -4.701957   -1.024797   -0.781684
      7         11           0       -6.196331    1.246344    1.430577
 ---------------------------------------------------------------------
 Rotational constants (GHZ):           1.0663612           0.1871645           0.1782081
 Leave Link  202 at Wed Nov 29 03:26:20 2023, MaxMem=  1879048192 cpu:               0.0 elap:               0.0
 (Enter /home/sekinelabo/g16/l301.exe)
 Standard basis: 6-311+G(d) (5D, 7F)
 Ernie: Thresh=  0.10000D-02 Tol=  0.10000D-05 Strict=F.
 There are   217 symmetry adapted cartesian basis functions of A   symmetry.
 There are   210 symmetry adapted basis functions of A   symmetry.
   210 basis functions,   350 primitive gaussians,   217 cartesian basis functions
    39 alpha electrons       38 beta electrons
       nuclear repulsion energy       264.7883840760 Hartrees.
 IExCor=  402 DFT=T Ex+Corr=B3LYP ExCW=0 ScaHFX=  0.200000
 ScaDFX=  0.800000  0.720000  1.000000  0.810000 ScalE2=  1.000000  1.000000
 IRadAn=      5 IRanWt=     -1 IRanGd=            0 ICorTp=0 IEmpDi=  4
 NAtoms=    7 NActive=    7 NUniq=    7 SFac= 1.00D+00 NAtFMM=   60 NAOKFM=F Big=F
 Integral buffers will be    131072 words long.
 Raffenetti 2 integral format.
 Two-electron integral symmetry is turned on.
 Leave Link  301 at Wed Nov 29 03:26:20 2023, MaxMem=  1879048192 cpu:               0.5 elap:               0.0
 (Enter /home/sekinelabo/g16/l302.exe)
 NPDir=0 NMtPBC=     1 NCelOv=     1 NCel=       1 NClECP=     1 NCelD=      1
         NCelK=      1 NCelE2=     1 NClLst=     1 CellRange=     0.0.
 One-electron integrals computed using PRISM.
 One-electron integral symmetry used in STVInt
 NBasis=   210 RedAO= T EigKep=  8.52D-06  NBF=   210
 NBsUse=   210 1.00D-06 EigRej= -1.00D+00 NBFU=   210
 Precomputing XC quadrature grid using
 IXCGrd= 4 IRadAn=           5 IRanWt=          -1 IRanGd=           0 AccXCQ= 0.00D+00.
 Generated NRdTot=       0 NPtTot=           0 NUsed=           0 NTot=          32
 NSgBfM=   200   200   200   200   200 MxSgAt=     7 MxSgA2=     7.
 Leave Link  302 at Wed Nov 29 03:26:21 2023, MaxMem=  1879048192 cpu:               2.0 elap:               0.1
 (Enter /home/sekinelabo/g16/l303.exe)
 DipDrv:  MaxL=1.
 Leave Link  303 at Wed Nov 29 03:26:21 2023, MaxMem=  1879048192 cpu:               0.5 elap:               0.0
 (Enter /home/sekinelabo/g16/l401.exe)
 ExpMin= 7.60D-03 ExpMax= 3.62D+04 ExpMxC= 1.21D+03 IAcc=3 IRadAn=         5 AccDes= 0.00D+00
 Harris functional with IExCor=  402 and IRadAn=       5 diagonalized for initial guess.
 HarFok:  IExCor=  402 AccDes= 0.00D+00 IRadAn=         5 IDoV= 1 UseB2=F ITyADJ=14
 ICtDFT=  3500011 ScaDFX=  1.000000  1.000000  1.000000  1.000000
 FoFCou: FMM=F IPFlag=           0 FMFlag=      100000 FMFlg1=           0
         NFxFlg=           0 DoJE=T BraDBF=F KetDBF=T FulRan=T
         wScrn=  0.000000 ICntrl=       500 IOpCl=  0 I1Cent=   200000004 NGrid=           0
         NMat0=    1 NMatS0=      1 NMatT0=    0 NMatD0=    1 NMtDS0=    0 NMtDT0=    0
 Petite list used in FoFCou.
 Harris En= -1135.88403132439    
 JPrj=0 DoOrth=F DoCkMO=F.
 Initial guess <Sx>= 0.0000 <Sy>= 0.0000 <Sz>= 0.5000 <S**2>= 0.7500 S= 0.5000
 Leave Link  401 at Wed Nov 29 03:26:21 2023, MaxMem=  1879048192 cpu:               4.1 elap:               0.3
 (Enter /home/sekinelabo/g16/l502.exe)
 Keep R1 and R2 ints in memory in canonical form, NReq=506573307.
 FoFCou: FMM=F IPFlag=           0 FMFlag=           0 FMFlg1=           0
         NFxFlg=           0 DoJE=F BraDBF=F KetDBF=F FulRan=T
         wScrn=  0.000000 ICntrl=       600 IOpCl=  0 I1Cent=           0 NGrid=           0
         NMat0=    1 NMatS0=  22155 NMatT0=    0 NMatD0=    1 NMtDS0=    0 NMtDT0=    0
 Symmetry not used in FoFCou.
 Two-electron integral symmetry not used.
 UHF open shell SCF:
 Using DIIS extrapolation, IDIIS=  1040.
 NGot=  1879048192 LenX=  1388082593 LenY=  1388035063
 Requested convergence on RMS density matrix=1.00D-08 within 128 cycles.
 Requested convergence on MAX density matrix=1.00D-06.
 Requested convergence on             energy=1.00D-06.
 No special actions if energy rises.

 Cycle   1  Pass 1  IDiag  1:
 E= -1136.08776074896    
 DIIS: error= 8.83D-03 at cycle   1 NSaved=   1.
 NSaved= 1 IEnMin= 1 EnMin= -1136.08776074896     IErMin= 1 ErrMin= 8.83D-03
 ErrMax= 8.83D-03  0.00D+00 EMaxC= 1.00D-01 BMatC= 1.82D-01 BMatP= 1.82D-01
 IDIUse=3 WtCom= 9.12D-01 WtEn= 8.83D-02
 Coeff-Com:  0.100D+01
 Coeff-En:   0.100D+01
 Coeff:      0.100D+01
 Gap=     0.032 Goal=   None    Shift=    0.000
 Gap=     0.036 Goal=   None    Shift=    0.000
 GapD=    0.032 DampG=0.250 DampE=1.000 DampFc=0.2500 IDamp=-1.
 Damping current iteration by 2.50D-01
 RMSDP=5.32D-03 MaxDP=4.91D-01              OVMax= 1.86D-01

 Cycle   2  Pass 1  IDiag  1:
 E= -1136.09606485741     Delta-E=       -0.008304108445 Rises=F Damp=T
 DIIS: error= 6.29D-03 at cycle   2 NSaved=   2.
 NSaved= 2 IEnMin= 2 EnMin= -1136.09606485741     IErMin= 2 ErrMin= 6.29D-03
 ErrMax= 6.29D-03  0.00D+00 EMaxC= 1.00D-01 BMatC= 7.08D-02 BMatP= 1.82D-01
 IDIUse=3 WtCom= 9.37D-01 WtEn= 6.29D-02
 Coeff-Com: -0.130D+01 0.230D+01
 Coeff-En:   0.000D+00 0.100D+01
 Coeff:     -0.122D+01 0.222D+01
 Gap=     0.038 Goal=   None    Shift=    0.000
 Gap=     0.038 Goal=   None    Shift=    0.000
 RMSDP=4.50D-03 MaxDP=4.22D-01 DE=-8.30D-03 OVMax= 1.86D-01

 Cycle   3  Pass 1  IDiag  1:
 E= -1136.11074819899     Delta-E=       -0.014683341582 Rises=F Damp=F
 DIIS: error= 2.68D-03 at cycle   3 NSaved=   3.
 NSaved= 3 IEnMin= 3 EnMin= -1136.11074819899     IErMin= 3 ErrMin= 2.68D-03
 ErrMax= 2.68D-03  0.00D+00 EMaxC= 1.00D-01 BMatC= 1.90D-03 BMatP= 7.08D-02
 IDIUse=3 WtCom= 9.73D-01 WtEn= 2.68D-02
 Coeff-Com: -0.182D+00 0.308D+00 0.875D+00
 Coeff-En:   0.000D+00 0.000D+00 0.100D+01
 Coeff:     -0.178D+00 0.300D+00 0.878D+00
 Gap=     0.035 Goal=   None    Shift=    0.000
 Gap=     0.043 Goal=   None    Shift=    0.000
 RMSDP=2.00D-03 MaxDP=1.41D-01 DE=-1.47D-02 OVMax= 1.50D-01

 Cycle   4  Pass 1  IDiag  1:
 E= -1136.10755206781     Delta-E=        0.003196131177 Rises=F Damp=F
 DIIS: error= 3.27D-03 at cycle   4 NSaved=   4.
 NSaved= 4 IEnMin= 3 EnMin= -1136.11074819899     IErMin= 3 ErrMin= 2.68D-03
 ErrMax= 3.27D-03  0.00D+00 EMaxC= 1.00D-01 BMatC= 4.12D-03 BMatP= 1.90D-03
 IDIUse=3 WtCom= 1.49D-01 WtEn= 8.51D-01
 Coeff-Com: -0.166D-01 0.230D-01 0.596D+00 0.398D+00
 Coeff-En:   0.000D+00 0.000D+00 0.641D+00 0.359D+00
 Coeff:     -0.248D-02 0.342D-02 0.634D+00 0.365D+00
 Gap=     0.037 Goal=   None    Shift=    0.000
 Gap=     0.040 Goal=   None    Shift=    0.000
 RMSDP=1.03D-03 MaxDP=7.93D-02 DE= 3.20D-03 OVMax= 1.03D-01

 Cycle   5  Pass 1  IDiag  1:
 E= -1136.11370107971     Delta-E=       -0.006149011896 Rises=F Damp=F
 DIIS: error= 4.88D-04 at cycle   5 NSaved=   5.
 NSaved= 5 IEnMin= 5 EnMin= -1136.11370107971     IErMin= 5 ErrMin= 4.88D-04
 ErrMax= 4.88D-04  0.00D+00 EMaxC= 1.00D-01 BMatC= 7.69D-05 BMatP= 1.90D-03
 IDIUse=3 WtCom= 9.95D-01 WtEn= 4.88D-03
 Coeff-Com:  0.711D-02-0.109D-01 0.181D+00 0.301D-01 0.793D+00
 Coeff-En:   0.000D+00 0.000D+00 0.000D+00 0.000D+00 0.100D+01
 Coeff:      0.708D-02-0.108D-01 0.180D+00 0.300D-01 0.794D+00
 Gap=     0.037 Goal=   None    Shift=    0.000
 Gap=     0.038 Goal=   None    Shift=    0.000
 RMSDP=2.92D-04 MaxDP=1.63D-02 DE=-6.15D-03 OVMax= 1.53D-02

 Cycle   6  Pass 1  IDiag  1:
 E= -1136.11381745868     Delta-E=       -0.000116378971 Rises=F Damp=F
 DIIS: error= 1.95D-04 at cycle   6 NSaved=   6.
 NSaved= 6 IEnMin= 6 EnMin= -1136.11381745868     IErMin= 6 ErrMin= 1.95D-04
 ErrMax= 1.95D-04  0.00D+00 EMaxC= 1.00D-01 BMatC= 1.40D-05 BMatP= 7.69D-05
 IDIUse=3 WtCom= 9.98D-01 WtEn= 1.95D-03
 Coeff-Com:  0.543D-02-0.801D-02-0.954D-02-0.595D-01 0.449D+00 0.622D+00
 Coeff-En:   0.000D+00 0.000D+00 0.000D+00 0.000D+00 0.000D+00 0.100D+01
 Coeff:      0.542D-02-0.799D-02-0.952D-02-0.594D-01 0.448D+00 0.623D+00
 Gap=     0.037 Goal=   None    Shift=    0.000
 Gap=     0.039 Goal=   None    Shift=    0.000
 RMSDP=1.08D-04 MaxDP=4.35D-03 DE=-1.16D-04 OVMax= 1.21D-02

 Cycle   7  Pass 1  IDiag  1:
 E= -1136.11385099611     Delta-E=       -0.000033537432 Rises=F Damp=F
 DIIS: error= 1.18D-04 at cycle   7 NSaved=   7.
 NSaved= 7 IEnMin= 7 EnMin= -1136.11385099611     IErMin= 7 ErrMin= 1.18D-04
 ErrMax= 1.18D-04  0.00D+00 EMaxC= 1.00D-01 BMatC= 3.35D-06 BMatP= 1.40D-05
 IDIUse=3 WtCom= 9.99D-01 WtEn= 1.18D-03
 Coeff-Com:  0.536D-03-0.816D-03-0.500D-01-0.343D-01-0.200D-02 0.315D+00
 Coeff-Com:  0.771D+00
 Coeff-En:   0.000D+00 0.000D+00 0.000D+00 0.000D+00 0.000D+00 0.000D+00
 Coeff-En:   0.100D+01
 Coeff:      0.535D-03-0.815D-03-0.500D-01-0.342D-01-0.199D-02 0.315D+00
 Coeff:      0.772D+00
 Gap=     0.037 Goal=   None    Shift=    0.000
 Gap=     0.039 Goal=   None    Shift=    0.000
 RMSDP=9.61D-05 MaxDP=4.69D-03 DE=-3.35D-05 OVMax= 8.90D-03

 Cycle   8  Pass 1  IDiag  1:
 E= -1136.11386689861     Delta-E=       -0.000015902501 Rises=F Damp=F
 DIIS: error= 6.89D-05 at cycle   8 NSaved=   8.
 NSaved= 8 IEnMin= 8 EnMin= -1136.11386689861     IErMin= 8 ErrMin= 6.89D-05
 ErrMax= 6.89D-05  0.00D+00 EMaxC= 1.00D-01 BMatC= 8.88D-07 BMatP= 3.35D-06
 IDIUse=1 WtCom= 1.00D+00 WtEn= 0.00D+00
 Coeff-Com:  0.360D-04 0.623D-04-0.174D-01-0.562D-03-0.930D-01-0.497D-01
 Coeff-Com:  0.166D+00 0.995D+00
 Coeff:      0.360D-04 0.623D-04-0.174D-01-0.562D-03-0.930D-01-0.497D-01
 Coeff:      0.166D+00 0.995D+00
 Gap=     0.038 Goal=   None    Shift=    0.000
 Gap=     0.039 Goal=   None    Shift=    0.000
 RMSDP=7.03D-05 MaxDP=3.54D-03 DE=-1.59D-05 OVMax= 7.41D-03

 Cycle   9  Pass 1  IDiag  1:
 E= -1136.11387650844     Delta-E=       -0.000009609833 Rises=F Damp=F
 DIIS: error= 5.75D-05 at cycle   9 NSaved=   9.
 NSaved= 9 IEnMin= 9 EnMin= -1136.11387650844     IErMin= 9 ErrMin= 5.75D-05
 ErrMax= 5.75D-05  0.00D+00 EMaxC= 1.00D-01 BMatC= 5.06D-07 BMatP= 8.88D-07
 IDIUse=1 WtCom= 1.00D+00 WtEn= 0.00D+00
 Coeff-Com:  0.345D-03-0.401D-03 0.822D-02 0.969D-02-0.266D-01-0.152D+00
 Coeff-Com: -0.227D+00 0.433D+00 0.954D+00
 Coeff:      0.345D-03-0.401D-03 0.822D-02 0.969D-02-0.266D-01-0.152D+00
 Coeff:     -0.227D+00 0.433D+00 0.954D+00
 Gap=     0.038 Goal=   None    Shift=    0.000
 Gap=     0.039 Goal=   None    Shift=    0.000
 RMSDP=6.03D-05 MaxDP=3.74D-03 DE=-9.61D-06 OVMax= 7.03D-03

 Cycle  10  Pass 1  IDiag  1:
 E= -1136.11388343348     Delta-E=       -0.000006925034 Rises=F Damp=F
 DIIS: error= 4.30D-05 at cycle  10 NSaved=  10.
 NSaved=10 IEnMin=10 EnMin= -1136.11388343348     IErMin=10 ErrMin= 4.30D-05
 ErrMax= 4.30D-05  0.00D+00 EMaxC= 1.00D-01 BMatC= 2.40D-07 BMatP= 5.06D-07
 IDIUse=1 WtCom= 1.00D+00 WtEn= 0.00D+00
 Coeff-Com: -0.785D-04 0.551D-04 0.816D-02-0.470D-02 0.830D-01 0.252D-01
 Coeff-Com: -0.755D-01-0.627D+00-0.497D-01 0.164D+01
 Coeff:     -0.785D-04 0.551D-04 0.816D-02-0.470D-02 0.830D-01 0.252D-01
 Coeff:     -0.755D-01-0.627D+00-0.497D-01 0.164D+01
 Gap=     0.038 Goal=   None    Shift=    0.000
 Gap=     0.039 Goal=   None    Shift=    0.000
 RMSDP=7.72D-05 MaxDP=5.43D-03 DE=-6.93D-06 OVMax= 9.61D-03

 Cycle  11  Pass 1  IDiag  1:
 E= -1136.11388958998     Delta-E=       -0.000006156504 Rises=F Damp=F
 DIIS: error= 2.99D-05 at cycle  11 NSaved=  11.
 NSaved=11 IEnMin=11 EnMin= -1136.11388958998     IErMin=11 ErrMin= 2.99D-05
 ErrMax= 2.99D-05  0.00D+00 EMaxC= 1.00D-01 BMatC= 1.17D-07 BMatP= 2.40D-07
 IDIUse=1 WtCom= 1.00D+00 WtEn= 0.00D+00
 Coeff-Com: -0.379D-04-0.157D-04 0.316D-02-0.831D-02 0.721D-01 0.876D-01
 Coeff-Com:  0.515D-01-0.576D+00-0.519D+00 0.874D+00 0.101D+01
 Coeff:     -0.379D-04-0.157D-04 0.316D-02-0.831D-02 0.721D-01 0.876D-01
 Coeff:      0.515D-01-0.576D+00-0.519D+00 0.874D+00 0.101D+01
 Gap=     0.038 Goal=   None    Shift=    0.000
 Gap=     0.039 Goal=   None    Shift=    0.000
 RMSDP=5.85D-05 MaxDP=4.07D-03 DE=-6.16D-06 OVMax= 7.64D-03

 Cycle  12  Pass 1  IDiag  1:
 E= -1136.11389202337     Delta-E=       -0.000002433389 Rises=F Damp=F
 DIIS: error= 1.05D-05 at cycle  12 NSaved=  12.
 NSaved=12 IEnMin=12 EnMin= -1136.11389202337     IErMin=12 ErrMin= 1.05D-05
 ErrMax= 1.05D-05  0.00D+00 EMaxC= 1.00D-01 BMatC= 1.96D-08 BMatP= 1.17D-07
 IDIUse=1 WtCom= 1.00D+00 WtEn= 0.00D+00
 Coeff-Com:  0.130D-03-0.185D-03-0.206D-02-0.136D-02-0.407D-02 0.203D-01
 Coeff-Com:  0.336D-01 0.177D-01-0.984D-01-0.268D+00 0.180D+00 0.112D+01
 Coeff:      0.130D-03-0.185D-03-0.206D-02-0.136D-02-0.407D-02 0.203D-01
 Coeff:      0.336D-01 0.177D-01-0.984D-01-0.268D+00 0.180D+00 0.112D+01
 Gap=     0.038 Goal=   None    Shift=    0.000
 Gap=     0.040 Goal=   None    Shift=    0.000
 RMSDP=2.82D-05 MaxDP=1.98D-03 DE=-2.43D-06 OVMax= 3.67D-03

 Cycle  13  Pass 1  IDiag  1:
 E= -1136.11389245652     Delta-E=       -0.000000433153 Rises=F Damp=F
 DIIS: error= 3.71D-06 at cycle  13 NSaved=  13.
 NSaved=13 IEnMin=13 EnMin= -1136.11389245652     IErMin=13 ErrMin= 3.71D-06
 ErrMax= 3.71D-06  0.00D+00 EMaxC= 1.00D-01 BMatC= 4.21D-09 BMatP= 1.96D-08
 IDIUse=1 WtCom= 1.00D+00 WtEn= 0.00D+00
 Coeff-Com:  0.327D-04-0.350D-04-0.122D-02 0.114D-02-0.121D-01-0.114D-01
 Coeff-Com: -0.106D-01 0.111D+00 0.874D-01-0.185D+00-0.170D+00 0.110D+00
 Coeff-Com:  0.108D+01
 Coeff:      0.327D-04-0.350D-04-0.122D-02 0.114D-02-0.121D-01-0.114D-01
 Coeff:     -0.106D-01 0.111D+00 0.874D-01-0.185D+00-0.170D+00 0.110D+00
 Coeff:      0.108D+01
 Gap=     0.038 Goal=   None    Shift=    0.000
 Gap=     0.040 Goal=   None    Shift=    0.000
 RMSDP=6.83D-06 MaxDP=5.44D-04 DE=-4.33D-07 OVMax= 6.52D-04

 Cycle  14  Pass 1  IDiag  1:
 E= -1136.11389250042     Delta-E=       -0.000000043891 Rises=F Damp=F
 DIIS: error= 1.93D-06 at cycle  14 NSaved=  14.
 NSaved=14 IEnMin=14 EnMin= -1136.11389250042     IErMin=14 ErrMin= 1.93D-06
 ErrMax= 1.93D-06  0.00D+00 EMaxC= 1.00D-01 BMatC= 1.33D-09 BMatP= 4.21D-09
 IDIUse=1 WtCom= 1.00D+00 WtEn= 0.00D+00
 Coeff-Com: -0.686D-05 0.173D-04-0.184D-03 0.834D-03-0.568D-02-0.121D-01
 Coeff-Com: -0.133D-01 0.586D-01 0.603D-01-0.373D-01-0.937D-01-0.214D+00
 Coeff-Com:  0.342D+00 0.915D+00
 Coeff:     -0.686D-05 0.173D-04-0.184D-03 0.834D-03-0.568D-02-0.121D-01
 Coeff:     -0.133D-01 0.586D-01 0.603D-01-0.373D-01-0.937D-01-0.214D+00
 Coeff:      0.342D+00 0.915D+00
 Gap=     0.038 Goal=   None    Shift=    0.000
 Gap=     0.040 Goal=   None    Shift=    0.000
 RMSDP=2.89D-06 MaxDP=1.98D-04 DE=-4.39D-08 OVMax= 2.48D-04

 Cycle  15  Pass 1  IDiag  1:
 E= -1136.11389250977     Delta-E=       -0.000000009357 Rises=F Damp=F
 DIIS: error= 1.01D-06 at cycle  15 NSaved=  15.
 NSaved=15 IEnMin=15 EnMin= -1136.11389250977     IErMin=15 ErrMin= 1.01D-06
 ErrMax= 1.01D-06  0.00D+00 EMaxC= 1.00D-01 BMatC= 3.22D-10 BMatP= 1.33D-09
 IDIUse=1 WtCom= 1.00D+00 WtEn= 0.00D+00
 Coeff-Com: -0.195D-04 0.251D-04 0.416D-03-0.178D-03 0.352D-02 0.171D-02
 Coeff-Com:  0.180D-02-0.303D-01-0.140D-01 0.553D-01 0.271D-01-0.860D-01
 Coeff-Com: -0.241D+00 0.236D+00 0.105D+01
 Coeff:     -0.195D-04 0.251D-04 0.416D-03-0.178D-03 0.352D-02 0.171D-02
 Coeff:      0.180D-02-0.303D-01-0.140D-01 0.553D-01 0.271D-01-0.860D-01
 Coeff:     -0.241D+00 0.236D+00 0.105D+01
 Gap=     0.038 Goal=   None    Shift=    0.000
 Gap=     0.040 Goal=   None    Shift=    0.000
 RMSDP=2.01D-06 MaxDP=1.53D-04 DE=-9.36D-09 OVMax= 1.67D-04

 Cycle  16  Pass 1  IDiag  1:
 E= -1136.11389251238     Delta-E=       -0.000000002612 Rises=F Damp=F
 DIIS: error= 4.56D-07 at cycle  16 NSaved=  16.
 NSaved=16 IEnMin=16 EnMin= -1136.11389251238     IErMin=16 ErrMin= 4.56D-07
 ErrMax= 4.56D-07  0.00D+00 EMaxC= 1.00D-01 BMatC= 3.37D-11 BMatP= 3.22D-10
 IDIUse=1 WtCom= 1.00D+00 WtEn= 0.00D+00
 Coeff-Com:  0.336D-05-0.544D-05 0.100D-03-0.118D-03 0.128D-02 0.158D-02
 Coeff-Com:  0.610D-03-0.105D-01-0.563D-02 0.105D-01 0.916D-02 0.189D-01
 Coeff-Com: -0.588D-01-0.107D+00 0.100D+00 0.104D+01
 Coeff:      0.336D-05-0.544D-05 0.100D-03-0.118D-03 0.128D-02 0.158D-02
 Coeff:      0.610D-03-0.105D-01-0.563D-02 0.105D-01 0.916D-02 0.189D-01
 Coeff:     -0.588D-01-0.107D+00 0.100D+00 0.104D+01
 Gap=     0.038 Goal=   None    Shift=    0.000
 Gap=     0.040 Goal=   None    Shift=    0.000
 RMSDP=5.57D-07 MaxDP=4.23D-05 DE=-2.61D-09 OVMax= 4.10D-05

 Cycle  17  Pass 1  IDiag  1:
 E= -1136.11389251264     Delta-E=       -0.000000000254 Rises=F Damp=F
 DIIS: error= 2.03D-07 at cycle  17 NSaved=  17.
 NSaved=17 IEnMin=17 EnMin= -1136.11389251264     IErMin=17 ErrMin= 2.03D-07
 ErrMax= 2.03D-07  0.00D+00 EMaxC= 1.00D-01 BMatC= 8.49D-12 BMatP= 3.37D-11
 IDIUse=1 WtCom= 1.00D+00 WtEn= 0.00D+00
 Coeff-Com:  0.472D-05-0.638D-05-0.629D-04-0.845D-05-0.266D-03 0.922D-04
 Coeff-Com: -0.679D-03 0.321D-02 0.152D-02-0.642D-02-0.401D-02 0.186D-01
 Coeff-Com:  0.408D-01-0.752D-01-0.187D+00 0.209D+00 0.100D+01
 Coeff:      0.472D-05-0.638D-05-0.629D-04-0.845D-05-0.266D-03 0.922D-04
 Coeff:     -0.679D-03 0.321D-02 0.152D-02-0.642D-02-0.401D-02 0.186D-01
 Coeff:      0.408D-01-0.752D-01-0.187D+00 0.209D+00 0.100D+01
 Gap=     0.038 Goal=   None    Shift=    0.000
 Gap=     0.040 Goal=   None    Shift=    0.000
 RMSDP=2.73D-07 MaxDP=1.75D-05 DE=-2.54D-10 OVMax= 1.78D-05

 Cycle  18  Pass 1  IDiag  1:
 E= -1136.11389251271     Delta-E=       -0.000000000075 Rises=F Damp=F
 DIIS: error= 8.35D-08 at cycle  18 NSaved=  18.
 NSaved=18 IEnMin=18 EnMin= -1136.11389251271     IErMin=18 ErrMin= 8.35D-08
 ErrMax= 8.35D-08  0.00D+00 EMaxC= 1.00D-01 BMatC= 1.87D-12 BMatP= 8.49D-12
 IDIUse=1 WtCom= 1.00D+00 WtEn= 0.00D+00
 Coeff-Com: -0.119D-05 0.169D-05-0.327D-04 0.164D-04-0.224D-03-0.178D-03
 Coeff-Com: -0.460D-04 0.181D-02 0.231D-03-0.125D-02-0.918D-03-0.552D-02
 Coeff-Com:  0.106D-01 0.277D-01-0.239D-01-0.248D+00 0.148D-01 0.123D+01
 Coeff:     -0.119D-05 0.169D-05-0.327D-04 0.164D-04-0.224D-03-0.178D-03
 Coeff:     -0.460D-04 0.181D-02 0.231D-03-0.125D-02-0.918D-03-0.552D-02
 Coeff:      0.106D-01 0.277D-01-0.239D-01-0.248D+00 0.148D-01 0.123D+01
 Gap=     0.038 Goal=   None    Shift=    0.000
 Gap=     0.040 Goal=   None    Shift=    0.000
 RMSDP=1.83D-07 MaxDP=8.98D-06 DE=-7.46D-11 OVMax= 1.06D-05

 Cycle  19  Pass 1  IDiag  1:
 E= -1136.11389251274     Delta-E=       -0.000000000024 Rises=F Damp=F
 DIIS: error= 3.17D-08 at cycle  19 NSaved=  19.
 NSaved=19 IEnMin=19 EnMin= -1136.11389251274     IErMin=19 ErrMin= 3.17D-08
 ErrMax= 3.17D-08  0.00D+00 EMaxC= 1.00D-01 BMatC= 2.28D-13 BMatP= 1.87D-12
 IDIUse=1 WtCom= 1.00D+00 WtEn= 0.00D+00
 Coeff-Com: -0.376D-06 0.527D-06 0.697D-05 0.672D-05-0.146D-04-0.172D-04
 Coeff-Com:  0.122D-03-0.203D-03 0.597D-04 0.204D-03 0.171D-03-0.181D-02
 Coeff-Com: -0.478D-02 0.713D-02 0.275D-01-0.499D-02-0.178D+00-0.815D-01
 Coeff-Com:  0.124D+01
 Coeff:     -0.376D-06 0.527D-06 0.697D-05 0.672D-05-0.146D-04-0.172D-04
 Coeff:      0.122D-03-0.203D-03 0.597D-04 0.204D-03 0.171D-03-0.181D-02
 Coeff:     -0.478D-02 0.713D-02 0.275D-01-0.499D-02-0.178D+00-0.815D-01
 Coeff:      0.124D+01
 Gap=     0.038 Goal=   None    Shift=    0.000
 Gap=     0.040 Goal=   None    Shift=    0.000
 RMSDP=7.19D-08 MaxDP=3.04D-06 DE=-2.41D-11 OVMax= 3.80D-06

 Cycle  20  Pass 1  IDiag  1:
 E= -1136.11389251273     Delta-E=        0.000000000006 Rises=F Damp=F
 DIIS: error= 8.47D-09 at cycle  20 NSaved=  20.
 NSaved=20 IEnMin=19 EnMin= -1136.11389251274     IErMin=20 ErrMin= 8.47D-09
 ErrMax= 8.47D-09  0.00D+00 EMaxC= 1.00D-01 BMatC= 2.75D-14 BMatP= 2.28D-13
 IDIUse=1 WtCom= 1.00D+00 WtEn= 0.00D+00
 Coeff-Com: -0.376D-07 0.494D-07 0.369D-05-0.240D-05 0.287D-04 0.252D-04
 Coeff-Com:  0.147D-04-0.242D-03-0.841D-04 0.239D-03 0.103D-03 0.938D-03
 Coeff-Com: -0.134D-02-0.396D-02 0.306D-02 0.323D-01-0.188D-02-0.163D+00
 Coeff-Com:  0.506D-01 0.108D+01
 Coeff:     -0.376D-07 0.494D-07 0.369D-05-0.240D-05 0.287D-04 0.252D-04
 Coeff:      0.147D-04-0.242D-03-0.841D-04 0.239D-03 0.103D-03 0.938D-03
 Coeff:     -0.134D-02-0.396D-02 0.306D-02 0.323D-01-0.188D-02-0.163D+00
 Coeff:      0.506D-01 0.108D+01
 Gap=     0.038 Goal=   None    Shift=    0.000
 Gap=     0.040 Goal=   None    Shift=    0.000
 RMSDP=2.33D-08 MaxDP=1.54D-06 DE= 6.37D-12 OVMax= 1.18D-06

 Cycle  21  Pass 1  IDiag  1:
 E= -1136.11389251274     Delta-E=       -0.000000000004 Rises=F Damp=F
 DIIS: error= 3.44D-09 at cycle  21 NSaved=  20.
 NSaved=20 IEnMin=18 EnMin= -1136.11389251274     IErMin=20 ErrMin= 3.44D-09
 ErrMax= 3.44D-09  0.00D+00 EMaxC= 1.00D-01 BMatC= 4.99D-15 BMatP= 2.75D-14
 IDIUse=1 WtCom= 1.00D+00 WtEn= 0.00D+00
 Coeff-Com: -0.195D-08 0.253D-06-0.148D-05 0.134D-04 0.124D-04-0.218D-04
 Coeff-Com: -0.547D-04-0.310D-04 0.948D-04 0.159D-04 0.281D-03 0.130D-03
 Coeff-Com: -0.107D-02-0.259D-02 0.409D-02 0.242D-01-0.197D-01-0.148D+00
 Coeff-Com:  0.157D+00 0.985D+00
 Coeff:     -0.195D-08 0.253D-06-0.148D-05 0.134D-04 0.124D-04-0.218D-04
 Coeff:     -0.547D-04-0.310D-04 0.948D-04 0.159D-04 0.281D-03 0.130D-03
 Coeff:     -0.107D-02-0.259D-02 0.409D-02 0.242D-01-0.197D-01-0.148D+00
 Coeff:      0.157D+00 0.985D+00
 Gap=     0.038 Goal=   None    Shift=    0.000
 Gap=     0.040 Goal=   None    Shift=    0.000
 RMSDP=7.40D-09 MaxDP=4.70D-07 DE=-4.32D-12 OVMax= 4.29D-07

 SCF Done:  E(UB3LYP) =  -1136.11389251     A.U. after   21 cycles
            NFock= 21  Conv=0.74D-08     -V/T= 2.0029
 <Sx>= 0.0000 <Sy>= 0.0000 <Sz>= 0.5000 <S**2>= 0.8156 S= 0.5323
 <L.S>= 0.000000000000E+00
 KE= 1.132830048523D+03 PE=-3.258654105368D+03 EE= 7.249217802562D+02
 Annihilation of the first spin contaminant:
 S**2 before annihilation     0.8156,   after     0.7520
 Leave Link  502 at Wed Nov 29 03:26:36 2023, MaxMem=  1879048192 cpu:             166.8 elap:              15.5
 (Enter /home/sekinelabo/g16/l601.exe)
 Copying SCF densities to generalized density rwf, IOpCl= 1 IROHF=0.

 **********************************************************************

            Population analysis using the SCF Density.

 **********************************************************************

 Orbital symmetries:
 Alpha Orbitals:
       Occupied  (A) (A) (A) (A) (A) (A) (A) (A) (A) (A) (A) (A)
                 (A) (A) (A) (A) (A) (A) (A) (A) (A) (A) (A) (A)
                 (A) (A) (A) (A) (A) (A) (A) (A) (A) (A) (A) (A)
                 (A) (A) (A)
       Virtual   (A) (A) (A) (A) (A) (A) (A) (A) (A) (A) (A) (A)
                 (A) (A) (A) (A) (A) (A) (A) (A) (A) (A) (A) (A)
                 (A) (A) (A) (A) (A) (A) (A) (A) (A) (A) (A) (A)
                 (A) (A) (A) (A) (A) (A) (A) (A) (A) (A) (A) (A)
                 (A) (A) (A) (A) (A) (A) (A) (A) (A) (A) (A) (A)
                 (A) (A) (A) (A) (A) (A) (A) (A) (A) (A) (A) (A)
                 (A) (A) (A) (A) (A) (A) (A) (A) (A) (A) (A) (A)
                 (A) (A) (A) (A) (A) (A) (A) (A) (A) (A) (A) (A)
                 (A) (A) (A) (A) (A) (A) (A) (A) (A) (A) (A) (A)
                 (A) (A) (A) (A) (A) (A) (A) (A) (A) (A) (A) (A)
                 (A) (A) (A) (A) (A) (A) (A) (A) (A) (A) (A) (A)
                 (A) (A) (A) (A) (A) (A) (A) (A) (A) (A) (A) (A)
                 (A) (A) (A) (A) (A) (A) (A) (A) (A) (A) (A) (A)
                 (A) (A) (A) (A) (A) (A) (A) (A) (A) (A) (A) (A)
                 (A) (A) (A)
 Beta  Orbitals:
       Occupied  (A) (A) (A) (A) (A) (A) (A) (A) (A) (A) (A) (A)
                 (A) (A) (A) (A) (A) (A) (A) (A) (A) (A) (A) (A)
                 (A) (A) (A) (A) (A) (A) (A) (A) (A) (A) (A) (A)
                 (A) (A)
       Virtual   (A) (A) (A) (A) (A) (A) (A) (A) (A) (A) (A) (A)
                 (A) (A) (A) (A) (A) (A) (A) (A) (A) (A) (A) (A)
                 (A) (A) (A) (A) (A) (A) (A) (A) (A) (A) (A) (A)
                 (A) (A) (A) (A) (A) (A) (A) (A) (A) (A) (A) (A)
                 (A) (A) (A) (A) (A) (A) (A) (A) (A) (A) (A) (A)
                 (A) (A) (A) (A) (A) (A) (A) (A) (A) (A) (A) (A)
                 (A) (A) (A) (A) (A) (A) (A) (A) (A) (A) (A) (A)
                 (A) (A) (A) (A) (A) (A) (A) (A) (A) (A) (A) (A)
                 (A) (A) (A) (A) (A) (A) (A) (A) (A) (A) (A) (A)
                 (A) (A) (A) (A) (A) (A) (A) (A) (A) (A) (A) (A)
                 (A) (A) (A) (A) (A) (A) (A) (A) (A) (A) (A) (A)
                 (A) (A) (A) (A) (A) (A) (A) (A) (A) (A) (A) (A)
                 (A) (A) (A) (A) (A) (A) (A) (A) (A) (A) (A) (A)
                 (A) (A) (A) (A) (A) (A) (A) (A) (A) (A) (A) (A)
                 (A) (A) (A) (A)
 The electronic state is 2-A.
 Alpha  occ. eigenvalues --  -38.44714 -38.44475 -38.44466 -38.44228 -38.44212
 Alpha  occ. eigenvalues --  -38.43744 -38.43625  -2.20467  -2.20321  -2.20295
 Alpha  occ. eigenvalues --   -2.20055  -2.19979  -2.19568  -2.19429  -1.14127
 Alpha  occ. eigenvalues --   -1.14126  -1.14085  -1.14039  -1.14022  -1.13981
 Alpha  occ. eigenvalues --   -1.13958  -1.13929  -1.13908  -1.13725  -1.13715
 Alpha  occ. eigenvalues --   -1.13662  -1.13657  -1.13650  -1.13615  -1.13222
 Alpha  occ. eigenvalues --   -1.13221  -1.13192  -1.13106  -1.13094  -1.13036
 Alpha  occ. eigenvalues --   -0.16610  -0.13910  -0.11773  -0.10931
 Alpha virt. eigenvalues --   -0.07156  -0.05180  -0.04593  -0.03535  -0.02919
 Alpha virt. eigenvalues --   -0.02627  -0.02112  -0.01593  -0.01005  -0.00834
 Alpha virt. eigenvalues --   -0.00355  -0.00191  -0.00141   0.00276   0.00443
 Alpha virt. eigenvalues --    0.00663   0.00875   0.01009   0.01030   0.01146
 Alpha virt. eigenvalues --    0.01242   0.01407   0.01461   0.01700   0.01761
 Alpha virt. eigenvalues --    0.01884   0.02029   0.02104   0.02274   0.02365
 Alpha virt. eigenvalues --    0.02477   0.02573   0.02589   0.02608   0.02726
 Alpha virt. eigenvalues --    0.02814   0.03149   0.03207   0.03471   0.03518
 Alpha virt. eigenvalues --    0.03584   0.03709   0.03825   0.04024   0.04054
 Alpha virt. eigenvalues --    0.04627   0.04671   0.04877   0.05131   0.05333
 Alpha virt. eigenvalues --    0.05867   0.05905   0.06737   0.06949   0.07298
 Alpha virt. eigenvalues --    0.07513   0.07720   0.07951   0.08203   0.08385
 Alpha virt. eigenvalues --    0.08775   0.08938   0.09151   0.09592   0.09778
 Alpha virt. eigenvalues --    0.10096   0.10361   0.11014   0.11744   0.12024
 Alpha virt. eigenvalues --    0.12438   0.12789   0.13227   0.13561   0.14227
 Alpha virt. eigenvalues --    0.14395   0.14707   0.14850   0.15416   0.16754
 Alpha virt. eigenvalues --    0.26636   0.27676   0.28839   0.29328   0.29739
 Alpha virt. eigenvalues --    0.30046   0.30328   0.31512   0.31748   0.32258
 Alpha virt. eigenvalues --    0.32793   0.33928   0.34668   0.35310   0.35646
 Alpha virt. eigenvalues --    0.35981   0.37734   0.38183   0.39136   0.39790
 Alpha virt. eigenvalues --    0.40629   0.41451   0.42399   0.42855   0.42982
 Alpha virt. eigenvalues --    0.43524   0.43675   0.43743   0.44017   0.44164
 Alpha virt. eigenvalues --    0.44410   0.44645   0.45093   0.45252   0.45639
 Alpha virt. eigenvalues --    0.45916   0.46220   0.46818   0.47023   0.47354
 Alpha virt. eigenvalues --    0.47835   0.48364   0.48606   0.50180   0.50750
 Alpha virt. eigenvalues --    0.51699   0.52045   0.52968   0.54216   0.54885
 Alpha virt. eigenvalues --    0.55779   0.57587   0.58677   0.63084   0.63799
 Alpha virt. eigenvalues --    0.64737   2.02417   2.05759   2.10205   2.12136
 Alpha virt. eigenvalues --    2.15316   2.17098   2.18989   4.42773   4.43514
 Alpha virt. eigenvalues --    4.43625   4.44307   4.44476   4.44675   4.44975
 Alpha virt. eigenvalues --    4.45127   4.45311   4.45643   4.46205   4.46555
 Alpha virt. eigenvalues --    4.47171   4.47679   4.48469   4.49395   4.49697
 Alpha virt. eigenvalues --    4.50843   4.53577   4.54989   4.57728  96.21612
 Alpha virt. eigenvalues --   96.25812  96.31082  96.33369  96.37236  96.39213
 Alpha virt. eigenvalues --   96.41547
  Beta  occ. eigenvalues --  -38.44674 -38.44461 -38.44458 -38.44226 -38.44170
  Beta  occ. eigenvalues --  -38.43703 -38.43591  -2.20392  -2.20309  -2.20271
  Beta  occ. eigenvalues --   -2.20008  -2.19949  -2.19491  -2.19364  -1.14076
  Beta  occ. eigenvalues --   -1.14074  -1.14037  -1.14018  -1.13997  -1.13970
  Beta  occ. eigenvalues --   -1.13946  -1.13905  -1.13881  -1.13681  -1.13677
  Beta  occ. eigenvalues --   -1.13655  -1.13647  -1.13620  -1.13561  -1.13169
  Beta  occ. eigenvalues --   -1.13164  -1.13147  -1.13061  -1.13046  -1.13005
  Beta  occ. eigenvalues --   -0.16017  -0.13675  -0.11472
  Beta virt. eigenvalues --   -0.07522  -0.06597  -0.04932  -0.04180  -0.03380
  Beta virt. eigenvalues --   -0.02531  -0.02386  -0.01768  -0.01431  -0.00872
  Beta virt. eigenvalues --   -0.00480  -0.00141   0.00015   0.00058   0.00330
  Beta virt. eigenvalues --    0.00485   0.00720   0.00969   0.01032   0.01081
  Beta virt. eigenvalues --    0.01216   0.01359   0.01507   0.01549   0.01744
  Beta virt. eigenvalues --    0.01849   0.01956   0.02154   0.02211   0.02395
  Beta virt. eigenvalues --    0.02408   0.02559   0.02589   0.02643   0.02675
  Beta virt. eigenvalues --    0.02807   0.02867   0.03211   0.03282   0.03562
  Beta virt. eigenvalues --    0.03583   0.03611   0.03767   0.03913   0.04076
  Beta virt. eigenvalues --    0.04221   0.04654   0.04753   0.05000   0.05243
  Beta virt. eigenvalues --    0.05372   0.05871   0.06003   0.06821   0.06984
  Beta virt. eigenvalues --    0.07409   0.07621   0.07783   0.08018   0.08367
  Beta virt. eigenvalues --    0.08499   0.08969   0.09109   0.09237   0.09763
  Beta virt. eigenvalues --    0.09867   0.10246   0.10542   0.11267   0.11931
  Beta virt. eigenvalues --    0.12144   0.12702   0.12892   0.13337   0.13780
  Beta virt. eigenvalues --    0.14400   0.14567   0.14879   0.14938   0.15560
  Beta virt. eigenvalues --    0.16881   0.26983   0.27775   0.29051   0.29607
  Beta virt. eigenvalues --    0.30114   0.30214   0.30478   0.31684   0.31883
  Beta virt. eigenvalues --    0.32388   0.32961   0.34178   0.34978   0.35719
  Beta virt. eigenvalues --    0.36046   0.36326   0.37981   0.38606   0.39504
  Beta virt. eigenvalues --    0.40155   0.40681   0.41706   0.42513   0.43024
  Beta virt. eigenvalues --    0.43124   0.43661   0.43820   0.43914   0.44107
  Beta virt. eigenvalues --    0.44208   0.44537   0.44778   0.45170   0.45323
  Beta virt. eigenvalues --    0.45736   0.46030   0.46289   0.46915   0.47098
  Beta virt. eigenvalues --    0.47453   0.48005   0.48491   0.48719   0.50290
  Beta virt. eigenvalues --    0.50951   0.51929   0.52189   0.53111   0.54397
  Beta virt. eigenvalues --    0.54943   0.55820   0.57763   0.58722   0.63205
  Beta virt. eigenvalues --    0.63932   0.64846   2.02514   2.05872   2.10319
  Beta virt. eigenvalues --    2.12337   2.15349   2.17218   2.19049   4.42805
  Beta virt. eigenvalues --    4.43548   4.43650   4.44364   4.44527   4.44708
  Beta virt. eigenvalues --    4.44990   4.45171   4.45310   4.45694   4.46251
  Beta virt. eigenvalues --    4.46616   4.47234   4.47721   4.48500   4.49418
  Beta virt. eigenvalues --    4.49778   4.50863   4.53613   4.55019   4.57760
  Beta virt. eigenvalues --   96.21646  96.25852  96.31119  96.33435  96.37248
  Beta virt. eigenvalues --   96.39249  96.41572
          Condensed to atoms (all electrons):
               1          2          3          4          5          6
     1  Na  11.762853  -0.198919   0.038883  -0.559207   0.140633  -0.139209
     2  Na  -0.198919  10.724292   0.200963   0.130867  -0.029569   0.013869
     3  Na   0.038883   0.200963  10.457510   0.095468  -0.028650  -0.011619
     4  Na  -0.559207   0.130867   0.095468  11.389983   0.066558   0.077905
     5  Na   0.140633  -0.029569  -0.028650   0.066558  11.592428  -0.186831
     6  Na  -0.139209   0.013869  -0.011619   0.077905  -0.186831  10.699181
     7  Na   0.050464  -0.008328  -0.005136  -0.058198  -0.110430   0.320076
               7
     1  Na   0.050464
     2  Na  -0.008328
     3  Na  -0.005136
     4  Na  -0.058198
     5  Na  -0.110430
     6  Na   0.320076
     7  Na  10.774572
          Atomic-Atomic Spin Densities.
               1          2          3          4          5          6
     1  Na   0.241836   0.022772  -0.046546  -0.258060   0.183036  -0.105119
     2  Na   0.022772   0.209162  -0.012014   0.008685  -0.009489   0.008793
     3  Na  -0.046546  -0.012014  -0.014194   0.056569   0.020747  -0.015505
     4  Na  -0.258060   0.008685   0.056569   0.661338  -0.268811   0.179742
     5  Na   0.183036  -0.009489   0.020747  -0.268811   0.560853  -0.218851
     6  Na  -0.105119   0.008793  -0.015505   0.179742  -0.218851   0.062630
     7  Na  -0.010841   0.001717  -0.003740   0.028638  -0.098520   0.058833
               7
     1  Na  -0.010841
     2  Na   0.001717
     3  Na  -0.003740
     4  Na   0.028638
     5  Na  -0.098520
     6  Na   0.058833
     7  Na   0.234303
 Mulliken charges and spin densities:
               1          2
     1  Na  -0.095499   0.027078
     2  Na   0.166825   0.229625
     3  Na   0.252580  -0.014683
     4  Na  -0.143375   0.408101
     5  Na  -0.444137   0.168965
     6  Na   0.226628  -0.029476
     7  Na   0.036978   0.210390
 Sum of Mulliken charges =  -0.00000   1.00000
 Mulliken charges and spin densities with hydrogens summed into heavy atoms:
               1          2
     1  Na  -0.095499   0.027078
     2  Na   0.166825   0.229625
     3  Na   0.252580  -0.014683
     4  Na  -0.143375   0.408101
     5  Na  -0.444137   0.168965
     6  Na   0.226628  -0.029476
     7  Na   0.036978   0.210390
 Electronic spatial extent (au):  <R**2>=           5282.5223
 Charge=             -0.0000 electrons
 Dipole moment (field-independent basis, Debye):
    X=              0.4650    Y=              0.7891    Z=              0.3221  Tot=              0.9709
 Quadrupole moment (field-independent basis, Debye-Ang):
   XX=            -66.7285   YY=            -64.8925   ZZ=            -67.4318
   XY=             -1.5887   XZ=             -1.2016   YZ=              2.5752
 Traceless Quadrupole moment (field-independent basis, Debye-Ang):
   XX=             -0.3776   YY=              1.4584   ZZ=             -1.0809
   XY=             -1.5887   XZ=             -1.2016   YZ=              2.5752
 Octapole moment (field-independent basis, Debye-Ang**2):
  XXX=             15.8005  YYY=             11.0818  ZZZ=              7.0588  XYY=              1.8946
  XXY=             36.5564  XXZ=             26.4576  XZZ=             -3.1221  YZZ=             -1.8966
  YYZ=              1.5073  XYZ=            -27.0579
 Hexadecapole moment (field-independent basis, Debye-Ang**3):
 XXXX=          -7082.3341 YYYY=          -1091.7176 ZZZZ=           -693.8564 XXXY=            -93.9070
 XXXZ=           -142.0816 YYYX=             13.9352 YYYZ=             21.7332 ZZZX=              4.5573
 ZZZY=             11.8616 XXYY=          -1187.6151 XXZZ=          -1140.0305 YYZZ=           -287.0496
 XXYZ=            108.7629 YYXZ=             -5.3391 ZZXY=            -54.8072
 N-N= 2.647883840760D+02 E-N=-3.258654104917D+03  KE= 1.132830048523D+03
                          Isotropic Fermi Contact Couplings
        Atom                 a.u.       MegaHertz       Gauss      10(-4) cm-1
     1  Na(23)            -0.01141     -13.49342      -4.81479      -4.50092
     2  Na(23)             0.18174     215.00126      76.71780      71.71670
     3  Na(23)             0.01673      19.79510       7.06338       6.60293
     4  Na(23)             0.22719     268.77267      95.90477      89.65291
     5  Na(23)             0.16242     192.15029      68.56400      64.09444
     6  Na(23)            -0.08711    -103.05760     -36.77351     -34.37631
     7  Na(23)             0.17618     208.42790      74.37226      69.52406
 --------------------------------------------------------
       Center         ----  Spin Dipole Couplings  ----
                      3XX-RR        3YY-RR        3ZZ-RR
 --------------------------------------------------------
     1   Atom       -0.022255      0.028058     -0.005803
     2   Atom        0.004241     -0.004587      0.000346
     3   Atom        0.008552     -0.000014     -0.008539
     4   Atom        0.019817     -0.011361     -0.008457
     5   Atom       -0.012550      0.007589      0.004960
     6   Atom        0.009651     -0.001978     -0.007673
     7   Atom        0.000973     -0.000894     -0.000079
 --------------------------------------------------------
                        XY            XZ            YZ
 --------------------------------------------------------
     1   Atom        0.001150      0.001609     -0.022939
     2   Atom        0.002799      0.002609      0.007885
     3   Atom       -0.019938      0.015418     -0.012924
     4   Atom        0.014361      0.000121      0.000087
     5   Atom       -0.007408      0.002936      0.002069
     6   Atom       -0.012344     -0.005821      0.004817
     7   Atom        0.001826      0.001643     -0.002295
 --------------------------------------------------------


 ---------------------------------------------------------------------------------
              Anisotropic Spin Dipole Couplings in Principal Axis System
 ---------------------------------------------------------------------------------

       Atom             a.u.   MegaHertz   Gauss  10(-4) cm-1        Axes

              Baa    -0.0229    -3.240    -1.156    -1.081  0.9434 -0.1535 -0.2939
     1 Na(23) Bbb    -0.0167    -2.358    -0.841    -0.786  0.3316  0.4236  0.8430
              Bcc     0.0396     5.598     1.997     1.867  0.0049  0.8928 -0.4505
 
              Baa    -0.0104    -1.471    -0.525    -0.491 -0.0513  0.8116 -0.5820
     2 Na(23) Bbb     0.0013     0.189     0.068     0.063  0.7864 -0.3263 -0.5244
              Bcc     0.0091     1.282     0.457     0.428  0.6155  0.4846  0.6215
 
              Baa    -0.0181    -2.552    -0.911    -0.851 -0.2224  0.3930  0.8922
     3 Na(23) Bbb    -0.0161    -2.269    -0.810    -0.757  0.6769  0.7209 -0.1488
              Bcc     0.0341     4.821     1.720     1.608  0.7017 -0.5709  0.4263
 
              Baa    -0.0170    -2.396    -0.855    -0.799 -0.3637  0.9315 -0.0043
     4 Na(23) Bbb    -0.0085    -1.194    -0.426    -0.398 -0.0055  0.0025  1.0000
              Bcc     0.0254     3.590     1.281     1.198  0.9315  0.3637  0.0043
 
              Baa    -0.0156    -2.197    -0.784    -0.733  0.9349  0.3140 -0.1655
     5 Na(23) Bbb     0.0053     0.750     0.267     0.250  0.2219 -0.1531  0.9630
              Bcc     0.0102     1.447     0.516     0.483 -0.2770  0.9370  0.2128
 
              Baa    -0.0107    -1.510    -0.539    -0.504  0.2358  0.7043 -0.6695
     6 Na(23) Bbb    -0.0089    -1.251    -0.446    -0.417  0.5378  0.4793  0.6936
              Bcc     0.0195     2.760     0.985     0.921  0.8094 -0.5236 -0.2657
 
              Baa    -0.0040    -0.568    -0.203    -0.190 -0.4411  0.6836  0.5815
     7 Na(23) Bbb     0.0018     0.258     0.092     0.086  0.1908  0.7045 -0.6836
              Bcc     0.0022     0.310     0.111     0.103  0.8770  0.1906  0.4411
 

 ---------------------------------------------------------------------------------

 No NMR shielding tensors so no spin-rotation constants.
 Leave Link  601 at Wed Nov 29 03:26:37 2023, MaxMem=  1879048192 cpu:               2.2 elap:               0.2
 (Enter /home/sekinelabo/g16/l701.exe)
 ... and contract with generalized density number  0.
 Compute integral first derivatives.
 Leave Link  701 at Wed Nov 29 03:26:37 2023, MaxMem=  1879048192 cpu:               1.5 elap:               0.1
 (Enter /home/sekinelabo/g16/l702.exe)
 L702 exits ... SP integral derivatives will be done elsewhere.
 Leave Link  702 at Wed Nov 29 03:26:37 2023, MaxMem=  1879048192 cpu:               0.4 elap:               0.0
 (Enter /home/sekinelabo/g16/l703.exe)
 Integral derivatives from FoFJK, PRISM(SPDF).
 Compute integral first derivatives, UseDBF=F ICtDFT=           0.
 Calling FoFJK, ICntrl=      2127 FMM=F ISym2X=0 I1Cent= 0 IOpClX= 1 NMat=1 NMatS=1 NMatT=0.
 FoFJK:  IHMeth= 1 ICntrl=    2127 DoSepK=F KAlg= 0 I1Cent=           0 FoldK=F
 IRaf=         0 NMat=       1 IRICut=       1 DoRegI=T DoRafI=F ISym2E= 0 IDoP0=0 IntGTp=1.
 FoFCou: FMM=F IPFlag=           0 FMFlag=      100000 FMFlg1=         800
         NFxFlg=           0 DoJE=F BraDBF=F KetDBF=F FulRan=T
         wScrn=  0.000000 ICntrl=      2127 IOpCl=  1 I1Cent=           0 NGrid=           0
         NMat0=    1 NMatS0=      1 NMatT0=    0 NMatD0=    1 NMtDS0=    0 NMtDT0=    0
 Symmetry not used in FoFCou.
 Leave Link  703 at Wed Nov 29 03:26:39 2023, MaxMem=  1879048192 cpu:              26.9 elap:               1.8
 (Enter /home/sekinelabo/g16/l716.exe)
 Dipole        = 1.82944279D-01 3.10446930D-01 1.26730276D-01
 ***** Axes restored to original set *****
 -------------------------------------------------------------------
 Center     Atomic                   Forces (Hartrees/Bohr)
 Number     Number              X              Y              Z
 -------------------------------------------------------------------
      1       11          -0.000799183   -0.001615402    0.000772011
      2       11           0.000092394    0.000277826   -0.000844817
      3       11          -0.001483161    0.001030185    0.001046147
      4       11          -0.001006560    0.000309886    0.000456028
      5       11           0.003377051   -0.000137636   -0.001577938
      6       11           0.001103393   -0.002485701    0.003956082
      7       11          -0.001283935    0.002620843   -0.003807513
 -------------------------------------------------------------------
 Cartesian Forces:  Max     0.003956082 RMS     0.001829531
 Z-matrix is all fixed cartesians, so copy forces.
 Force constants in Cartesian coordinates: 
                1             2             3             4             5 
      1  0.682053D-01
      2 -0.130888D-01  0.609857D-01
      3  0.104913D-01  0.106290D-02  0.713786D-01
      4 -0.109214D-01  0.868871D-02  0.416554D-02  0.308363D-01
      5 -0.539204D-02 -0.224390D-01 -0.701541D-02  0.441037D-02  0.283611D-01
      6 -0.434713D-02  0.328343D-02 -0.105731D-01  0.532616D-02  0.139363D-01
      7 -0.212267D-01  0.380664D-02  0.218593D-02 -0.254941D-01  0.310523D-02
      8  0.117580D-01 -0.947674D-02 -0.146003D-02 -0.132561D-01 -0.955562D-02
      9 -0.671540D-02  0.447304D-02 -0.135370D-01 -0.898534D-02 -0.637517D-02
     10 -0.224003D-01  0.142867D-02 -0.960158D-02  0.485376D-02 -0.269706D-02
     11  0.908311D-02 -0.124336D-01  0.197053D-02 -0.291282D-02  0.110866D-02
     12 -0.946476D-02 -0.814150D-02 -0.246732D-01 -0.332348D-03 -0.408695D-03
     13 -0.167341D-01 -0.347500D-02 -0.861968D-02  0.639438D-03  0.590447D-03
     14 -0.432822D-02 -0.208992D-01  0.508225D-02  0.317203D-02  0.250464D-02
     15  0.100641D-01  0.574286D-03 -0.228316D-01 -0.248218D-03 -0.122376D-03
     16  0.299825D-02  0.273353D-02  0.131041D-02  0.860112D-04 -0.169553D-04
     17  0.192832D-02  0.430990D-02  0.325574D-03 -0.102209D-03  0.201482D-04
     18 -0.325660D-04 -0.124685D-02  0.232468D-03  0.742023D-04 -0.146274D-04
     19  0.789374D-04 -0.938026D-04  0.680997D-04  0.000000D+00  0.000000D+00
     20  0.396352D-04 -0.470992D-04  0.341935D-04  0.000000D+00  0.000000D+00
     21  0.445297D-05 -0.529153D-05  0.384160D-05  0.000000D+00  0.000000D+00
                6             7             8             9            10 
      6  0.195074D-01
      7  0.255138D-02  0.625205D-01
      8 -0.762348D-02 -0.308097D-02  0.240006D-01
      9 -0.816416D-02  0.629501D-03  0.140781D-01  0.310045D-01
     10 -0.266858D-02 -0.165129D-01  0.513315D-02  0.109936D-01  0.499865D-01
     11 -0.572049D-02 -0.706111D-02 -0.716425D-02 -0.976356D-02  0.502754D-04
     12 -0.100603D-02 -0.908542D-02 -0.500887D-02 -0.133227D-01  0.122200D-01
     13 -0.918748D-03  0.663924D-03 -0.645128D-03  0.406571D-02 -0.166075D-01
     14 -0.380809D-02  0.328937D-02  0.225896D-02 -0.236665D-02 -0.400629D-02
     15  0.186800D-03  0.367578D-02 -0.427121D-04  0.399400D-02 -0.111013D-01
     16  0.569227D-04  0.493510D-04  0.910733D-04  0.119056D-04  0.681094D-03
     17 -0.676421D-04 -0.591696D-04 -0.629460D-04 -0.457726D-04  0.915748D-04
     18  0.491075D-04  0.428257D-04  0.569729D-04  0.253554D-04  0.157861D-03
     19  0.000000D+00  0.000000D+00  0.000000D+00  0.000000D+00  0.000000D+00
     20  0.000000D+00  0.000000D+00  0.000000D+00  0.000000D+00  0.000000D+00
     21  0.000000D+00  0.000000D+00  0.000000D+00  0.000000D+00  0.000000D+00
               11            12            13            14            15 
     11  0.238712D-01
     12  0.180868D-01  0.477947D-01
     13 -0.151434D-02  0.227564D-02  0.476029D-01
     14 -0.614215D-02 -0.484953D-02  0.611153D-02  0.382000D-01
     15 -0.490754D-02 -0.993725D-02  0.154473D-02  0.886835D-02  0.470961D-01
     16  0.239958D-02  0.436577D-02 -0.162774D-01 -0.274169D-02 -0.485994D-02
     17  0.782541D-03  0.311203D-03  0.491185D-03 -0.192712D-01 -0.231143D-02
     18  0.336797D-03  0.114342D-02  0.293262D-02 -0.566703D-02 -0.168220D-01
     19 -0.447001D-04  0.211237D-04  0.712689D-03 -0.149673D-02  0.924792D-03
     20 -0.224443D-04  0.106064D-04 -0.155869D-02  0.334891D-02 -0.205858D-02
     21 -0.252159D-05  0.119161D-05 -0.128027D-02  0.274071D-02 -0.168609D-02
               16            17            18            19            20 
     16  0.151929D-01
     17 -0.783208D-02  0.259308D-01
     18 -0.627059D-04 -0.119367D-02  0.274866D-01
     19 -0.273021D-02  0.548238D-02 -0.311224D-02  0.193925D-02
     20  0.536654D-02 -0.117093D-01  0.772842D-02 -0.384715D-02  0.842993D-02
     21 -0.822369D-03  0.298174D-02 -0.121150D-01  0.209822D-02 -0.571464D-02
               21 
     21  0.137961D-01
 Leave Link  716 at Wed Nov 29 03:26:39 2023, MaxMem=  1879048192 cpu:               0.4 elap:               0.0
 (Enter /home/sekinelabo/g16/l103.exe)

 GradGradGradGradGradGradGradGradGradGradGradGradGradGradGradGradGradGrad
 Berny optimization.
 Search for a local minimum.
 Step number   1 out of a maximum of    2
 All quantities printed in internal units (Hartrees-Bohrs-Radians)
 Second derivative matrix not updated -- first step.
 ITU=  0
     Eigenvalues ---    0.00151   0.00293   0.01094   0.01297   0.01854
     Eigenvalues ---    0.02288   0.04405   0.04542   0.05726   0.06710
     Eigenvalues ---    0.06887   0.08261   0.09559   0.09906   0.11107
 Angle between quadratic step and forces=  37.48 degrees.
 Linear search not attempted -- first point.
 B after Tr=     0.000000    0.000000    0.000000
         Rot=    1.000000    0.000000    0.000000   -0.000000 Ang=   0.00 deg.
 Variable       Old X    -DE/DX   Delta X   Delta X   Delta X     New X
                                 (Linear)    (Quad)   (Total)
    X1       29.24465  -0.00080   0.00000  -0.04800  -0.04800  29.19665
    Y1       29.45478  -0.00162   0.00000  -0.03628  -0.03628  29.41851
    Z1       24.02579   0.00077   0.00000   0.05218   0.05218  24.07797
    X2       30.16154   0.00009   0.00000  -0.00306  -0.00306  30.15848
    Y2       23.58095   0.00028   0.00000   0.01629   0.01629  23.59723
    Z2       20.89073  -0.00084   0.00000  -0.00034  -0.00034  20.89039
    X3       35.25624  -0.00148   0.00000  -0.04362  -0.04362  35.21262
    Y3       26.26568   0.00103   0.00000   0.06496   0.06496  26.33064
    Z3       23.34681   0.00105   0.00000   0.02178   0.02178  23.36859
    X4       33.07833  -0.00101   0.00000  -0.03112  -0.03112  33.04721
    Y4       30.09086   0.00031   0.00000  -0.00031  -0.00031  30.09056
    Z4       28.85952   0.00046   0.00000   0.01788   0.01788  28.87740
    X5       25.70046   0.00338   0.00000   0.08717   0.08717  25.78763
    Y5       30.60997  -0.00014   0.00000  -0.06483  -0.06483  30.54514
    Z5       29.72520  -0.00158   0.00000   0.03130   0.03130  29.75651
    X6       24.01369   0.00110   0.00000   0.10366   0.10366  24.11735
    Y6       33.32891  -0.00249   0.00000  -0.04286  -0.04286  33.28605
    Z6       35.42556   0.00396   0.00000   0.03964   0.03964  35.46521
    X7       25.54985  -0.00128   0.00000  -0.06502  -0.06502  25.48483
    Y7       29.67342   0.00262   0.00000   0.06303   0.06303  29.73645
    Z7       40.73116  -0.00381   0.00000  -0.16245  -0.16245  40.56871
         Item               Value     Threshold  Converged?
 Maximum Force            0.003956     0.000450     NO 
 RMS     Force            0.001830     0.000300     NO 
 Maximum Displacement     0.162448     0.001800     NO 
 RMS     Displacement     0.060170     0.001200     NO 
 Predicted change in Energy=-9.172117D-04
 GradGradGradGradGradGradGradGradGradGradGradGradGradGradGradGradGradGrad

 Leave Link  103 at Wed Nov 29 03:26:39 2023, MaxMem=  1879048192 cpu:               0.2 elap:               0.0
 (Enter /home/sekinelabo/g16/l9999.exe)
 1\1\GINC-SEKINELABO-XA7R-R37\Force\UB3LYP\6-311+G(d)\Na7(2)\SEKINELABO
 \29-Nov-2023\0\\#P B3LYP/6-311+g(d) force\\DPGEN\\0,2\Na,15.4756,15.58
 68,12.7139\Na,15.9608,12.4785,11.0549\Na,18.6568,13.8992,12.3546\Na,17
 .5043,15.9234,15.2718\Na,13.6001,16.1981,15.7299\Na,12.7075,17.6369,18
 .7464\Na,13.5204,15.7025,21.554\\Version=ES64L-G16RevB.01\State=2-A\HF
 =-1136.1138925\S2=0.815551\S2-1=0.\S2A=0.752012\RMSD=7.401e-09\RMSF=1.
 830e-03\Dipole=0.3151861,-0.2153332,0.0139928\Quadrupole=-0.781358,-0.
 8547601,1.6361181,-1.1447318,1.1019226,-1.5084095\PG=C01 [X(Na7)]\\@


 WAR ES EIN GOTT DER DIESE ZEICHEN SCHRIEB?
          - LUDWIG BOLTZMANN, QUOTING GOETHE, ABOUT MAXWELL'S EQUATIONS.
 Job cpu time:       0 days  0 hours  3 minutes 29.4 seconds.
 Elapsed time:       0 days  0 hours  0 minutes 18.4 seconds.
 File lengths (MBytes):  RWF=     32 Int=      0 D2E=      0 Chk=      4 Scr=      1
 Normal termination of Gaussian 16 at Wed Nov 29 03:26:39 2023.
