 Set GAUSS_MDEF to "14GB".
 Entering Gaussian System, Link 0=g16
 Initial command:
 /home/sekinelabo/g16/l1.exe "/home/sekinelabo/g16temp/Gau-1400576.inp" -scrdir="/home/sekinelabo/g16temp/"
 Entering Link 1 = /home/sekinelabo/g16/l1.exe PID=   1400578.
  
 Copyright (c) 1988-2017, Gaussian, Inc.  All Rights Reserved.
  
 This is part of the Gaussian(R) 16 program.  It is based on
 the Gaussian(R) 09 system (copyright 2009, Gaussian, Inc.),
 the Gaussian(R) 03 system (copyright 2003, Gaussian, Inc.),
 the Gaussian(R) 98 system (copyright 1998, Gaussian, Inc.),
 the Gaussian(R) 94 system (copyright 1995, Gaussian, Inc.),
 the Gaussian 92(TM) system (copyright 1992, Gaussian, Inc.),
 the Gaussian 90(TM) system (copyright 1990, Gaussian, Inc.),
 the Gaussian 88(TM) system (copyright 1988, Gaussian, Inc.),
 the Gaussian 86(TM) system (copyright 1986, Carnegie Mellon
 University), and the Gaussian 82(TM) system (copyright 1983,
 Carnegie Mellon University). Gaussian is a federally registered
 trademark of Gaussian, Inc.
  
 This software contains proprietary and confidential information,
 including trade secrets, belonging to Gaussian, Inc.
  
 This software is provided under written license and may be
 used, copied, transmitted, or stored only in accord with that
 written license.
  
 The following legend is applicable only to US Government
 contracts under FAR:
  
                    RESTRICTED RIGHTS LEGEND
  
 Use, reproduction and disclosure by the US Government is
 subject to restrictions as set forth in subparagraphs (a)
 and (c) of the Commercial Computer Software - Restricted
 Rights clause in FAR 52.227-19.
  
 Gaussian, Inc.
 340 Quinnipiac St., Bldg. 40, Wallingford CT 06492
  
  
 ---------------------------------------------------------------
 Warning -- This program may not be used in any manner that
 competes with the business of Gaussian, Inc. or will provide
 assistance to any competitor of Gaussian, Inc.  The licensee
 of this program is prohibited from giving any competitor of
 Gaussian, Inc. access to this program.  By using this program,
 the user acknowledges that Gaussian, Inc. is engaged in the
 business of creating and licensing software in the field of
 computational chemistry and represents and warrants to the
 licensee that it is not a competitor of Gaussian, Inc. and that
 it will not use this program in any manner prohibited above.
 ---------------------------------------------------------------
  

 Cite this work as:
 Gaussian 16, Revision B.01,
 M. J. Frisch, G. W. Trucks, H. B. Schlegel, G. E. Scuseria, 
 M. A. Robb, J. R. Cheeseman, G. Scalmani, V. Barone, 
 G. A. Petersson, H. Nakatsuji, X. Li, M. Caricato, A. V. Marenich, 
 J. Bloino, B. G. Janesko, R. Gomperts, B. Mennucci, H. P. Hratchian, 
 J. V. Ortiz, A. F. Izmaylov, J. L. Sonnenberg, D. Williams-Young, 
 F. Ding, F. Lipparini, F. Egidi, J. Goings, B. Peng, A. Petrone, 
 T. Henderson, D. Ranasinghe, V. G. Zakrzewski, J. Gao, N. Rega, 
 G. Zheng, W. Liang, M. Hada, M. Ehara, K. Toyota, R. Fukuda, 
 J. Hasegawa, M. Ishida, T. Nakajima, Y. Honda, O. Kitao, H. Nakai, 
 T. Vreven, K. Throssell, J. A. Montgomery, Jr., J. E. Peralta, 
 F. Ogliaro, M. J. Bearpark, J. J. Heyd, E. N. Brothers, K. N. Kudin, 
 V. N. Staroverov, T. A. Keith, R. Kobayashi, J. Normand, 
 K. Raghavachari, A. P. Rendell, J. C. Burant, S. S. Iyengar, 
 J. Tomasi, M. Cossi, J. M. Millam, M. Klene, C. Adamo, R. Cammi, 
 J. W. Ochterski, R. L. Martin, K. Morokuma, O. Farkas, 
 J. B. Foresman, and D. J. Fox, Gaussian, Inc., Wallingford CT, 2016.
 
 ******************************************
 Gaussian 16:  ES64L-G16RevB.01 20-Dec-2017
                 7-Dec-2023 
 ******************************************
 %nproc=15
 Will use up to   15 processors via shared memory.
 -------------------------
 #P B3LYP/6-311+g(d) force
 -------------------------
 1/10=7,30=1,38=1/1,3;
 2/12=2,17=6,18=5,40=1/2;
 3/5=4,6=6,7=11,11=2,25=1,30=1,71=1,74=-5/1,2,3;
 4//1;
 5/5=2,38=5/2;
 6/7=2,8=2,9=2,10=2,28=1/1;
 7/29=1/1,2,3,16;
 1/10=7,30=1/3;
 99//99;
 Leave Link    1 at Thu Dec  7 14:51:42 2023, MaxMem=           0 cpu:               0.3 elap:               0.0
 (Enter /home/sekinelabo/g16/l101.exe)
 -----
 DPGEN
 -----
 Symbolic Z-matrix:
 Charge =  0 Multiplicity = 2
 Na                    11.6072   12.5152   9.20153 
 Na                    13.7262   10.6764   11.0831 
 Na                    11.8011   13.3229   12.4693 
 Na                    8.78315   13.5093   9.64507 
 Na                    10.1982   10.0912   11.1065 
 Na                    14.0929   12.0233   14.8261 
 Na                    12.0215   10.0918   13.8986 
 
 ITRead=  0  0  0  0  0  0  0
 MicOpt= -1 -1 -1 -1 -1 -1 -1
 NAtoms=      7 NQM=        7 NQMF=       0 NMMI=      0 NMMIF=      0
                NMic=       0 NMicF=      0.
                    Isotopes and Nuclear Properties:
 (Nuclear quadrupole moments (NQMom) in fm**2, nuclear magnetic moments (NMagM)
  in nuclear magnetons)

  Atom         1           2           3           4           5           6           7
 IAtWgt=          23          23          23          23          23          23          23
 AtmWgt=  22.9897697  22.9897697  22.9897697  22.9897697  22.9897697  22.9897697  22.9897697
 NucSpn=           3           3           3           3           3           3           3
 AtZEff=  -0.0000000  -0.0000000  -0.0000000  -0.0000000  -0.0000000  -0.0000000  -0.0000000
 NQMom=   10.4000000  10.4000000  10.4000000  10.4000000  10.4000000  10.4000000  10.4000000
 NMagM=    2.2175200   2.2175200   2.2175200   2.2175200   2.2175200   2.2175200   2.2175200
 AtZNuc=  11.0000000  11.0000000  11.0000000  11.0000000  11.0000000  11.0000000  11.0000000
 Leave Link  101 at Thu Dec  7 14:51:42 2023, MaxMem=  1879048192 cpu:               2.4 elap:               0.2
 (Enter /home/sekinelabo/g16/l103.exe)

 GradGradGradGradGradGradGradGradGradGradGradGradGradGradGradGradGradGrad
 Berny optimization.
 Initialization pass.
 Trust Radius=3.00D-01 FncErr=1.00D-07 GrdErr=1.00D-07 EigMax=2.50D+02 EigMin=1.00D-04
 Number of steps in this run=      2 maximum allowed number of steps=      2.
 GradGradGradGradGradGradGradGradGradGradGradGradGradGradGradGradGradGrad

 Leave Link  103 at Thu Dec  7 14:51:42 2023, MaxMem=  1879048192 cpu:               0.2 elap:               0.0
 (Enter /home/sekinelabo/g16/l202.exe)
                          Input orientation:                          
 ---------------------------------------------------------------------
 Center     Atomic      Atomic             Coordinates (Angstroms)
 Number     Number       Type             X           Y           Z
 ---------------------------------------------------------------------
      1         11           0       11.607200   12.515200    9.201530
      2         11           0       13.726200   10.676400   11.083100
      3         11           0       11.801100   13.322900   12.469300
      4         11           0        8.783150   13.509300    9.645070
      5         11           0       10.198200   10.091200   11.106500
      6         11           0       14.092900   12.023300   14.826100
      7         11           0       12.021500   10.091800   13.898600
 ---------------------------------------------------------------------
                    Distance matrix (angstroms):
                    1          2          3          4          5
     1  Na   0.000000
     2  Na   3.378114   0.000000
     3  Na   3.371691   3.554085   0.000000
     4  Na   3.026586   5.875968   4.137516   0.000000
     5  Na   3.389685   3.576282   3.856215   3.977631   0.000000
     6  Na   6.168992   3.994829   3.534942   7.566024   5.721636
     7  Na   5.301602   3.342873   3.539983   6.344977   3.334703
                    6          7
     6  Na   0.000000
     7  Na   2.980209   0.000000
 Stoichiometry    Na7(2)
 Framework group  C1[X(Na7)]
 Deg. of freedom    15
 Full point group                 C1      NOp   1
 Largest Abelian subgroup         C1      NOp   1
 Largest concise Abelian subgroup C1      NOp   1
                         Standard orientation:                         
 ---------------------------------------------------------------------
 Center     Atomic      Atomic             Coordinates (Angstroms)
 Number     Number       Type             X           Y           Z
 ---------------------------------------------------------------------
      1         11           0       -2.184997   -0.133277    1.515850
      2         11           0        0.991369    0.949733    1.902428
      3         11           0        0.169013   -1.695093   -0.324711
      4         11           0       -3.839610   -0.856188   -0.913116
      5         11           0       -1.004190    1.933382   -0.897567
      6         11           0        3.668326   -1.263663   -0.070751
      7         11           0        2.200088    1.065107   -1.212133
 ---------------------------------------------------------------------
 Rotational constants (GHZ):           1.0919557           0.4489054           0.4324849
 Leave Link  202 at Thu Dec  7 14:51:42 2023, MaxMem=  1879048192 cpu:               0.0 elap:               0.0
 (Enter /home/sekinelabo/g16/l301.exe)
 Standard basis: 6-311+G(d) (5D, 7F)
 Ernie: Thresh=  0.10000D-02 Tol=  0.10000D-05 Strict=F.
 There are   217 symmetry adapted cartesian basis functions of A   symmetry.
 There are   210 symmetry adapted basis functions of A   symmetry.
   210 basis functions,   350 primitive gaussians,   217 cartesian basis functions
    39 alpha electrons       38 beta electrons
       nuclear repulsion energy       337.2585542868 Hartrees.
 IExCor=  402 DFT=T Ex+Corr=B3LYP ExCW=0 ScaHFX=  0.200000
 ScaDFX=  0.800000  0.720000  1.000000  0.810000 ScalE2=  1.000000  1.000000
 IRadAn=      5 IRanWt=     -1 IRanGd=            0 ICorTp=0 IEmpDi=  4
 NAtoms=    7 NActive=    7 NUniq=    7 SFac= 1.00D+00 NAtFMM=   60 NAOKFM=F Big=F
 Integral buffers will be    131072 words long.
 Raffenetti 2 integral format.
 Two-electron integral symmetry is turned on.
 Leave Link  301 at Thu Dec  7 14:51:42 2023, MaxMem=  1879048192 cpu:               0.5 elap:               0.0
 (Enter /home/sekinelabo/g16/l302.exe)
 NPDir=0 NMtPBC=     1 NCelOv=     1 NCel=       1 NClECP=     1 NCelD=      1
         NCelK=      1 NCelE2=     1 NClLst=     1 CellRange=     0.0.
 One-electron integrals computed using PRISM.
 One-electron integral symmetry used in STVInt
 NBasis=   210 RedAO= T EigKep=  5.74D-06  NBF=   210
 NBsUse=   210 1.00D-06 EigRej= -1.00D+00 NBFU=   210
 Precomputing XC quadrature grid using
 IXCGrd= 4 IRadAn=           5 IRanWt=          -1 IRanGd=           0 AccXCQ= 0.00D+00.
 Generated NRdTot=       0 NPtTot=           0 NUsed=           0 NTot=          32
 NSgBfM=   211   211   211   211   211 MxSgAt=     7 MxSgA2=     7.
 Leave Link  302 at Thu Dec  7 14:51:42 2023, MaxMem=  1879048192 cpu:               2.0 elap:               0.1
 (Enter /home/sekinelabo/g16/l303.exe)
 DipDrv:  MaxL=1.
 Leave Link  303 at Thu Dec  7 14:51:42 2023, MaxMem=  1879048192 cpu:               0.5 elap:               0.0
 (Enter /home/sekinelabo/g16/l401.exe)
 ExpMin= 7.60D-03 ExpMax= 3.62D+04 ExpMxC= 1.21D+03 IAcc=3 IRadAn=         5 AccDes= 0.00D+00
 Harris functional with IExCor=  402 and IRadAn=       5 diagonalized for initial guess.
 HarFok:  IExCor=  402 AccDes= 0.00D+00 IRadAn=         5 IDoV= 1 UseB2=F ITyADJ=14
 ICtDFT=  3500011 ScaDFX=  1.000000  1.000000  1.000000  1.000000
 FoFCou: FMM=F IPFlag=           0 FMFlag=      100000 FMFlg1=           0
         NFxFlg=           0 DoJE=T BraDBF=F KetDBF=T FulRan=T
         wScrn=  0.000000 ICntrl=       500 IOpCl=  0 I1Cent=   200000004 NGrid=           0
         NMat0=    1 NMatS0=      1 NMatT0=    0 NMatD0=    1 NMtDS0=    0 NMtDT0=    0
 Petite list used in FoFCou.
 Harris En= -1135.89106827258    
 JPrj=0 DoOrth=F DoCkMO=F.
 Initial guess <Sx>= 0.0000 <Sy>= 0.0000 <Sz>= 0.5000 <S**2>= 0.7500 S= 0.5000
 Leave Link  401 at Thu Dec  7 14:51:42 2023, MaxMem=  1879048192 cpu:               4.4 elap:               0.3
 (Enter /home/sekinelabo/g16/l502.exe)
 Keep R1 and R2 ints in memory in canonical form, NReq=506573307.
 FoFCou: FMM=F IPFlag=           0 FMFlag=           0 FMFlg1=           0
         NFxFlg=           0 DoJE=F BraDBF=F KetDBF=F FulRan=T
         wScrn=  0.000000 ICntrl=       600 IOpCl=  0 I1Cent=           0 NGrid=           0
         NMat0=    1 NMatS0=  22155 NMatT0=    0 NMatD0=    1 NMtDS0=    0 NMtDT0=    0
 Symmetry not used in FoFCou.
 Two-electron integral symmetry not used.
 UHF open shell SCF:
 Using DIIS extrapolation, IDIIS=  1040.
 NGot=  1879048192 LenX=  1388082593 LenY=  1388035063
 Requested convergence on RMS density matrix=1.00D-08 within 128 cycles.
 Requested convergence on MAX density matrix=1.00D-06.
 Requested convergence on             energy=1.00D-06.
 No special actions if energy rises.

 Cycle   1  Pass 1  IDiag  1:
 E= -1136.08624150229    
 DIIS: error= 1.39D-02 at cycle   1 NSaved=   1.
 NSaved= 1 IEnMin= 1 EnMin= -1136.08624150229     IErMin= 1 ErrMin= 1.39D-02
 ErrMax= 1.39D-02  0.00D+00 EMaxC= 1.00D-01 BMatC= 1.91D-01 BMatP= 1.91D-01
 IDIUse=3 WtCom= 8.61D-01 WtEn= 1.39D-01
 Coeff-Com:  0.100D+01
 Coeff-En:   0.100D+01
 Coeff:      0.100D+01
 Gap=     0.036 Goal=   None    Shift=    0.000
 Gap=     0.033 Goal=   None    Shift=    0.000
 GapD=    0.033 DampG=0.250 DampE=0.500 DampFc=0.2500 IDamp=-1.
 Damping current iteration by 2.50D-01
 RMSDP=2.36D-02 MaxDP=1.79D+00              OVMax= 2.77D-01

 Cycle   2  Pass 1  IDiag  1:
 E= -1136.09854589701     Delta-E=       -0.012304394720 Rises=F Damp=T
 DIIS: error= 9.81D-03 at cycle   2 NSaved=   2.
 NSaved= 2 IEnMin= 2 EnMin= -1136.09854589701     IErMin= 2 ErrMin= 9.81D-03
 ErrMax= 9.81D-03  0.00D+00 EMaxC= 1.00D-01 BMatC= 7.25D-02 BMatP= 1.91D-01
 IDIUse=3 WtCom= 9.02D-01 WtEn= 9.81D-02
 Coeff-Com: -0.124D+01 0.224D+01
 Coeff-En:   0.000D+00 0.100D+01
 Coeff:     -0.112D+01 0.212D+01
 Gap=     0.045 Goal=   None    Shift=    0.000
 Gap=     0.037 Goal=   None    Shift=    0.000
 RMSDP=1.06D-02 MaxDP=7.62D-01 DE=-1.23D-02 OVMax= 2.48D-01

 Cycle   3  Pass 1  IDiag  1:
 E= -1136.11769168681     Delta-E=       -0.019145789807 Rises=F Damp=F
 DIIS: error= 3.89D-03 at cycle   3 NSaved=   3.
 NSaved= 3 IEnMin= 3 EnMin= -1136.11769168681     IErMin= 3 ErrMin= 3.89D-03
 ErrMax= 3.89D-03  0.00D+00 EMaxC= 1.00D-01 BMatC= 4.71D-03 BMatP= 7.25D-02
 IDIUse=3 WtCom= 9.61D-01 WtEn= 3.89D-02
 Coeff-Com: -0.305D+00 0.541D+00 0.764D+00
 Coeff-En:   0.000D+00 0.000D+00 0.100D+01
 Coeff:     -0.293D+00 0.520D+00 0.773D+00
 Gap=     0.041 Goal=   None    Shift=    0.000
 Gap=     0.035 Goal=   None    Shift=    0.000
 RMSDP=5.06D-03 MaxDP=3.50D-01 DE=-1.91D-02 OVMax= 1.29D-01

 Cycle   4  Pass 1  IDiag  1:
 E= -1136.11796945524     Delta-E=       -0.000277768428 Rises=F Damp=F
 DIIS: error= 3.34D-03 at cycle   4 NSaved=   4.
 NSaved= 4 IEnMin= 4 EnMin= -1136.11796945524     IErMin= 4 ErrMin= 3.34D-03
 ErrMax= 3.34D-03  0.00D+00 EMaxC= 1.00D-01 BMatC= 4.33D-03 BMatP= 4.71D-03
 IDIUse=3 WtCom= 9.67D-01 WtEn= 3.34D-02
 Coeff-Com:  0.253D-02-0.232D-02 0.489D+00 0.511D+00
 Coeff-En:   0.000D+00 0.000D+00 0.487D+00 0.513D+00
 Coeff:      0.244D-02-0.225D-02 0.489D+00 0.511D+00
 Gap=     0.042 Goal=   None    Shift=    0.000
 Gap=     0.035 Goal=   None    Shift=    0.000
 RMSDP=2.22D-03 MaxDP=1.44D-01 DE=-2.78D-04 OVMax= 7.38D-02

 Cycle   5  Pass 1  IDiag  1:
 E= -1136.12193974017     Delta-E=       -0.003970284927 Rises=F Damp=F
 DIIS: error= 6.76D-04 at cycle   5 NSaved=   5.
 NSaved= 5 IEnMin= 5 EnMin= -1136.12193974017     IErMin= 5 ErrMin= 6.76D-04
 ErrMax= 6.76D-04  0.00D+00 EMaxC= 1.00D-01 BMatC= 1.55D-04 BMatP= 4.33D-03
 IDIUse=3 WtCom= 9.93D-01 WtEn= 6.76D-03
 Coeff-Com:  0.451D-02-0.733D-02 0.290D+00 0.311D+00 0.402D+00
 Coeff-En:   0.000D+00 0.000D+00 0.000D+00 0.000D+00 0.100D+01
 Coeff:      0.448D-02-0.728D-02 0.288D+00 0.309D+00 0.406D+00
 Gap=     0.042 Goal=   None    Shift=    0.000
 Gap=     0.034 Goal=   None    Shift=    0.000
 RMSDP=4.07D-04 MaxDP=2.54D-02 DE=-3.97D-03 OVMax= 1.82D-02

 Cycle   6  Pass 1  IDiag  1:
 E= -1136.12213778670     Delta-E=       -0.000198046529 Rises=F Damp=F
 DIIS: error= 2.27D-04 at cycle   6 NSaved=   6.
 NSaved= 6 IEnMin= 6 EnMin= -1136.12213778670     IErMin= 6 ErrMin= 2.27D-04
 ErrMax= 2.27D-04  0.00D+00 EMaxC= 1.00D-01 BMatC= 1.28D-05 BMatP= 1.55D-04
 IDIUse=3 WtCom= 9.98D-01 WtEn= 2.27D-03
 Coeff-Com: -0.115D-02 0.776D-03-0.209D-01-0.272D-01 0.183D+00 0.866D+00
 Coeff-En:   0.000D+00 0.000D+00 0.000D+00 0.000D+00 0.243D-01 0.976D+00
 Coeff:     -0.115D-02 0.775D-03-0.209D-01-0.272D-01 0.182D+00 0.866D+00
 Gap=     0.042 Goal=   None    Shift=    0.000
 Gap=     0.035 Goal=   None    Shift=    0.000
 RMSDP=3.16D-04 MaxDP=2.38D-02 DE=-1.98D-04 OVMax= 9.46D-03

 Cycle   7  Pass 1  IDiag  1:
 E= -1136.12216397103     Delta-E=       -0.000026184338 Rises=F Damp=F
 DIIS: error= 6.81D-05 at cycle   7 NSaved=   7.
 NSaved= 7 IEnMin= 7 EnMin= -1136.12216397103     IErMin= 7 ErrMin= 6.81D-05
 ErrMax= 6.81D-05  0.00D+00 EMaxC= 1.00D-01 BMatC= 2.75D-06 BMatP= 1.28D-05
 IDIUse=1 WtCom= 1.00D+00 WtEn= 0.00D+00
 Coeff-Com: -0.124D-02 0.138D-02-0.422D-01-0.471D-01 0.492D-01 0.417D+00
 Coeff-Com:  0.623D+00
 Coeff:     -0.124D-02 0.138D-02-0.422D-01-0.471D-01 0.492D-01 0.417D+00
 Coeff:      0.623D+00
 Gap=     0.042 Goal=   None    Shift=    0.000
 Gap=     0.035 Goal=   None    Shift=    0.000
 RMSDP=1.04D-04 MaxDP=5.61D-03 DE=-2.62D-05 OVMax= 6.80D-03

 Cycle   8  Pass 1  IDiag  1:
 E= -1136.12217085490     Delta-E=       -0.000006883861 Rises=F Damp=F
 DIIS: error= 4.52D-05 at cycle   8 NSaved=   8.
 NSaved= 8 IEnMin= 8 EnMin= -1136.12217085490     IErMin= 8 ErrMin= 4.52D-05
 ErrMax= 4.52D-05  0.00D+00 EMaxC= 1.00D-01 BMatC= 9.76D-07 BMatP= 2.75D-06
 IDIUse=1 WtCom= 1.00D+00 WtEn= 0.00D+00
 Coeff-Com:  0.176D-03-0.166D-03-0.121D-01-0.113D-01-0.399D-01-0.117D+00
 Coeff-Com:  0.341D+00 0.840D+00
 Coeff:      0.176D-03-0.166D-03-0.121D-01-0.113D-01-0.399D-01-0.117D+00
 Coeff:      0.341D+00 0.840D+00
 Gap=     0.042 Goal=   None    Shift=    0.000
 Gap=     0.035 Goal=   None    Shift=    0.000
 RMSDP=9.69D-05 MaxDP=4.98D-03 DE=-6.88D-06 OVMax= 6.38D-03

 Cycle   9  Pass 1  IDiag  1:
 E= -1136.12217577666     Delta-E=       -0.000004921762 Rises=F Damp=F
 DIIS: error= 3.52D-05 at cycle   9 NSaved=   9.
 NSaved= 9 IEnMin= 9 EnMin= -1136.12217577666     IErMin= 9 ErrMin= 3.52D-05
 ErrMax= 3.52D-05  0.00D+00 EMaxC= 1.00D-01 BMatC= 2.01D-07 BMatP= 9.76D-07
 IDIUse=1 WtCom= 1.00D+00 WtEn= 0.00D+00
 Coeff-Com:  0.996D-03-0.125D-02 0.856D-02 0.830D-02-0.195D-01-0.925D-01
 Coeff-Com: -0.123D+00-0.101D+00 0.132D+01
 Coeff:      0.996D-03-0.125D-02 0.856D-02 0.830D-02-0.195D-01-0.925D-01
 Coeff:     -0.123D+00-0.101D+00 0.132D+01
 Gap=     0.042 Goal=   None    Shift=    0.000
 Gap=     0.035 Goal=   None    Shift=    0.000
 RMSDP=1.04D-04 MaxDP=6.86D-03 DE=-4.92D-06 OVMax= 7.32D-03

 Cycle  10  Pass 1  IDiag  1:
 E= -1136.12217877829     Delta-E=       -0.000003001629 Rises=F Damp=F
 DIIS: error= 2.13D-05 at cycle  10 NSaved=  10.
 NSaved=10 IEnMin=10 EnMin= -1136.12217877829     IErMin=10 ErrMin= 2.13D-05
 ErrMax= 2.13D-05  0.00D+00 EMaxC= 1.00D-01 BMatC= 8.54D-08 BMatP= 2.01D-07
 IDIUse=1 WtCom= 1.00D+00 WtEn= 0.00D+00
 Coeff-Com: -0.344D-03 0.463D-03 0.435D-02 0.347D-02 0.127D-01 0.349D-01
 Coeff-Com: -0.533D-01-0.306D+00-0.638D-01 0.137D+01
 Coeff:     -0.344D-03 0.463D-03 0.435D-02 0.347D-02 0.127D-01 0.349D-01
 Coeff:     -0.533D-01-0.306D+00-0.638D-01 0.137D+01
 Gap=     0.042 Goal=   None    Shift=    0.000
 Gap=     0.035 Goal=   None    Shift=    0.000
 RMSDP=8.97D-05 MaxDP=4.99D-03 DE=-3.00D-06 OVMax= 5.82D-03

 Cycle  11  Pass 1  IDiag  1:
 E= -1136.12218027155     Delta-E=       -0.000001493267 Rises=F Damp=F
 DIIS: error= 1.20D-05 at cycle  11 NSaved=  11.
 NSaved=11 IEnMin=11 EnMin= -1136.12218027155     IErMin=11 ErrMin= 1.20D-05
 ErrMax= 1.20D-05  0.00D+00 EMaxC= 1.00D-01 BMatC= 3.48D-08 BMatP= 8.54D-08
 IDIUse=1 WtCom= 1.00D+00 WtEn= 0.00D+00
 Coeff-Com: -0.503D-03 0.639D-03-0.191D-02-0.207D-02 0.139D-01 0.587D-01
 Coeff-Com:  0.305D-01-0.124D+00-0.539D+00 0.449D+00 0.111D+01
 Coeff:     -0.503D-03 0.639D-03-0.191D-02-0.207D-02 0.139D-01 0.587D-01
 Coeff:      0.305D-01-0.124D+00-0.539D+00 0.449D+00 0.111D+01
 Gap=     0.042 Goal=   None    Shift=    0.000
 Gap=     0.035 Goal=   None    Shift=    0.000
 RMSDP=7.47D-05 MaxDP=3.91D-03 DE=-1.49D-06 OVMax= 4.52D-03

 Cycle  12  Pass 1  IDiag  1:
 E= -1136.12218091302     Delta-E=       -0.000000641468 Rises=F Damp=F
 DIIS: error= 6.30D-06 at cycle  12 NSaved=  12.
 NSaved=12 IEnMin=12 EnMin= -1136.12218091302     IErMin=12 ErrMin= 6.30D-06
 ErrMax= 6.30D-06  0.00D+00 EMaxC= 1.00D-01 BMatC= 1.08D-08 BMatP= 3.48D-08
 IDIUse=1 WtCom= 1.00D+00 WtEn= 0.00D+00
 Coeff-Com: -0.891D-05 0.121D-05-0.145D-02-0.117D-02-0.999D-03 0.956D-03
 Coeff-Com:  0.366D-01 0.711D-01-0.173D+00-0.253D+00 0.310D+00 0.101D+01
 Coeff:     -0.891D-05 0.121D-05-0.145D-02-0.117D-02-0.999D-03 0.956D-03
 Coeff:      0.366D-01 0.711D-01-0.173D+00-0.253D+00 0.310D+00 0.101D+01
 Gap=     0.042 Goal=   None    Shift=    0.000
 Gap=     0.035 Goal=   None    Shift=    0.000
 RMSDP=3.99D-05 MaxDP=1.91D-03 DE=-6.41D-07 OVMax= 1.96D-03

 Cycle  13  Pass 1  IDiag  1:
 E= -1136.12218108194     Delta-E=       -0.000000168923 Rises=F Damp=F
 DIIS: error= 5.42D-06 at cycle  13 NSaved=  13.
 NSaved=13 IEnMin=13 EnMin= -1136.12218108194     IErMin=13 ErrMin= 5.42D-06
 ErrMax= 5.42D-06  0.00D+00 EMaxC= 1.00D-01 BMatC= 5.34D-09 BMatP= 1.08D-08
 IDIUse=1 WtCom= 1.00D+00 WtEn= 0.00D+00
 Coeff-Com:  0.123D-03-0.161D-03-0.277D-03-0.141D-03-0.396D-02-0.140D-01
 Coeff-Com:  0.922D-02 0.653D-01 0.523D-01-0.205D+00-0.209D+00 0.454D+00
 Coeff-Com:  0.851D+00
 Coeff:      0.123D-03-0.161D-03-0.277D-03-0.141D-03-0.396D-02-0.140D-01
 Coeff:      0.922D-02 0.653D-01 0.523D-01-0.205D+00-0.209D+00 0.454D+00
 Coeff:      0.851D+00
 Gap=     0.042 Goal=   None    Shift=    0.000
 Gap=     0.035 Goal=   None    Shift=    0.000
 RMSDP=2.17D-05 MaxDP=9.95D-04 DE=-1.69D-07 OVMax= 9.48D-04

 Cycle  14  Pass 1  IDiag  1:
 E= -1136.12218115117     Delta-E=       -0.000000069226 Rises=F Damp=F
 DIIS: error= 4.20D-06 at cycle  14 NSaved=  14.
 NSaved=14 IEnMin=14 EnMin= -1136.12218115117     IErMin=14 ErrMin= 4.20D-06
 ErrMax= 4.20D-06  0.00D+00 EMaxC= 1.00D-01 BMatC= 2.79D-09 BMatP= 5.34D-09
 IDIUse=1 WtCom= 1.00D+00 WtEn= 0.00D+00
 Coeff-Com:  0.475D-04-0.583D-04 0.235D-03 0.132D-03-0.868D-03-0.408D-02
 Coeff-Com: -0.164D-01-0.912D-02 0.114D+00 0.605D-01-0.252D+00-0.384D+00
 Coeff-Com:  0.361D+00 0.113D+01
 Coeff:      0.475D-04-0.583D-04 0.235D-03 0.132D-03-0.868D-03-0.408D-02
 Coeff:     -0.164D-01-0.912D-02 0.114D+00 0.605D-01-0.252D+00-0.384D+00
 Coeff:      0.361D+00 0.113D+01
 Gap=     0.042 Goal=   None    Shift=    0.000
 Gap=     0.035 Goal=   None    Shift=    0.000
 RMSDP=2.15D-05 MaxDP=1.01D-03 DE=-6.92D-08 OVMax= 8.17D-04

 Cycle  15  Pass 1  IDiag  1:
 E= -1136.12218120467     Delta-E=       -0.000000053495 Rises=F Damp=F
 DIIS: error= 3.28D-06 at cycle  15 NSaved=  15.
 NSaved=15 IEnMin=15 EnMin= -1136.12218120467     IErMin=15 ErrMin= 3.28D-06
 ErrMax= 3.28D-06  0.00D+00 EMaxC= 1.00D-01 BMatC= 1.25D-09 BMatP= 2.79D-09
 IDIUse=1 WtCom= 1.00D+00 WtEn= 0.00D+00
 Coeff-Com: -0.623D-04 0.815D-04 0.355D-03 0.251D-03 0.201D-02 0.659D-02
 Coeff-Com: -0.248D-02-0.244D-01-0.743D-01 0.582D-01 0.255D+00-0.959D-01
 Coeff-Com: -0.586D+00-0.646D+00 0.211D+01
 Coeff:     -0.623D-04 0.815D-04 0.355D-03 0.251D-03 0.201D-02 0.659D-02
 Coeff:     -0.248D-02-0.244D-01-0.743D-01 0.582D-01 0.255D+00-0.959D-01
 Coeff:     -0.586D+00-0.646D+00 0.211D+01
 Gap=     0.042 Goal=   None    Shift=    0.000
 Gap=     0.035 Goal=   None    Shift=    0.000
 RMSDP=2.74D-05 MaxDP=1.30D-03 DE=-5.35D-08 OVMax= 1.09D-03

 Cycle  16  Pass 1  IDiag  1:
 E= -1136.12218125302     Delta-E=       -0.000000048352 Rises=F Damp=F
 DIIS: error= 1.93D-06 at cycle  16 NSaved=  16.
 NSaved=16 IEnMin=16 EnMin= -1136.12218125302     IErMin=16 ErrMin= 1.93D-06
 ErrMax= 1.93D-06  0.00D+00 EMaxC= 1.00D-01 BMatC= 5.03D-10 BMatP= 1.25D-09
 IDIUse=1 WtCom= 1.00D+00 WtEn= 0.00D+00
 Coeff-Com: -0.271D-04 0.334D-04-0.253D-03-0.118D-03 0.985D-04 0.259D-02
 Coeff-Com:  0.669D-02 0.655D-02-0.364D-01-0.575D-01 0.119D+00 0.205D+00
 Coeff-Com: -0.311D-01-0.595D+00-0.354D+00 0.173D+01
 Coeff:     -0.271D-04 0.334D-04-0.253D-03-0.118D-03 0.985D-04 0.259D-02
 Coeff:      0.669D-02 0.655D-02-0.364D-01-0.575D-01 0.119D+00 0.205D+00
 Coeff:     -0.311D-01-0.595D+00-0.354D+00 0.173D+01
 Gap=     0.042 Goal=   None    Shift=    0.000
 Gap=     0.035 Goal=   None    Shift=    0.000
 RMSDP=1.99D-05 MaxDP=8.83D-04 DE=-4.84D-08 OVMax= 8.70D-04

 Cycle  17  Pass 1  IDiag  1:
 E= -1136.12218127251     Delta-E=       -0.000000019488 Rises=F Damp=F
 DIIS: error= 7.18D-07 at cycle  17 NSaved=  17.
 NSaved=17 IEnMin=17 EnMin= -1136.12218127251     IErMin=17 ErrMin= 7.18D-07
 ErrMax= 7.18D-07  0.00D+00 EMaxC= 1.00D-01 BMatC= 1.13D-10 BMatP= 5.03D-10
 IDIUse=1 WtCom= 1.00D+00 WtEn= 0.00D+00
 Coeff-Com:  0.322D-04-0.419D-04-0.121D-03-0.859D-04-0.806D-03-0.280D-02
 Coeff-Com: -0.108D-02 0.848D-02 0.362D-01-0.209D-01-0.107D+00 0.887D-02
 Coeff-Com:  0.219D+00 0.290D+00-0.637D+00-0.299D+00 0.151D+01
 Coeff:      0.322D-04-0.419D-04-0.121D-03-0.859D-04-0.806D-03-0.280D-02
 Coeff:     -0.108D-02 0.848D-02 0.362D-01-0.209D-01-0.107D+00 0.887D-02
 Coeff:      0.219D+00 0.290D+00-0.637D+00-0.299D+00 0.151D+01
 Gap=     0.042 Goal=   None    Shift=    0.000
 Gap=     0.035 Goal=   None    Shift=    0.000
 RMSDP=8.52D-06 MaxDP=4.03D-04 DE=-1.95D-08 OVMax= 3.96D-04

 Cycle  18  Pass 1  IDiag  1:
 E= -1136.12218127607     Delta-E=       -0.000000003560 Rises=F Damp=F
 DIIS: error= 3.13D-07 at cycle  18 NSaved=  18.
 NSaved=18 IEnMin=18 EnMin= -1136.12218127607     IErMin=18 ErrMin= 3.13D-07
 ErrMax= 3.13D-07  0.00D+00 EMaxC= 1.00D-01 BMatC= 2.38D-11 BMatP= 1.13D-10
 IDIUse=1 WtCom= 1.00D+00 WtEn= 0.00D+00
 Coeff-Com:  0.652D-05-0.789D-05 0.721D-04 0.302D-04 0.305D-04-0.546D-03
 Coeff-Com: -0.210D-02-0.200D-02 0.632D-02 0.155D-01-0.235D-01-0.469D-01
 Coeff-Com: -0.113D-01 0.116D+00 0.149D+00-0.432D+00-0.121D-01 0.124D+01
 Coeff:      0.652D-05-0.789D-05 0.721D-04 0.302D-04 0.305D-04-0.546D-03
 Coeff:     -0.210D-02-0.200D-02 0.632D-02 0.155D-01-0.235D-01-0.469D-01
 Coeff:     -0.113D-01 0.116D+00 0.149D+00-0.432D+00-0.121D-01 0.124D+01
 Gap=     0.042 Goal=   None    Shift=    0.000
 Gap=     0.035 Goal=   None    Shift=    0.000
 RMSDP=2.89D-06 MaxDP=1.38D-04 DE=-3.56D-09 OVMax= 1.26D-04

 Cycle  19  Pass 1  IDiag  1:
 E= -1136.12218127653     Delta-E=       -0.000000000461 Rises=F Damp=F
 DIIS: error= 2.24D-07 at cycle  19 NSaved=  19.
 NSaved=19 IEnMin=19 EnMin= -1136.12218127653     IErMin=19 ErrMin= 2.24D-07
 ErrMax= 2.24D-07  0.00D+00 EMaxC= 1.00D-01 BMatC= 6.40D-12 BMatP= 2.38D-11
 IDIUse=1 WtCom= 1.00D+00 WtEn= 0.00D+00
 Coeff-Com: -0.100D-04 0.132D-04 0.323D-04 0.224D-04 0.176D-03 0.772D-03
 Coeff-Com:  0.493D-06-0.247D-02-0.821D-02 0.947D-02 0.213D-01-0.147D-01
 Coeff-Com: -0.488D-01-0.378D-01 0.152D+00 0.948D-03-0.330D+00 0.167D+00
 Coeff-Com:  0.109D+01
 Coeff:     -0.100D-04 0.132D-04 0.323D-04 0.224D-04 0.176D-03 0.772D-03
 Coeff:      0.493D-06-0.247D-02-0.821D-02 0.947D-02 0.213D-01-0.147D-01
 Coeff:     -0.488D-01-0.378D-01 0.152D+00 0.948D-03-0.330D+00 0.167D+00
 Coeff:      0.109D+01
 Gap=     0.042 Goal=   None    Shift=    0.000
 Gap=     0.035 Goal=   None    Shift=    0.000
 RMSDP=9.94D-07 MaxDP=4.68D-05 DE=-4.61D-10 OVMax= 4.00D-05

 Cycle  20  Pass 1  IDiag  1:
 E= -1136.12218127660     Delta-E=       -0.000000000069 Rises=F Damp=F
 DIIS: error= 1.01D-07 at cycle  20 NSaved=  20.
 NSaved=20 IEnMin=20 EnMin= -1136.12218127660     IErMin=20 ErrMin= 1.01D-07
 ErrMax= 1.01D-07  0.00D+00 EMaxC= 1.00D-01 BMatC= 1.40D-12 BMatP= 6.40D-12
 IDIUse=1 WtCom= 1.00D+00 WtEn= 0.00D+00
 Coeff-Com: -0.113D-05 0.131D-05-0.540D-05 0.281D-05-0.310D-05 0.524D-04
 Coeff-Com:  0.534D-03 0.438D-03-0.128D-02-0.356D-02 0.568D-02 0.908D-02
 Coeff-Com:  0.520D-02-0.287D-01-0.385D-01 0.116D+00-0.196D-01-0.323D+00
 Coeff-Com:  0.146D+00 0.113D+01
 Coeff:     -0.113D-05 0.131D-05-0.540D-05 0.281D-05-0.310D-05 0.524D-04
 Coeff:      0.534D-03 0.438D-03-0.128D-02-0.356D-02 0.568D-02 0.908D-02
 Coeff:      0.520D-02-0.287D-01-0.385D-01 0.116D+00-0.196D-01-0.323D+00
 Coeff:      0.146D+00 0.113D+01
 Gap=     0.042 Goal=   None    Shift=    0.000
 Gap=     0.035 Goal=   None    Shift=    0.000
 RMSDP=4.63D-07 MaxDP=2.29D-05 DE=-6.91D-11 OVMax= 1.53D-05

 Cycle  21  Pass 1  IDiag  1:
 E= -1136.12218127661     Delta-E=       -0.000000000015 Rises=F Damp=F
 DIIS: error= 2.99D-08 at cycle  21 NSaved=  20.
 NSaved=20 IEnMin=20 EnMin= -1136.12218127661     IErMin=20 ErrMin= 2.99D-08
 ErrMax= 2.99D-08  0.00D+00 EMaxC= 1.00D-01 BMatC= 1.66D-13 BMatP= 1.40D-12
 IDIUse=1 WtCom= 1.00D+00 WtEn= 0.00D+00
 Coeff-Com:  0.187D-06-0.542D-05-0.691D-05-0.364D-05 0.582D-05-0.215D-04
 Coeff-Com:  0.488D-04 0.735D-04 0.194D-03-0.203D-02 0.103D-02 0.237D-02
 Coeff-Com:  0.390D-02-0.718D-02-0.837D-02 0.333D-01 0.187D-01-0.158D+00
 Coeff-Com: -0.162D+00 0.128D+01
 Coeff:      0.187D-06-0.542D-05-0.691D-05-0.364D-05 0.582D-05-0.215D-04
 Coeff:      0.488D-04 0.735D-04 0.194D-03-0.203D-02 0.103D-02 0.237D-02
 Coeff:      0.390D-02-0.718D-02-0.837D-02 0.333D-01 0.187D-01-0.158D+00
 Coeff:     -0.162D+00 0.128D+01
 Gap=     0.042 Goal=   None    Shift=    0.000
 Gap=     0.035 Goal=   None    Shift=    0.000
 RMSDP=1.56D-07 MaxDP=8.70D-06 DE=-1.52D-11 OVMax= 4.65D-06

 Cycle  22  Pass 1  IDiag  1:
 E= -1136.12218127661     Delta-E=       -0.000000000000 Rises=F Damp=F
 DIIS: error= 9.08D-09 at cycle  22 NSaved=  20.
 NSaved=20 IEnMin=20 EnMin= -1136.12218127661     IErMin=20 ErrMin= 9.08D-09
 ErrMax= 9.08D-09  0.00D+00 EMaxC= 1.00D-01 BMatC= 2.96D-14 BMatP= 1.66D-13
 IDIUse=1 WtCom= 1.00D+00 WtEn= 0.00D+00
 Coeff-Com: -0.718D-06-0.516D-06-0.368D-05-0.200D-04-0.586D-04 0.249D-04
 Coeff-Com:  0.314D-03 0.199D-03-0.793D-03-0.685D-03-0.374D-03 0.411D-02
 Coeff-Com:  0.291D-02-0.152D-01 0.352D-02 0.439D-01-0.183D-01-0.167D+00
 Coeff-Com: -0.288D-01 0.118D+01
 Coeff:     -0.718D-06-0.516D-06-0.368D-05-0.200D-04-0.586D-04 0.249D-04
 Coeff:      0.314D-03 0.199D-03-0.793D-03-0.685D-03-0.374D-03 0.411D-02
 Coeff:      0.291D-02-0.152D-01 0.352D-02 0.439D-01-0.183D-01-0.167D+00
 Coeff:     -0.288D-01 0.118D+01
 Gap=     0.042 Goal=   None    Shift=    0.000
 Gap=     0.035 Goal=   None    Shift=    0.000
 RMSDP=5.25D-08 MaxDP=2.37D-06 DE=-2.27D-13 OVMax= 2.31D-06

 Cycle  23  Pass 1  IDiag  1:
 E= -1136.12218127660     Delta-E=        0.000000000011 Rises=F Damp=F
 DIIS: error= 2.75D-09 at cycle  23 NSaved=  20.
 NSaved=20 IEnMin=19 EnMin= -1136.12218127661     IErMin=20 ErrMin= 2.75D-09
 ErrMax= 2.75D-09  0.00D+00 EMaxC= 1.00D-01 BMatC= 5.06D-15 BMatP= 2.96D-14
 IDIUse=1 WtCom= 1.00D+00 WtEn= 0.00D+00
 Large coefficients: NSaved= 20 BigCof=    0.00 CofMax=   10.00 Det=-8.65D-15
 Inversion failed.  Reducing to 19 matrices.
 Large coefficients: NSaved= 19 BigCof=    0.00 CofMax=   10.00 Det=-8.74D-15
 Inversion failed.  Reducing to 18 matrices.
 Large coefficients: NSaved= 18 BigCof=    0.00 CofMax=   10.00 Det=-9.01D-15
 Inversion failed.  Reducing to 17 matrices.
 Large coefficients: NSaved= 17 BigCof=    0.00 CofMax=   10.00 Det=-9.20D-15
 Inversion failed.  Reducing to 16 matrices.
 Coeff-Com: -0.391D-05-0.935D-05-0.155D-04 0.232D-03-0.252D-03-0.653D-03
 Coeff-Com:  0.114D-03 0.254D-02-0.268D-02-0.391D-02 0.957D-02 0.122D-01
 Coeff-Com: -0.166D-01-0.135D+00 0.184D+00 0.950D+00
 Coeff:     -0.391D-05-0.935D-05-0.155D-04 0.232D-03-0.252D-03-0.653D-03
 Coeff:      0.114D-03 0.254D-02-0.268D-02-0.391D-02 0.957D-02 0.122D-01
 Coeff:     -0.166D-01-0.135D+00 0.184D+00 0.950D+00
 Gap=     0.042 Goal=   None    Shift=    0.000
 Gap=     0.035 Goal=   None    Shift=    0.000
 RMSDP=1.32D-08 MaxDP=9.57D-07 DE= 1.09D-11 OVMax= 3.99D-07

 Cycle  24  Pass 1  IDiag  1:
 E= -1136.12218127660     Delta-E=        0.000000000001 Rises=F Damp=F
 DIIS: error= 2.52D-09 at cycle  24 NSaved=  17.
 NSaved=17 IEnMin=15 EnMin= -1136.12218127661     IErMin=17 ErrMin= 2.52D-09
 ErrMax= 2.52D-09  0.00D+00 EMaxC= 1.00D-01 BMatC= 2.59D-15 BMatP= 5.06D-15
 IDIUse=1 WtCom= 1.00D+00 WtEn= 0.00D+00
 Large coefficients: NSaved= 17 BigCof=    0.00 CofMax=   10.00 Det=-6.00D-15
 Inversion failed.  Reducing to 16 matrices.
 Large coefficients: NSaved= 16 BigCof=    0.00 CofMax=   10.00 Det=-6.10D-15
 Inversion failed.  Reducing to 15 matrices.
 Coeff-Com: -0.460D-04 0.109D-03-0.103D-03-0.172D-03 0.500D-04 0.728D-03
 Coeff-Com: -0.678D-03-0.136D-02 0.148D-02 0.731D-02 0.863D-02-0.977D-01
 Coeff-Com:  0.247D-02 0.444D+00 0.635D+00
 Coeff:     -0.460D-04 0.109D-03-0.103D-03-0.172D-03 0.500D-04 0.728D-03
 Coeff:     -0.678D-03-0.136D-02 0.148D-02 0.731D-02 0.863D-02-0.977D-01
 Coeff:      0.247D-02 0.444D+00 0.635D+00
 Gap=     0.042 Goal=   None    Shift=    0.000
 Gap=     0.035 Goal=   None    Shift=    0.000
 RMSDP=7.26D-09 MaxDP=4.94D-07 DE= 9.09D-13 OVMax= 2.39D-07

 SCF Done:  E(UB3LYP) =  -1136.12218128     A.U. after   24 cycles
            NFock= 24  Conv=0.73D-08     -V/T= 2.0028
 <Sx>= 0.0000 <Sy>= 0.0000 <Sz>= 0.5000 <S**2>= 0.7689 S= 0.5094
 <L.S>= 0.000000000000E+00
 KE= 1.132978400362D+03 PE=-3.403879086390D+03 EE= 7.975199504649D+02
 Annihilation of the first spin contaminant:
 S**2 before annihilation     0.7689,   after     0.7501
 Leave Link  502 at Thu Dec  7 14:52:02 2023, MaxMem=  1879048192 cpu:             217.0 elap:              19.3
 (Enter /home/sekinelabo/g16/l601.exe)
 Copying SCF densities to generalized density rwf, IOpCl= 1 IROHF=0.

 **********************************************************************

            Population analysis using the SCF Density.

 **********************************************************************

 Orbital symmetries:
 Alpha Orbitals:
       Occupied  (A) (A) (A) (A) (A) (A) (A) (A) (A) (A) (A) (A)
                 (A) (A) (A) (A) (A) (A) (A) (A) (A) (A) (A) (A)
                 (A) (A) (A) (A) (A) (A) (A) (A) (A) (A) (A) (A)
                 (A) (A) (A)
       Virtual   (A) (A) (A) (A) (A) (A) (A) (A) (A) (A) (A) (A)
                 (A) (A) (A) (A) (A) (A) (A) (A) (A) (A) (A) (A)
                 (A) (A) (A) (A) (A) (A) (A) (A) (A) (A) (A) (A)
                 (A) (A) (A) (A) (A) (A) (A) (A) (A) (A) (A) (A)
                 (A) (A) (A) (A) (A) (A) (A) (A) (A) (A) (A) (A)
                 (A) (A) (A) (A) (A) (A) (A) (A) (A) (A) (A) (A)
                 (A) (A) (A) (A) (A) (A) (A) (A) (A) (A) (A) (A)
                 (A) (A) (A) (A) (A) (A) (A) (A) (A) (A) (A) (A)
                 (A) (A) (A) (A) (A) (A) (A) (A) (A) (A) (A) (A)
                 (A) (A) (A) (A) (A) (A) (A) (A) (A) (A) (A) (A)
                 (A) (A) (A) (A) (A) (A) (A) (A) (A) (A) (A) (A)
                 (A) (A) (A) (A) (A) (A) (A) (A) (A) (A) (A) (A)
                 (A) (A) (A) (A) (A) (A) (A) (A) (A) (A) (A) (A)
                 (A) (A) (A) (A) (A) (A) (A) (A) (A) (A) (A) (A)
                 (A) (A) (A)
 Beta  Orbitals:
       Occupied  (A) (A) (A) (A) (A) (A) (A) (A) (A) (A) (A) (A)
                 (A) (A) (A) (A) (A) (A) (A) (A) (A) (A) (A) (A)
                 (A) (A) (A) (A) (A) (A) (A) (A) (A) (A) (A) (A)
                 (A) (A)
       Virtual   (A) (A) (A) (A) (A) (A) (A) (A) (A) (A) (A) (A)
                 (A) (A) (A) (A) (A) (A) (A) (A) (A) (A) (A) (A)
                 (A) (A) (A) (A) (A) (A) (A) (A) (A) (A) (A) (A)
                 (A) (A) (A) (A) (A) (A) (A) (A) (A) (A) (A) (A)
                 (A) (A) (A) (A) (A) (A) (A) (A) (A) (A) (A) (A)
                 (A) (A) (A) (A) (A) (A) (A) (A) (A) (A) (A) (A)
                 (A) (A) (A) (A) (A) (A) (A) (A) (A) (A) (A) (A)
                 (A) (A) (A) (A) (A) (A) (A) (A) (A) (A) (A) (A)
                 (A) (A) (A) (A) (A) (A) (A) (A) (A) (A) (A) (A)
                 (A) (A) (A) (A) (A) (A) (A) (A) (A) (A) (A) (A)
                 (A) (A) (A) (A) (A) (A) (A) (A) (A) (A) (A) (A)
                 (A) (A) (A) (A) (A) (A) (A) (A) (A) (A) (A) (A)
                 (A) (A) (A) (A) (A) (A) (A) (A) (A) (A) (A) (A)
                 (A) (A) (A) (A) (A) (A) (A) (A) (A) (A) (A) (A)
                 (A) (A) (A) (A)
 The electronic state is 2-A.
 Alpha  occ. eigenvalues --  -38.44843 -38.44164 -38.43878 -38.43869 -38.43842
 Alpha  occ. eigenvalues --  -38.43350 -38.43073  -2.20685  -2.19995  -2.19838
 Alpha  occ. eigenvalues --   -2.19828  -2.19700  -2.19264  -2.18965  -1.14401
 Alpha  occ. eigenvalues --   -1.14381  -1.14276  -1.13744  -1.13636  -1.13626
 Alpha  occ. eigenvalues --   -1.13600  -1.13516  -1.13514  -1.13475  -1.13472
 Alpha  occ. eigenvalues --   -1.13415  -1.13339  -1.13335  -1.13292  -1.12947
 Alpha  occ. eigenvalues --   -1.12916  -1.12869  -1.12658  -1.12617  -1.12567
 Alpha  occ. eigenvalues --   -0.18820  -0.14410  -0.11358  -0.11103
 Alpha virt. eigenvalues --   -0.06887  -0.04902  -0.04809  -0.03172  -0.02718
 Alpha virt. eigenvalues --   -0.02492  -0.02164  -0.01137  -0.00861  -0.00123
 Alpha virt. eigenvalues --    0.00083   0.00284   0.00408   0.00657   0.00808
 Alpha virt. eigenvalues --    0.00877   0.00936   0.00984   0.01141   0.01431
 Alpha virt. eigenvalues --    0.01483   0.01687   0.01764   0.01919   0.01948
 Alpha virt. eigenvalues --    0.02121   0.02429   0.02518   0.02653   0.02684
 Alpha virt. eigenvalues --    0.02740   0.02750   0.02809   0.02889   0.02942
 Alpha virt. eigenvalues --    0.03176   0.03349   0.03379   0.03711   0.03815
 Alpha virt. eigenvalues --    0.03982   0.04106   0.04393   0.04792   0.04833
 Alpha virt. eigenvalues --    0.04956   0.05058   0.05222   0.05441   0.05738
 Alpha virt. eigenvalues --    0.05906   0.06343   0.06431   0.07039   0.07128
 Alpha virt. eigenvalues --    0.07165   0.07500   0.07860   0.08689   0.09028
 Alpha virt. eigenvalues --    0.09112   0.09400   0.10797   0.11095   0.11212
 Alpha virt. eigenvalues --    0.11346   0.11552   0.12558   0.12688   0.13010
 Alpha virt. eigenvalues --    0.13206   0.13584   0.13688   0.13932   0.14482
 Alpha virt. eigenvalues --    0.14844   0.15068   0.15404   0.16928   0.17158
 Alpha virt. eigenvalues --    0.25755   0.26490   0.27086   0.27649   0.28231
 Alpha virt. eigenvalues --    0.29199   0.31429   0.31785   0.32738   0.32941
 Alpha virt. eigenvalues --    0.33934   0.34694   0.36198   0.36556   0.37308
 Alpha virt. eigenvalues --    0.37669   0.39223   0.39708   0.41135   0.42058
 Alpha virt. eigenvalues --    0.42366   0.43724   0.44255   0.44584   0.44842
 Alpha virt. eigenvalues --    0.45151   0.45272   0.45331   0.45756   0.45883
 Alpha virt. eigenvalues --    0.46719   0.47550   0.48036   0.48624   0.49187
 Alpha virt. eigenvalues --    0.49413   0.49709   0.50168   0.51146   0.51913
 Alpha virt. eigenvalues --    0.53018   0.53175   0.54629   0.55920   0.57216
 Alpha virt. eigenvalues --    0.58072   0.58951   0.59315   0.59524   0.60797
 Alpha virt. eigenvalues --    0.61143   0.63411   0.65693   0.66140   0.71634
 Alpha virt. eigenvalues --    0.73335   2.03129   2.12971   2.16123   2.20146
 Alpha virt. eigenvalues --    2.21742   2.22557   2.25420   4.41988   4.42519
 Alpha virt. eigenvalues --    4.43922   4.44470   4.44937   4.45309   4.45820
 Alpha virt. eigenvalues --    4.46295   4.46942   4.47565   4.48003   4.50581
 Alpha virt. eigenvalues --    4.50881   4.51320   4.52210   4.53340   4.54028
 Alpha virt. eigenvalues --    4.56445   4.60448   4.66525   4.68604  96.22391
 Alpha virt. eigenvalues --   96.34696  96.38467  96.42558  96.44904  96.46683
 Alpha virt. eigenvalues --   96.50300
  Beta  occ. eigenvalues --  -38.44831 -38.44145 -38.43840 -38.43838 -38.43835
  Beta  occ. eigenvalues --  -38.43301 -38.43034  -2.20667  -2.19960  -2.19771
  Beta  occ. eigenvalues --   -2.19768  -2.19696  -2.19176  -2.18892  -1.14376
  Beta  occ. eigenvalues --   -1.14351  -1.14271  -1.13715  -1.13605  -1.13603
  Beta  occ. eigenvalues --   -1.13558  -1.13470  -1.13467  -1.13436  -1.13435
  Beta  occ. eigenvalues --   -1.13358  -1.13336  -1.13323  -1.13269  -1.12881
  Beta  occ. eigenvalues --   -1.12843  -1.12807  -1.12605  -1.12559  -1.12516
  Beta  occ. eigenvalues --   -0.18124  -0.14189  -0.10901
  Beta virt. eigenvalues --   -0.07386  -0.06681  -0.04853  -0.04151  -0.02855
  Beta virt. eigenvalues --   -0.02642  -0.01978  -0.01503  -0.00956  -0.00395
  Beta virt. eigenvalues --   -0.00016   0.00126   0.00306   0.00527   0.00773
  Beta virt. eigenvalues --    0.00834   0.00918   0.00999   0.01046   0.01203
  Beta virt. eigenvalues --    0.01529   0.01611   0.01743   0.01858   0.01996
  Beta virt. eigenvalues --    0.02101   0.02178   0.02449   0.02576   0.02686
  Beta virt. eigenvalues --    0.02715   0.02755   0.02776   0.02835   0.02937
  Beta virt. eigenvalues --    0.03002   0.03211   0.03371   0.03438   0.03834
  Beta virt. eigenvalues --    0.03908   0.04077   0.04292   0.04513   0.04825
  Beta virt. eigenvalues --    0.04964   0.05047   0.05164   0.05414   0.05522
  Beta virt. eigenvalues --    0.05858   0.06002   0.06453   0.06476   0.07103
  Beta virt. eigenvalues --    0.07208   0.07385   0.07726   0.07921   0.08711
  Beta virt. eigenvalues --    0.09175   0.09255   0.09431   0.11131   0.11326
  Beta virt. eigenvalues --    0.11444   0.11645   0.11883   0.12686   0.12930
  Beta virt. eigenvalues --    0.13202   0.13363   0.13728   0.13907   0.14102
  Beta virt. eigenvalues --    0.14781   0.15031   0.15295   0.15646   0.17110
  Beta virt. eigenvalues --    0.17421   0.26051   0.26745   0.27404   0.27857
  Beta virt. eigenvalues --    0.28428   0.29415   0.31708   0.31999   0.32987
  Beta virt. eigenvalues --    0.33215   0.34208   0.34864   0.36554   0.36861
  Beta virt. eigenvalues --    0.37620   0.37975   0.39448   0.39888   0.41257
  Beta virt. eigenvalues --    0.42210   0.42626   0.43845   0.44370   0.44667
  Beta virt. eigenvalues --    0.45005   0.45254   0.45408   0.45471   0.45882
  Beta virt. eigenvalues --    0.46029   0.46873   0.47668   0.48227   0.48764
  Beta virt. eigenvalues --    0.49432   0.49567   0.49961   0.50387   0.51373
  Beta virt. eigenvalues --    0.52136   0.53142   0.53386   0.54829   0.56056
  Beta virt. eigenvalues --    0.57411   0.58174   0.59061   0.59440   0.59631
  Beta virt. eigenvalues --    0.60851   0.61263   0.63508   0.65900   0.66426
  Beta virt. eigenvalues --    0.71806   0.73477   2.03234   2.13042   2.16184
  Beta virt. eigenvalues --    2.20218   2.21920   2.22704   2.25557   4.42053
  Beta virt. eigenvalues --    4.42581   4.43973   4.44515   4.44971   4.45331
  Beta virt. eigenvalues --    4.45854   4.46333   4.47002   4.47614   4.48037
  Beta virt. eigenvalues --    4.50672   4.50908   4.51355   4.52250   4.53380
  Beta virt. eigenvalues --    4.54066   4.56485   4.60515   4.66565   4.68644
  Beta virt. eigenvalues --   96.22427  96.34721  96.38489  96.42582  96.44963
  Beta virt. eigenvalues --   96.46729  96.50346
          Condensed to atoms (all electrons):
               1          2          3          4          5          6
     1  Na  12.136662   0.313202  -0.424535   0.397375  -0.978398  -1.055381
     2  Na   0.313202  11.951905   0.184928  -0.188588  -0.685145  -0.228315
     3  Na  -0.424535   0.184928  11.962475  -0.065730   0.395583   0.176773
     4  Na   0.397375  -0.188588  -0.065730  11.138445   0.005637  -0.577486
     5  Na  -0.978398  -0.685145   0.395583   0.005637  12.222548   0.438540
     6  Na  -1.055381  -0.228315   0.176773  -0.577486   0.438540  11.757107
     7  Na   0.164413  -0.158096  -0.264810  -0.236057   0.173697  -0.094040
               7
     1  Na   0.164413
     2  Na  -0.158096
     3  Na  -0.264810
     4  Na  -0.236057
     5  Na   0.173697
     6  Na  -0.094040
     7  Na  11.243719
          Atomic-Atomic Spin Densities.
               1          2          3          4          5          6
     1  Na   0.155373   0.529865  -0.066032   0.031375  -0.437222  -0.061748
     2  Na   0.529865   0.850540   0.157542   0.107908  -0.855538  -0.332517
     3  Na  -0.066032   0.157542   0.226135   0.086453   0.005763  -0.059234
     4  Na   0.031375   0.107908   0.086453  -0.061039  -0.112856   0.030338
     5  Na  -0.437222  -0.855538   0.005763  -0.112856   1.063420   0.318405
     6  Na  -0.061748  -0.332517  -0.059234   0.030338   0.318405   0.058927
     7  Na  -0.084780  -0.263311  -0.173767   0.044121   0.329480   0.086412
               7
     1  Na  -0.084780
     2  Na  -0.263311
     3  Na  -0.173767
     4  Na   0.044121
     5  Na   0.329480
     6  Na   0.086412
     7  Na   0.145333
 Mulliken charges and spin densities:
               1          2
     1  Na   0.446662   0.066830
     2  Na  -0.189892   0.194488
     3  Na  -0.964684   0.176860
     4  Na   0.526402   0.126300
     5  Na  -0.572463   0.311451
     6  Na   0.582801   0.040583
     7  Na   0.171174   0.083488
 Sum of Mulliken charges =  -0.00000   1.00000
 Mulliken charges and spin densities with hydrogens summed into heavy atoms:
               1          2
     1  Na   0.446662   0.066830
     2  Na  -0.189892   0.194488
     3  Na  -0.964684   0.176860
     4  Na   0.526402   0.126300
     5  Na  -0.572463   0.311451
     6  Na   0.582801   0.040583
     7  Na   0.171174   0.083488
 Electronic spatial extent (au):  <R**2>=           2502.4400
 Charge=             -0.0000 electrons
 Dipole moment (field-independent basis, Debye):
    X=              0.0430    Y=              0.1696    Z=              0.1919  Tot=              0.2597
 Quadrupole moment (field-independent basis, Debye-Ang):
   XX=            -54.4041   YY=            -75.3317   ZZ=            -67.8577
   XY=              0.0566   XZ=              2.8918   YZ=             -0.5076
 Traceless Quadrupole moment (field-independent basis, Debye-Ang):
   XX=             11.4604   YY=             -9.4672   ZZ=             -1.9932
   XY=              0.0566   XZ=              2.8918   YZ=             -0.5076
 Octapole moment (field-independent basis, Debye-Ang**2):
  XXX=              3.5733  YYY=              0.1909  ZZZ=             11.9836  XYY=              1.6765
  XXY=              3.9271  XXZ=              0.4659  XZZ=             -4.5404  YZZ=              7.6308
  YYZ=             -4.6699  XYZ=             -4.1596
 Hexadecapole moment (field-independent basis, Debye-Ang**3):
 XXXX=          -2261.8905 YYYY=          -1057.9964 ZZZZ=           -830.1669 XXXY=             -9.5160
 XXXZ=             73.4088 YYYX=            -21.2307 YYYZ=             -9.1486 ZZZX=              4.3001
 ZZZY=              5.6972 XXYY=           -592.3523 XXZZ=           -520.2596 YYZZ=           -312.6729
 XXYZ=             -4.3729 YYXZ=             17.3688 ZZXY=             25.8774
 N-N= 3.372585542868D+02 E-N=-3.403879086914D+03  KE= 1.132978400362D+03
                          Isotropic Fermi Contact Couplings
        Atom                 a.u.       MegaHertz       Gauss      10(-4) cm-1
     1  Na(23)             0.08720     103.16559      36.81205      34.41234
     2  Na(23)             0.17171     203.14281      72.48641      67.76115
     3  Na(23)             0.00394       4.66441       1.66438       1.55588
     4  Na(23)             0.07854      92.91821      33.15553      30.99418
     5  Na(23)             0.14466     171.13204      61.06417      57.08350
     6  Na(23)            -0.00452      -5.35017      -1.90907      -1.78462
     7  Na(23)             0.15052     178.07327      63.54097      59.39885
 --------------------------------------------------------
       Center         ----  Spin Dipole Couplings  ----
                      3XX-RR        3YY-RR        3ZZ-RR
 --------------------------------------------------------
     1   Atom        0.024444     -0.026122      0.001679
     2   Atom        0.002557      0.007794     -0.010351
     3   Atom       -0.022011     -0.019518      0.041529
     4   Atom       -0.001755      0.002140     -0.000385
     5   Atom        0.000031     -0.010424      0.010393
     6   Atom       -0.003315     -0.004925      0.008240
     7   Atom        0.005691     -0.002951     -0.002740
 --------------------------------------------------------
                        XY            XZ            YZ
 --------------------------------------------------------
     1   Atom       -0.007891      0.034621     -0.002578
     2   Atom        0.018299     -0.014035     -0.012051
     3   Atom       -0.000666      0.000498     -0.005946
     4   Atom        0.002570     -0.004127     -0.004535
     5   Atom        0.001754     -0.011166      0.003485
     6   Atom        0.001267     -0.004492     -0.007697
     7   Atom       -0.008533      0.014135     -0.008553
 --------------------------------------------------------


 ---------------------------------------------------------------------------------
              Anisotropic Spin Dipole Couplings in Principal Axis System
 ---------------------------------------------------------------------------------

       Atom             a.u.   MegaHertz   Gauss  10(-4) cm-1        Axes

              Baa    -0.0282    -3.989    -1.423    -1.331  0.3428  0.8831 -0.3205
     1 Na(23) Bbb    -0.0221    -3.117    -1.112    -1.040 -0.4795  0.4578  0.7486
              Bcc     0.0503     7.106     2.536     2.370  0.8078 -0.1030  0.5804
 
              Baa    -0.0194    -2.733    -0.975    -0.912  0.5253  0.0235  0.8506
     2 Na(23) Bbb    -0.0123    -1.738    -0.620    -0.580 -0.5846  0.7363  0.3407
              Bcc     0.0317     4.471     1.595     1.491  0.6183  0.6762 -0.4005
 
              Baa    -0.0222    -3.134    -1.118    -1.046  0.9598  0.2801  0.0186
     3 Na(23) Bbb    -0.0199    -2.812    -1.003    -0.938 -0.2806  0.9551  0.0947
              Bcc     0.0421     5.946     2.122     1.983  0.0087 -0.0961  0.9953
 
              Baa    -0.0055    -0.771    -0.275    -0.257  0.6599  0.2077  0.7221
     4 Na(23) Bbb    -0.0023    -0.331    -0.118    -0.110 -0.6105  0.7084  0.3542
              Bcc     0.0078     1.102     0.393     0.368  0.4379  0.6746 -0.5943
 
              Baa    -0.0126    -1.779    -0.635    -0.593 -0.4076  0.8525 -0.3272
     5 Na(23) Bbb    -0.0051    -0.715    -0.255    -0.239  0.7447  0.5177  0.4212
              Bcc     0.0177     2.494     0.890     0.832 -0.5285  0.0720  0.8459
 
              Baa    -0.0086    -1.214    -0.433    -0.405  0.1692  0.8785  0.4468
     6 Na(23) Bbb    -0.0045    -0.634    -0.226    -0.211  0.9476 -0.2697  0.1714
              Bcc     0.0131     1.848     0.659     0.616 -0.2710 -0.3944  0.8781
 
              Baa    -0.0138    -1.946    -0.695    -0.649 -0.4822  0.2765  0.8313
     7 Na(23) Bbb    -0.0082    -1.157    -0.413    -0.386  0.5140  0.8577  0.0129
              Bcc     0.0220     3.103     1.107     1.035  0.7094 -0.4335  0.5557
 

 ---------------------------------------------------------------------------------

 No NMR shielding tensors so no spin-rotation constants.
 Leave Link  601 at Thu Dec  7 14:52:02 2023, MaxMem=  1879048192 cpu:               2.3 elap:               0.2
 (Enter /home/sekinelabo/g16/l701.exe)
 ... and contract with generalized density number  0.
 Compute integral first derivatives.
 Leave Link  701 at Thu Dec  7 14:52:02 2023, MaxMem=  1879048192 cpu:               1.6 elap:               0.1
 (Enter /home/sekinelabo/g16/l702.exe)
 L702 exits ... SP integral derivatives will be done elsewhere.
 Leave Link  702 at Thu Dec  7 14:52:02 2023, MaxMem=  1879048192 cpu:               0.4 elap:               0.0
 (Enter /home/sekinelabo/g16/l703.exe)
 Integral derivatives from FoFJK, PRISM(SPDF).
 Compute integral first derivatives, UseDBF=F ICtDFT=           0.
 Calling FoFJK, ICntrl=      2127 FMM=F ISym2X=0 I1Cent= 0 IOpClX= 1 NMat=1 NMatS=1 NMatT=0.
 FoFJK:  IHMeth= 1 ICntrl=    2127 DoSepK=F KAlg= 0 I1Cent=           0 FoldK=F
 IRaf=         0 NMat=       1 IRICut=       1 DoRegI=T DoRafI=F ISym2E= 0 IDoP0=0 IntGTp=1.
 FoFCou: FMM=F IPFlag=           0 FMFlag=      100000 FMFlg1=         800
         NFxFlg=           0 DoJE=F BraDBF=F KetDBF=F FulRan=T
         wScrn=  0.000000 ICntrl=      2127 IOpCl=  1 I1Cent=           0 NGrid=           0
         NMat0=    1 NMatS0=      1 NMatT0=    0 NMatD0=    1 NMtDS0=    0 NMtDT0=    0
 Symmetry not used in FoFCou.
 Leave Link  703 at Thu Dec  7 14:52:05 2023, MaxMem=  1879048192 cpu:              32.8 elap:               2.2
 (Enter /home/sekinelabo/g16/l716.exe)
 Dipole        = 1.69106531D-02 6.67363620D-02 7.54796020D-02
 ***** Axes restored to original set *****
 -------------------------------------------------------------------
 Center     Atomic                   Forces (Hartrees/Bohr)
 Number     Number              X              Y              Z
 -------------------------------------------------------------------
      1       11           0.004922807   -0.000847615   -0.002543405
      2       11          -0.000034097   -0.001971867   -0.001441547
      3       11          -0.000378146    0.001043992    0.000584571
      4       11          -0.002985506    0.002285504    0.003595037
      5       11           0.000364527   -0.002092847   -0.001142959
      6       11           0.003357157    0.006659230    0.001640515
      7       11          -0.005246742   -0.005076397   -0.000692212
 -------------------------------------------------------------------
 Cartesian Forces:  Max     0.006659230 RMS     0.002959474
 Z-matrix is all fixed cartesians, so copy forces.
 Force constants in Cartesian coordinates: 
                1             2             3             4             5 
      1  0.978120D-01
      2 -0.108552D-01  0.733753D-01
      3 -0.164818D-01 -0.157467D-01  0.115375D+00
      4 -0.272985D-01  0.239438D-02  0.203299D-01  0.116967D+00
      5  0.144191D-01 -0.199856D-01 -0.523707D-02 -0.200226D-01  0.807720D-01
      6 -0.125056D-01  0.134154D-01 -0.283770D-01 -0.190777D-01  0.598196D-02
      7 -0.196891D-01  0.568518D-02  0.709792D-02 -0.231016D-01  0.181972D-01
      8  0.476460D-02 -0.289573D-01  0.939101D-02 -0.623062D-02 -0.257950D-01
      9 -0.641391D-04 -0.225226D-01 -0.325589D-01 -0.448204D-03 -0.118469D-01
     10 -0.393212D-01  0.142273D-01 -0.276541D-02 -0.180158D-02  0.517764D-02
     11  0.307655D-02 -0.136540D-01  0.870983D-02  0.561753D-02  0.402634D-02
     12  0.231660D-01 -0.209658D-02 -0.269643D-01 -0.290561D-02  0.830963D-04
     13 -0.227609D-01 -0.994536D-02 -0.433486D-02 -0.293797D-01 -0.183484D-01
     14 -0.101391D-01 -0.214008D-01 -0.543061D-02  0.121958D-01 -0.162437D-01
     15  0.103755D-01  0.192493D-01 -0.213733D-01  0.115993D-01  0.341226D-03
     16  0.400076D-02 -0.229781D-02 -0.271307D-02 -0.908787D-02  0.961398D-02
     17 -0.179735D-02  0.645235D-02  0.222360D-02 -0.179706D-02 -0.883254D-02
     18 -0.386708D-02  0.175314D-02 -0.126807D-02 -0.129190D-01 -0.486585D-02
     19  0.725691D-02  0.791448D-03 -0.113268D-02 -0.262981D-01 -0.903686D-02
     20  0.531347D-03  0.417005D-02  0.608994D-02  0.784254D-02 -0.139415D-01
     21 -0.622806D-03  0.594806D-02 -0.483340D-02  0.342126D-02  0.155436D-01
                6             7             8             9            10 
      6  0.959208D-01
      7  0.521109D-02  0.113539D+00
      8 -0.311535D-02 -0.550541D-02  0.170757D+00
      9 -0.199331D-01 -0.111086D-02  0.225838D-01  0.121191D+00
     10 -0.335384D-02 -0.149460D-01  0.553356D-02  0.516455D-02  0.605149D-01
     11  0.260925D-03 -0.155624D-01 -0.230183D-01 -0.120882D-01 -0.122942D-01
     12  0.794399D-02 -0.102190D-01  0.634909D-02 -0.141817D-01  0.237076D-02
     13 -0.358995D-02 -0.156986D-01  0.552059D-02  0.376739D-02 -0.854806D-02
     14 -0.155633D-02 -0.117653D-01 -0.264034D-01 -0.702640D-03 -0.154610D-01
     15 -0.132823D-01 -0.728061D-02 -0.766439D-02 -0.126110D-01  0.568965D-03
     16  0.157011D-01 -0.252897D-01 -0.719748D-02 -0.436200D-02  0.205339D-02
     17 -0.779667D-02  0.161557D-01 -0.335541D-01  0.116191D-01  0.603792D-03
     18 -0.161880D-01  0.350510D-02 -0.159669D-01 -0.217886D-01 -0.170078D-02
     19  0.176148D-01 -0.148139D-01  0.311475D-02 -0.294673D-02  0.204848D-02
     20 -0.718992D-02 -0.720496D-02 -0.330288D-01  0.129575D-01  0.221287D-02
     21 -0.260844D-01  0.279634D-02 -0.115773D-01 -0.201179D-01 -0.284252D-03
               11            12            13            14            15 
     11  0.443983D-01
     12 -0.472065D-02  0.379234D-01
     13  0.138774D-01 -0.759771D-02  0.975300D-01
     14 -0.214467D-01 -0.367795D-02  0.274175D-01  0.108731D+00
     15  0.382041D-02 -0.754548D-02  0.101541D-01 -0.162028D-02  0.802195D-01
     16  0.208038D-02 -0.212677D-02  0.777627D-03 -0.267445D-02 -0.698775D-02
     17  0.549366D-02 -0.269268D-03 -0.209133D-02  0.675315D-02 -0.418632D-02
     18  0.977365D-03  0.190018D-02 -0.536570D-02 -0.388955D-02  0.310717D-02
     19  0.320477D-02 -0.268767D-02 -0.219205D-01  0.426537D-03 -0.184295D-01
     20  0.420054D-02  0.433225D-02 -0.164303D-01 -0.299892D-01 -0.993998D-02
     21  0.304035D-02  0.923977D-03  0.696669D-02  0.168774D-01 -0.285146D-01
               16            17            18            19            20 
     16  0.555894D-01
     17  0.132120D-01  0.549501D-01
     18  0.166748D-01  0.772669D-02  0.581870D-01
     19 -0.280436D-01 -0.242858D-01  0.367268D-02  0.817706D-01
     20 -0.127367D-01 -0.312626D-01  0.142651D-01  0.257852D-01  0.998516D-01
     21 -0.161863D-01 -0.931716D-02 -0.239497D-01  0.390907D-02 -0.205149D-01
               21 
     21  0.102576D+00
 Leave Link  716 at Thu Dec  7 14:52:05 2023, MaxMem=  1879048192 cpu:               0.4 elap:               0.0
 (Enter /home/sekinelabo/g16/l103.exe)

 GradGradGradGradGradGradGradGradGradGradGradGradGradGradGradGradGradGrad
 Berny optimization.
 Search for a local minimum.
 Step number   1 out of a maximum of    2
 All quantities printed in internal units (Hartrees-Bohrs-Radians)
 Second derivative matrix not updated -- first step.
 ITU=  0
     Eigenvalues ---    0.04066   0.05213   0.06742   0.07742   0.08679
     Eigenvalues ---    0.10321   0.10894   0.12868   0.13982   0.14281
     Eigenvalues ---    0.15009   0.16166   0.18000   0.18939   0.21561
 Angle between quadratic step and forces=  23.17 degrees.
 Linear search not attempted -- first point.
 B after Tr=    -0.000000    0.000000    0.000000
         Rot=    1.000000   -0.000000   -0.000000    0.000000 Ang=   0.00 deg.
 Variable       Old X    -DE/DX   Delta X   Delta X   Delta X     New X
                                 (Linear)    (Quad)   (Total)
    X1       21.93443   0.00492   0.00000   0.03384   0.03384  21.96827
    Y1       23.65030  -0.00085   0.00000  -0.01053  -0.01053  23.63977
    Z1       17.38837  -0.00254   0.00000  -0.02420  -0.02420  17.36417
    X2       25.93876  -0.00003   0.00000   0.00947   0.00947  25.94823
    Y2       20.17547  -0.00197   0.00000  -0.03853  -0.03853  20.13694
    Z2       20.94402  -0.00144   0.00000  -0.01211  -0.01211  20.93192
    X3       22.30085  -0.00038   0.00000  -0.00016  -0.00016  22.30069
    Y3       25.17663   0.00104   0.00000   0.00697   0.00697  25.18360
    Z3       23.56356   0.00058   0.00000  -0.00352  -0.00352  23.56004
    X4       16.59775  -0.00299   0.00000  -0.02268  -0.02268  16.57507
    Y4       25.52888   0.00229   0.00000   0.03801   0.03801  25.56689
    Z4       18.22654   0.00360   0.00000   0.05475   0.05475  18.28129
    X5       19.27180   0.00036   0.00000   0.00234   0.00234  19.27415
    Y5       19.06960  -0.00209   0.00000  -0.03330  -0.03330  19.03631
    Z5       20.98824  -0.00114   0.00000  -0.03288  -0.03288  20.95536
    X6       26.63172   0.00336   0.00000   0.01194   0.01194  26.64366
    Y6       22.72074   0.00666   0.00000   0.07619   0.07619  22.79694
    Z6       28.01727   0.00164   0.00000   0.02067   0.02067  28.03794
    X7       22.71734  -0.00525   0.00000  -0.03476  -0.03476  22.68258
    Y7       19.07074  -0.00508   0.00000  -0.03881  -0.03881  19.03193
    Z7       26.26455  -0.00069   0.00000  -0.00272  -0.00272  26.26183
         Item               Value     Threshold  Converged?
 Maximum Force            0.006659     0.000450     NO 
 RMS     Force            0.002959     0.000300     NO 
 Maximum Displacement     0.076195     0.001800     NO 
 RMS     Displacement     0.030763     0.001200     NO 
 Predicted change in Energy=-8.788328D-04
 GradGradGradGradGradGradGradGradGradGradGradGradGradGradGradGradGradGrad

 Leave Link  103 at Thu Dec  7 14:52:05 2023, MaxMem=  1879048192 cpu:               0.2 elap:               0.0
 (Enter /home/sekinelabo/g16/l9999.exe)
 1\1\GINC-SEKINELABO-XA7R-R37\Force\UB3LYP\6-311+G(d)\Na7(2)\SEKINELABO
 \07-Dec-2023\0\\#P B3LYP/6-311+g(d) force\\DPGEN\\0,2\Na,11.6072,12.51
 52,9.20153\Na,13.7262,10.6764,11.0831\Na,11.8011,13.3229,12.4693\Na,8.
 78315,13.5093,9.64507\Na,10.1982,10.0912,11.1065\Na,14.0929,12.0233,14
 .8261\Na,12.0215,10.0918,13.8986\\Version=ES64L-G16RevB.01\State=2-A\H
 F=-1136.1221813\S2=0.768883\S2-1=0.\S2A=0.750144\RMSD=7.263e-09\RMSF=2
 .959e-03\Dipole=0.0612777,-0.0647822,-0.0498517\Quadrupole=4.3204883,-
 6.0008022,1.6803139,-2.313759,4.8920059,-2.9833918\PG=C01 [X(Na7)]\\@


 MOST BUREAUCRACIES FUNCTION LIKE A SEPTIC TANK.
 THE LARGE CHUNKS RISE TO THE TOP.
 Job cpu time:       0 days  0 hours  4 minutes 25.8 seconds.
 Elapsed time:       0 days  0 hours  0 minutes 22.6 seconds.
 File lengths (MBytes):  RWF=     32 Int=      0 D2E=      0 Chk=      4 Scr=      1
 Normal termination of Gaussian 16 at Thu Dec  7 14:52:05 2023.
