 Set GAUSS_MDEF to "14GB".
 Entering Gaussian System, Link 0=g16
 Initial command:
 /home/sekinelabo/g16/l1.exe "/home/sekinelabo/g16temp/Gau-53689.inp" -scrdir="/home/sekinelabo/g16temp/"
 Entering Link 1 = /home/sekinelabo/g16/l1.exe PID=     53691.
  
 Copyright (c) 1988-2017, Gaussian, Inc.  All Rights Reserved.
  
 This is part of the Gaussian(R) 16 program.  It is based on
 the Gaussian(R) 09 system (copyright 2009, Gaussian, Inc.),
 the Gaussian(R) 03 system (copyright 2003, Gaussian, Inc.),
 the Gaussian(R) 98 system (copyright 1998, Gaussian, Inc.),
 the Gaussian(R) 94 system (copyright 1995, Gaussian, Inc.),
 the Gaussian 92(TM) system (copyright 1992, Gaussian, Inc.),
 the Gaussian 90(TM) system (copyright 1990, Gaussian, Inc.),
 the Gaussian 88(TM) system (copyright 1988, Gaussian, Inc.),
 the Gaussian 86(TM) system (copyright 1986, Carnegie Mellon
 University), and the Gaussian 82(TM) system (copyright 1983,
 Carnegie Mellon University). Gaussian is a federally registered
 trademark of Gaussian, Inc.
  
 This software contains proprietary and confidential information,
 including trade secrets, belonging to Gaussian, Inc.
  
 This software is provided under written license and may be
 used, copied, transmitted, or stored only in accord with that
 written license.
  
 The following legend is applicable only to US Government
 contracts under FAR:
  
                    RESTRICTED RIGHTS LEGEND
  
 Use, reproduction and disclosure by the US Government is
 subject to restrictions as set forth in subparagraphs (a)
 and (c) of the Commercial Computer Software - Restricted
 Rights clause in FAR 52.227-19.
  
 Gaussian, Inc.
 340 Quinnipiac St., Bldg. 40, Wallingford CT 06492
  
  
 ---------------------------------------------------------------
 Warning -- This program may not be used in any manner that
 competes with the business of Gaussian, Inc. or will provide
 assistance to any competitor of Gaussian, Inc.  The licensee
 of this program is prohibited from giving any competitor of
 Gaussian, Inc. access to this program.  By using this program,
 the user acknowledges that Gaussian, Inc. is engaged in the
 business of creating and licensing software in the field of
 computational chemistry and represents and warrants to the
 licensee that it is not a competitor of Gaussian, Inc. and that
 it will not use this program in any manner prohibited above.
 ---------------------------------------------------------------
  

 Cite this work as:
 Gaussian 16, Revision B.01,
 M. J. Frisch, G. W. Trucks, H. B. Schlegel, G. E. Scuseria, 
 M. A. Robb, J. R. Cheeseman, G. Scalmani, V. Barone, 
 G. A. Petersson, H. Nakatsuji, X. Li, M. Caricato, A. V. Marenich, 
 J. Bloino, B. G. Janesko, R. Gomperts, B. Mennucci, H. P. Hratchian, 
 J. V. Ortiz, A. F. Izmaylov, J. L. Sonnenberg, D. Williams-Young, 
 F. Ding, F. Lipparini, F. Egidi, J. Goings, B. Peng, A. Petrone, 
 T. Henderson, D. Ranasinghe, V. G. Zakrzewski, J. Gao, N. Rega, 
 G. Zheng, W. Liang, M. Hada, M. Ehara, K. Toyota, R. Fukuda, 
 J. Hasegawa, M. Ishida, T. Nakajima, Y. Honda, O. Kitao, H. Nakai, 
 T. Vreven, K. Throssell, J. A. Montgomery, Jr., J. E. Peralta, 
 F. Ogliaro, M. J. Bearpark, J. J. Heyd, E. N. Brothers, K. N. Kudin, 
 V. N. Staroverov, T. A. Keith, R. Kobayashi, J. Normand, 
 K. Raghavachari, A. P. Rendell, J. C. Burant, S. S. Iyengar, 
 J. Tomasi, M. Cossi, J. M. Millam, M. Klene, C. Adamo, R. Cammi, 
 J. W. Ochterski, R. L. Martin, K. Morokuma, O. Farkas, 
 J. B. Foresman, and D. J. Fox, Gaussian, Inc., Wallingford CT, 2016.
 
 ******************************************
 Gaussian 16:  ES64L-G16RevB.01 20-Dec-2017
                28-Nov-2023 
 ******************************************
 %nproc=15
 Will use up to   15 processors via shared memory.
 -------------------------
 #P B3LYP/6-311+g(d) force
 -------------------------
 1/10=7,30=1,38=1/1,3;
 2/12=2,17=6,18=5,40=1/2;
 3/5=4,6=6,7=11,11=2,25=1,30=1,71=1,74=-5/1,2,3;
 4//1;
 5/5=2,38=5/2;
 6/7=2,8=2,9=2,10=2,28=1/1;
 7/29=1/1,2,3,16;
 1/10=7,30=1/3;
 99//99;
 Leave Link    1 at Tue Nov 28 20:01:55 2023, MaxMem=           0 cpu:               0.3 elap:               0.0
 (Enter /home/sekinelabo/g16/l101.exe)
 -----
 DPGEN
 -----
 Symbolic Z-matrix:
 Charge =  0 Multiplicity = 2
 Na                    12.8797   15.7817   13.7646 
 Na                    16.6472   17.3221   17.9059 
 Na                    14.9202   14.7808   16.5485 
 Na                    17.9432   16.2543   14.9723 
 Na                    14.7538   11.4968   15.5614 
 Na                    14.7592   17.79     15.3141 
 Na                    15.5224   13.9998   13.3588 
 
 ITRead=  0  0  0  0  0  0  0
 MicOpt= -1 -1 -1 -1 -1 -1 -1
 NAtoms=      7 NQM=        7 NQMF=       0 NMMI=      0 NMMIF=      0
                NMic=       0 NMicF=      0.
                    Isotopes and Nuclear Properties:
 (Nuclear quadrupole moments (NQMom) in fm**2, nuclear magnetic moments (NMagM)
  in nuclear magnetons)

  Atom         1           2           3           4           5           6           7
 IAtWgt=          23          23          23          23          23          23          23
 AtmWgt=  22.9897697  22.9897697  22.9897697  22.9897697  22.9897697  22.9897697  22.9897697
 NucSpn=           3           3           3           3           3           3           3
 AtZEff=  -0.0000000  -0.0000000  -0.0000000  -0.0000000  -0.0000000  -0.0000000  -0.0000000
 NQMom=   10.4000000  10.4000000  10.4000000  10.4000000  10.4000000  10.4000000  10.4000000
 NMagM=    2.2175200   2.2175200   2.2175200   2.2175200   2.2175200   2.2175200   2.2175200
 AtZNuc=  11.0000000  11.0000000  11.0000000  11.0000000  11.0000000  11.0000000  11.0000000
 Leave Link  101 at Tue Nov 28 20:01:55 2023, MaxMem=  1879048192 cpu:               2.3 elap:               0.2
 (Enter /home/sekinelabo/g16/l103.exe)

 GradGradGradGradGradGradGradGradGradGradGradGradGradGradGradGradGradGrad
 Berny optimization.
 Initialization pass.
 Trust Radius=3.00D-01 FncErr=1.00D-07 GrdErr=1.00D-07 EigMax=2.50D+02 EigMin=1.00D-04
 Number of steps in this run=      2 maximum allowed number of steps=      2.
 GradGradGradGradGradGradGradGradGradGradGradGradGradGradGradGradGradGrad

 Leave Link  103 at Tue Nov 28 20:01:55 2023, MaxMem=  1879048192 cpu:               0.2 elap:               0.0
 (Enter /home/sekinelabo/g16/l202.exe)
                          Input orientation:                          
 ---------------------------------------------------------------------
 Center     Atomic      Atomic             Coordinates (Angstroms)
 Number     Number       Type             X           Y           Z
 ---------------------------------------------------------------------
      1         11           0       12.879700   15.781700   13.764600
      2         11           0       16.647200   17.322100   17.905900
      3         11           0       14.920200   14.780800   16.548500
      4         11           0       17.943200   16.254300   14.972300
      5         11           0       14.753800   11.496800   15.561400
      6         11           0       14.759200   17.790000   15.314100
      7         11           0       15.522400   13.999800   13.358800
 ---------------------------------------------------------------------
                    Distance matrix (angstroms):
                    1          2          3          4          5
     1  Na   0.000000
     2  Na   5.806656   0.000000
     3  Na   3.593820   3.359058   0.000000
     4  Na   5.226942   3.380210   3.714046   0.000000
     5  Na   5.010101   6.558640   3.433178   5.757874   0.000000
     6  Na   3.157014   3.240509   3.256524   3.551487   6.298059
     7  Na   3.213052   5.742732   3.338681   3.680547   3.421579
                    6          7
     6  Na   0.000000
     7  Na   4.332584   0.000000
 Stoichiometry    Na7(2)
 Framework group  C1[X(Na7)]
 Deg. of freedom    15
 Full point group                 C1      NOp   1
 Largest Abelian subgroup         C1      NOp   1
 Largest concise Abelian subgroup C1      NOp   1
                         Standard orientation:                         
 ---------------------------------------------------------------------
 Center     Atomic      Atomic             Coordinates (Angstroms)
 Number     Number       Type             X           Y           Z
 ---------------------------------------------------------------------
      1         11           0        1.089925    2.722047   -0.423813
      2         11           0       -3.096116   -1.263348   -0.981436
      3         11           0        0.202772   -0.671580   -1.205988
      4         11           0       -1.579565   -1.041854    2.031343
      5         11           0        3.442802   -1.692031   -0.708404
      6         11           0       -1.875823    1.651703   -0.264314
      7         11           0        1.816005    0.295062    1.552612
 ---------------------------------------------------------------------
 Rotational constants (GHZ):           0.8479009           0.5273498           0.4560770
 Leave Link  202 at Tue Nov 28 20:01:55 2023, MaxMem=  1879048192 cpu:               0.0 elap:               0.0
 (Enter /home/sekinelabo/g16/l301.exe)
 Standard basis: 6-311+G(d) (5D, 7F)
 Ernie: Thresh=  0.10000D-02 Tol=  0.10000D-05 Strict=F.
 There are   217 symmetry adapted cartesian basis functions of A   symmetry.
 There are   210 symmetry adapted basis functions of A   symmetry.
   210 basis functions,   350 primitive gaussians,   217 cartesian basis functions
    39 alpha electrons       38 beta electrons
       nuclear repulsion energy       337.6981951522 Hartrees.
 IExCor=  402 DFT=T Ex+Corr=B3LYP ExCW=0 ScaHFX=  0.200000
 ScaDFX=  0.800000  0.720000  1.000000  0.810000 ScalE2=  1.000000  1.000000
 IRadAn=      5 IRanWt=     -1 IRanGd=            0 ICorTp=0 IEmpDi=  4
 NAtoms=    7 NActive=    7 NUniq=    7 SFac= 1.00D+00 NAtFMM=   60 NAOKFM=F Big=F
 Integral buffers will be    131072 words long.
 Raffenetti 2 integral format.
 Two-electron integral symmetry is turned on.
 Leave Link  301 at Tue Nov 28 20:01:55 2023, MaxMem=  1879048192 cpu:               0.5 elap:               0.0
 (Enter /home/sekinelabo/g16/l302.exe)
 NPDir=0 NMtPBC=     1 NCelOv=     1 NCel=       1 NClECP=     1 NCelD=      1
         NCelK=      1 NCelE2=     1 NClLst=     1 CellRange=     0.0.
 One-electron integrals computed using PRISM.
 One-electron integral symmetry used in STVInt
 NBasis=   210 RedAO= T EigKep=  4.05D-06  NBF=   210
 NBsUse=   210 1.00D-06 EigRej= -1.00D+00 NBFU=   210
 Precomputing XC quadrature grid using
 IXCGrd= 4 IRadAn=           5 IRanWt=          -1 IRanGd=           0 AccXCQ= 0.00D+00.
 Generated NRdTot=       0 NPtTot=           0 NUsed=           0 NTot=          32
 NSgBfM=   211   211   211   211   211 MxSgAt=     7 MxSgA2=     7.
 Leave Link  302 at Tue Nov 28 20:01:55 2023, MaxMem=  1879048192 cpu:               1.9 elap:               0.1
 (Enter /home/sekinelabo/g16/l303.exe)
 DipDrv:  MaxL=1.
 Leave Link  303 at Tue Nov 28 20:01:55 2023, MaxMem=  1879048192 cpu:               0.5 elap:               0.0
 (Enter /home/sekinelabo/g16/l401.exe)
 ExpMin= 7.60D-03 ExpMax= 3.62D+04 ExpMxC= 1.21D+03 IAcc=3 IRadAn=         5 AccDes= 0.00D+00
 Harris functional with IExCor=  402 and IRadAn=       5 diagonalized for initial guess.
 HarFok:  IExCor=  402 AccDes= 0.00D+00 IRadAn=         5 IDoV= 1 UseB2=F ITyADJ=14
 ICtDFT=  3500011 ScaDFX=  1.000000  1.000000  1.000000  1.000000
 FoFCou: FMM=F IPFlag=           0 FMFlag=      100000 FMFlg1=           0
         NFxFlg=           0 DoJE=T BraDBF=F KetDBF=T FulRan=T
         wScrn=  0.000000 ICntrl=       500 IOpCl=  0 I1Cent=   200000004 NGrid=           0
         NMat0=    1 NMatS0=      1 NMatT0=    0 NMatD0=    1 NMtDS0=    0 NMtDT0=    0
 Petite list used in FoFCou.
 Harris En= -1135.89864189849    
 JPrj=0 DoOrth=F DoCkMO=F.
 Initial guess <Sx>= 0.0000 <Sy>= 0.0000 <Sz>= 0.5000 <S**2>= 0.7500 S= 0.5000
 Leave Link  401 at Tue Nov 28 20:01:55 2023, MaxMem=  1879048192 cpu:               4.5 elap:               0.3
 (Enter /home/sekinelabo/g16/l502.exe)
 Keep R1 and R2 ints in memory in canonical form, NReq=506573335.
 FoFCou: FMM=F IPFlag=           0 FMFlag=           0 FMFlg1=           0
         NFxFlg=           0 DoJE=F BraDBF=F KetDBF=F FulRan=T
         wScrn=  0.000000 ICntrl=       600 IOpCl=  0 I1Cent=           0 NGrid=           0
         NMat0=    1 NMatS0=  22155 NMatT0=    0 NMatD0=    1 NMtDS0=    0 NMtDT0=    0
 Symmetry not used in FoFCou.
 Two-electron integral symmetry not used.
 UHF open shell SCF:
 Using DIIS extrapolation, IDIIS=  1040.
 NGot=  1879048192 LenX=  1388082565 LenY=  1388035035
 Requested convergence on RMS density matrix=1.00D-08 within 128 cycles.
 Requested convergence on MAX density matrix=1.00D-06.
 Requested convergence on             energy=1.00D-06.
 No special actions if energy rises.

 Cycle   1  Pass 1  IDiag  1:
 E= -1136.09102744443    
 DIIS: error= 1.12D-02 at cycle   1 NSaved=   1.
 NSaved= 1 IEnMin= 1 EnMin= -1136.09102744443     IErMin= 1 ErrMin= 1.12D-02
 ErrMax= 1.12D-02  0.00D+00 EMaxC= 1.00D-01 BMatC= 1.92D-01 BMatP= 1.92D-01
 IDIUse=3 WtCom= 8.88D-01 WtEn= 1.12D-01
 Coeff-Com:  0.100D+01
 Coeff-En:   0.100D+01
 Coeff:      0.100D+01
 Gap=     0.048 Goal=   None    Shift=    0.000
 Gap=     0.035 Goal=   None    Shift=    0.000
 GapD=    0.035 DampG=0.250 DampE=0.500 DampFc=0.2500 IDamp=-1.
 Damping current iteration by 2.50D-01
 RMSDP=2.74D-02 MaxDP=2.76D+00              OVMax= 2.38D-01

 Cycle   2  Pass 1  IDiag  1:
 E= -1136.10414305268     Delta-E=       -0.013115608250 Rises=F Damp=T
 DIIS: error= 8.05D-03 at cycle   2 NSaved=   2.
 NSaved= 2 IEnMin= 2 EnMin= -1136.10414305268     IErMin= 2 ErrMin= 8.05D-03
 ErrMax= 8.05D-03  0.00D+00 EMaxC= 1.00D-01 BMatC= 7.29D-02 BMatP= 1.92D-01
 IDIUse=3 WtCom= 9.19D-01 WtEn= 8.05D-02
 Coeff-Com: -0.125D+01 0.225D+01
 Coeff-En:   0.000D+00 0.100D+01
 Coeff:     -0.115D+01 0.215D+01
 Gap=     0.061 Goal=   None    Shift=    0.000
 Gap=     0.043 Goal=   None    Shift=    0.000
 RMSDP=8.94D-03 MaxDP=1.00D+00 DE=-1.31D-02 OVMax= 1.98D-01

 Cycle   3  Pass 1  IDiag  1:
 E= -1136.12546578902     Delta-E=       -0.021322736343 Rises=F Damp=F
 DIIS: error= 3.44D-03 at cycle   3 NSaved=   3.
 NSaved= 3 IEnMin= 3 EnMin= -1136.12546578902     IErMin= 3 ErrMin= 3.44D-03
 ErrMax= 3.44D-03  0.00D+00 EMaxC= 1.00D-01 BMatC= 3.80D-03 BMatP= 7.29D-02
 IDIUse=3 WtCom= 9.66D-01 WtEn= 3.44D-02
 Coeff-Com: -0.272D+00 0.480D+00 0.793D+00
 Coeff-En:   0.000D+00 0.000D+00 0.100D+01
 Coeff:     -0.263D+00 0.463D+00 0.800D+00
 Gap=     0.053 Goal=   None    Shift=    0.000
 Gap=     0.039 Goal=   None    Shift=    0.000
 RMSDP=5.78D-03 MaxDP=4.84D-01 DE=-2.13D-02 OVMax= 9.76D-02

 Cycle   4  Pass 1  IDiag  1:
 E= -1136.12595782046     Delta-E=       -0.000492031438 Rises=F Damp=F
 DIIS: error= 2.72D-03 at cycle   4 NSaved=   4.
 NSaved= 4 IEnMin= 4 EnMin= -1136.12595782046     IErMin= 4 ErrMin= 2.72D-03
 ErrMax= 2.72D-03  0.00D+00 EMaxC= 1.00D-01 BMatC= 3.22D-03 BMatP= 3.80D-03
 IDIUse=3 WtCom= 9.73D-01 WtEn= 2.72D-02
 Coeff-Com: -0.633D-02 0.834D-02 0.479D+00 0.519D+00
 Coeff-En:   0.000D+00 0.000D+00 0.465D+00 0.535D+00
 Coeff:     -0.616D-02 0.811D-02 0.478D+00 0.520D+00
 Gap=     0.055 Goal=   None    Shift=    0.000
 Gap=     0.040 Goal=   None    Shift=    0.000
 RMSDP=2.64D-03 MaxDP=1.97D-01 DE=-4.92D-04 OVMax= 5.52D-02

 Cycle   5  Pass 1  IDiag  1:
 E= -1136.12869525078     Delta-E=       -0.002737430321 Rises=F Damp=F
 DIIS: error= 3.56D-04 at cycle   5 NSaved=   5.
 NSaved= 5 IEnMin= 5 EnMin= -1136.12869525078     IErMin= 5 ErrMin= 3.56D-04
 ErrMax= 3.56D-04  0.00D+00 EMaxC= 1.00D-01 BMatC= 4.85D-05 BMatP= 3.22D-03
 IDIUse=3 WtCom= 9.96D-01 WtEn= 3.56D-03
 Coeff-Com: -0.354D-02 0.375D-02 0.246D+00 0.275D+00 0.479D+00
 Coeff-En:   0.000D+00 0.000D+00 0.000D+00 0.000D+00 0.100D+01
 Coeff:     -0.353D-02 0.373D-02 0.245D+00 0.274D+00 0.481D+00
 Gap=     0.055 Goal=   None    Shift=    0.000
 Gap=     0.040 Goal=   None    Shift=    0.000
 RMSDP=3.29D-04 MaxDP=2.07D-02 DE=-2.74D-03 OVMax= 1.20D-02

 Cycle   6  Pass 1  IDiag  1:
 E= -1136.12875045211     Delta-E=       -0.000055201331 Rises=F Damp=F
 DIIS: error= 1.43D-04 at cycle   6 NSaved=   6.
 NSaved= 6 IEnMin= 6 EnMin= -1136.12875045211     IErMin= 6 ErrMin= 1.43D-04
 ErrMax= 1.43D-04  0.00D+00 EMaxC= 1.00D-01 BMatC= 8.43D-06 BMatP= 4.85D-05
 IDIUse=3 WtCom= 9.99D-01 WtEn= 1.43D-03
 Coeff-Com: -0.173D-02 0.187D-02-0.314D-01-0.324D-01 0.266D+00 0.798D+00
 Coeff-En:   0.000D+00 0.000D+00 0.000D+00 0.000D+00 0.115D+00 0.885D+00
 Coeff:     -0.173D-02 0.187D-02-0.313D-01-0.323D-01 0.265D+00 0.798D+00
 Gap=     0.055 Goal=   None    Shift=    0.000
 Gap=     0.040 Goal=   None    Shift=    0.000
 RMSDP=2.61D-04 MaxDP=2.00D-02 DE=-5.52D-05 OVMax= 5.23D-03

 Cycle   7  Pass 1  IDiag  1:
 E= -1136.12876355715     Delta-E=       -0.000013105037 Rises=F Damp=F
 DIIS: error= 6.71D-05 at cycle   7 NSaved=   7.
 NSaved= 7 IEnMin= 7 EnMin= -1136.12876355715     IErMin= 7 ErrMin= 6.71D-05
 ErrMax= 6.71D-05  0.00D+00 EMaxC= 1.00D-01 BMatC= 1.97D-06 BMatP= 8.43D-06
 IDIUse=1 WtCom= 1.00D+00 WtEn= 0.00D+00
 Coeff-Com: -0.404D-03 0.324D-03-0.454D-01-0.487D-01 0.105D+00 0.459D+00
 Coeff-Com:  0.530D+00
 Coeff:     -0.404D-03 0.324D-03-0.454D-01-0.487D-01 0.105D+00 0.459D+00
 Coeff:      0.530D+00
 Gap=     0.055 Goal=   None    Shift=    0.000
 Gap=     0.040 Goal=   None    Shift=    0.000
 RMSDP=1.03D-04 MaxDP=8.42D-03 DE=-1.31D-05 OVMax= 3.09D-03

 Cycle   8  Pass 1  IDiag  1:
 E= -1136.12876676153     Delta-E=       -0.000003204382 Rises=F Damp=F
 DIIS: error= 2.40D-05 at cycle   8 NSaved=   8.
 NSaved= 8 IEnMin= 8 EnMin= -1136.12876676153     IErMin= 8 ErrMin= 2.40D-05
 ErrMax= 2.40D-05  0.00D+00 EMaxC= 1.00D-01 BMatC= 2.65D-07 BMatP= 1.97D-06
 IDIUse=1 WtCom= 1.00D+00 WtEn= 0.00D+00
 Coeff-Com:  0.849D-03-0.108D-02-0.632D-02-0.686D-02-0.486D-01-0.117D+00
 Coeff-Com:  0.199D+00 0.980D+00
 Coeff:      0.849D-03-0.108D-02-0.632D-02-0.686D-02-0.486D-01-0.117D+00
 Coeff:      0.199D+00 0.980D+00
 Gap=     0.055 Goal=   None    Shift=    0.000
 Gap=     0.040 Goal=   None    Shift=    0.000
 RMSDP=8.21D-05 MaxDP=4.69D-03 DE=-3.20D-06 OVMax= 2.92D-03

 Cycle   9  Pass 1  IDiag  1:
 E= -1136.12876787609     Delta-E=       -0.000001114563 Rises=F Damp=F
 DIIS: error= 1.26D-05 at cycle   9 NSaved=   9.
 NSaved= 9 IEnMin= 9 EnMin= -1136.12876787609     IErMin= 9 ErrMin= 1.26D-05
 ErrMax= 1.26D-05  0.00D+00 EMaxC= 1.00D-01 BMatC= 3.50D-08 BMatP= 2.65D-07
 IDIUse=1 WtCom= 1.00D+00 WtEn= 0.00D+00
 Coeff-Com:  0.451D-03-0.562D-03 0.372D-02 0.328D-02-0.207D-01-0.756D-01
 Coeff-Com: -0.298D-01 0.137D+00 0.982D+00
 Coeff:      0.451D-03-0.562D-03 0.372D-02 0.328D-02-0.207D-01-0.756D-01
 Coeff:     -0.298D-01 0.137D+00 0.982D+00
 Gap=     0.055 Goal=   None    Shift=    0.000
 Gap=     0.040 Goal=   None    Shift=    0.000
 RMSDP=3.07D-05 MaxDP=1.86D-03 DE=-1.11D-06 OVMax= 1.52D-03

 Cycle  10  Pass 1  IDiag  1:
 E= -1136.12876810824     Delta-E=       -0.000000232150 Rises=F Damp=F
 DIIS: error= 7.55D-06 at cycle  10 NSaved=  10.
 NSaved=10 IEnMin=10 EnMin= -1136.12876810824     IErMin=10 ErrMin= 7.55D-06
 ErrMax= 7.55D-06  0.00D+00 EMaxC= 1.00D-01 BMatC= 1.63D-08 BMatP= 3.50D-08
 IDIUse=1 WtCom= 1.00D+00 WtEn= 0.00D+00
 Coeff-Com:  0.320D-04-0.310D-04 0.373D-02 0.340D-02 0.768D-03-0.165D-01
 Coeff-Com: -0.514D-01-0.132D+00 0.427D+00 0.765D+00
 Coeff:      0.320D-04-0.310D-04 0.373D-02 0.340D-02 0.768D-03-0.165D-01
 Coeff:     -0.514D-01-0.132D+00 0.427D+00 0.765D+00
 Gap=     0.055 Goal=   None    Shift=    0.000
 Gap=     0.040 Goal=   None    Shift=    0.000
 RMSDP=1.83D-05 MaxDP=1.52D-03 DE=-2.32D-07 OVMax= 9.05D-04

 Cycle  11  Pass 1  IDiag  1:
 E= -1136.12876818500     Delta-E=       -0.000000076756 Rises=F Damp=F
 DIIS: error= 4.67D-06 at cycle  11 NSaved=  11.
 NSaved=11 IEnMin=11 EnMin= -1136.12876818500     IErMin=11 ErrMin= 4.67D-06
 ErrMax= 4.67D-06  0.00D+00 EMaxC= 1.00D-01 BMatC= 6.11D-09 BMatP= 1.63D-08
 IDIUse=1 WtCom= 1.00D+00 WtEn= 0.00D+00
 Coeff-Com: -0.217D-03 0.282D-03-0.427D-04-0.150D-03 0.957D-02 0.218D-01
 Coeff-Com: -0.554D-02-0.101D+00-0.262D+00 0.378D+00 0.959D+00
 Coeff:     -0.217D-03 0.282D-03-0.427D-04-0.150D-03 0.957D-02 0.218D-01
 Coeff:     -0.554D-02-0.101D+00-0.262D+00 0.378D+00 0.959D+00
 Gap=     0.055 Goal=   None    Shift=    0.000
 Gap=     0.040 Goal=   None    Shift=    0.000
 RMSDP=1.11D-05 MaxDP=1.03D-03 DE=-7.68D-08 OVMax= 7.70D-04

 Cycle  12  Pass 1  IDiag  1:
 E= -1136.12876822581     Delta-E=       -0.000000040812 Rises=F Damp=F
 DIIS: error= 2.28D-06 at cycle  12 NSaved=  12.
 NSaved=12 IEnMin=12 EnMin= -1136.12876822581     IErMin=12 ErrMin= 2.28D-06
 ErrMax= 2.28D-06  0.00D+00 EMaxC= 1.00D-01 BMatC= 1.14D-09 BMatP= 6.11D-09
 IDIUse=1 WtCom= 1.00D+00 WtEn= 0.00D+00
 Coeff-Com: -0.425D-04 0.512D-04-0.605D-03-0.514D-03 0.225D-02 0.674D-02
 Coeff-Com:  0.832D-02 0.146D-01-0.163D+00-0.910D-01 0.214D+00 0.101D+01
 Coeff:     -0.425D-04 0.512D-04-0.605D-03-0.514D-03 0.225D-02 0.674D-02
 Coeff:      0.832D-02 0.146D-01-0.163D+00-0.910D-01 0.214D+00 0.101D+01
 Gap=     0.055 Goal=   None    Shift=    0.000
 Gap=     0.040 Goal=   None    Shift=    0.000
 RMSDP=5.33D-06 MaxDP=4.29D-04 DE=-4.08D-08 OVMax= 4.22D-04

 Cycle  13  Pass 1  IDiag  1:
 E= -1136.12876823697     Delta-E=       -0.000000011157 Rises=F Damp=F
 DIIS: error= 1.08D-06 at cycle  13 NSaved=  13.
 NSaved=13 IEnMin=13 EnMin= -1136.12876823697     IErMin=13 ErrMin= 1.08D-06
 ErrMax= 1.08D-06  0.00D+00 EMaxC= 1.00D-01 BMatC= 3.58D-10 BMatP= 1.14D-09
 IDIUse=1 WtCom= 1.00D+00 WtEn= 0.00D+00
 Coeff-Com:  0.795D-04-0.104D-03-0.854D-04-0.315D-04-0.316D-02-0.744D-02
 Coeff-Com:  0.495D-02 0.417D-01 0.603D-01-0.121D+00-0.334D+00 0.969D-01
 Coeff-Com:  0.126D+01
 Coeff:      0.795D-04-0.104D-03-0.854D-04-0.315D-04-0.316D-02-0.744D-02
 Coeff:      0.495D-02 0.417D-01 0.603D-01-0.121D+00-0.334D+00 0.969D-01
 Coeff:      0.126D+01
 Gap=     0.055 Goal=   None    Shift=    0.000
 Gap=     0.040 Goal=   None    Shift=    0.000
 RMSDP=3.27D-06 MaxDP=1.89D-04 DE=-1.12D-08 OVMax= 2.94D-04

 Cycle  14  Pass 1  IDiag  1:
 E= -1136.12876824134     Delta-E=       -0.000000004370 Rises=F Damp=F
 DIIS: error= 3.82D-07 at cycle  14 NSaved=  14.
 NSaved=14 IEnMin=14 EnMin= -1136.12876824134     IErMin=14 ErrMin= 3.82D-07
 ErrMax= 3.82D-07  0.00D+00 EMaxC= 1.00D-01 BMatC= 7.39D-11 BMatP= 3.58D-10
 IDIUse=1 WtCom= 1.00D+00 WtEn= 0.00D+00
 Coeff-Com:  0.174D-04-0.216D-04 0.192D-04 0.240D-05-0.761D-03-0.173D-02
 Coeff-Com: -0.515D-03-0.129D-02 0.504D-01 0.954D-02-0.973D-01-0.266D+00
 Coeff-Com:  0.170D+00 0.114D+01
 Coeff:      0.174D-04-0.216D-04 0.192D-04 0.240D-05-0.761D-03-0.173D-02
 Coeff:     -0.515D-03-0.129D-02 0.504D-01 0.954D-02-0.973D-01-0.266D+00
 Coeff:      0.170D+00 0.114D+01
 Gap=     0.055 Goal=   None    Shift=    0.000
 Gap=     0.040 Goal=   None    Shift=    0.000
 RMSDP=1.67D-06 MaxDP=1.32D-04 DE=-4.37D-09 OVMax= 1.37D-04

 Cycle  15  Pass 1  IDiag  1:
 E= -1136.12876824219     Delta-E=       -0.000000000857 Rises=F Damp=F
 DIIS: error= 1.90D-07 at cycle  15 NSaved=  15.
 NSaved=15 IEnMin=15 EnMin= -1136.12876824219     IErMin=15 ErrMin= 1.90D-07
 ErrMax= 1.90D-07  0.00D+00 EMaxC= 1.00D-01 BMatC= 1.29D-11 BMatP= 7.39D-11
 IDIUse=1 WtCom= 1.00D+00 WtEn= 0.00D+00
 Coeff-Com: -0.127D-04 0.169D-04 0.627D-04 0.288D-04 0.576D-03 0.111D-02
 Coeff-Com: -0.134D-02-0.745D-02-0.106D-01 0.242D-01 0.653D-01-0.159D-01
 Coeff-Com: -0.264D+00-0.177D-01 0.123D+01
 Coeff:     -0.127D-04 0.169D-04 0.627D-04 0.288D-04 0.576D-03 0.111D-02
 Coeff:     -0.134D-02-0.745D-02-0.106D-01 0.242D-01 0.653D-01-0.159D-01
 Coeff:     -0.264D+00-0.177D-01 0.123D+01
 Gap=     0.055 Goal=   None    Shift=    0.000
 Gap=     0.040 Goal=   None    Shift=    0.000
 RMSDP=8.96D-07 MaxDP=5.73D-05 DE=-8.57D-10 OVMax= 4.56D-05

 Cycle  16  Pass 1  IDiag  1:
 E= -1136.12876824234     Delta-E=       -0.000000000148 Rises=F Damp=F
 DIIS: error= 5.70D-08 at cycle  16 NSaved=  16.
 NSaved=16 IEnMin=16 EnMin= -1136.12876824234     IErMin=16 ErrMin= 5.70D-08
 ErrMax= 5.70D-08  0.00D+00 EMaxC= 1.00D-01 BMatC= 1.84D-12 BMatP= 1.29D-11
 IDIUse=1 WtCom= 1.00D+00 WtEn= 0.00D+00
 Coeff-Com: -0.505D-06 0.397D-06-0.906D-05 0.325D-05 0.394D-05 0.130D-04
 Coeff-Com:  0.365D-03 0.194D-02-0.608D-02-0.624D-02-0.105D-02 0.496D-01
 Coeff-Com:  0.267D-01-0.166D+00-0.276D+00 0.138D+01
 Coeff:     -0.505D-06 0.397D-06-0.906D-05 0.325D-05 0.394D-05 0.130D-04
 Coeff:      0.365D-03 0.194D-02-0.608D-02-0.624D-02-0.105D-02 0.496D-01
 Coeff:      0.267D-01-0.166D+00-0.276D+00 0.138D+01
 Gap=     0.055 Goal=   None    Shift=    0.000
 Gap=     0.040 Goal=   None    Shift=    0.000
 RMSDP=4.12D-07 MaxDP=2.93D-05 DE=-1.48D-10 OVMax= 1.39D-05

 Cycle  17  Pass 1  IDiag  1:
 E= -1136.12876824234     Delta-E=        0.000000000000 Rises=F Damp=F
 DIIS: error= 2.87D-08 at cycle  17 NSaved=  17.
 NSaved=17 IEnMin=16 EnMin= -1136.12876824234     IErMin=17 ErrMin= 2.87D-08
 ErrMax= 2.87D-08  0.00D+00 EMaxC= 1.00D-01 BMatC= 4.31D-13 BMatP= 1.84D-12
 IDIUse=1 WtCom= 1.00D+00 WtEn= 0.00D+00
 Coeff-Com:  0.171D-05-0.237D-05-0.175D-04-0.874D-05-0.752D-04-0.115D-03
 Coeff-Com:  0.273D-03 0.137D-02 0.486D-03-0.514D-02-0.915D-02 0.103D-01
 Coeff-Com:  0.475D-01-0.285D-01-0.249D+00 0.242D+00 0.990D+00
 Coeff:      0.171D-05-0.237D-05-0.175D-04-0.874D-05-0.752D-04-0.115D-03
 Coeff:      0.273D-03 0.137D-02 0.486D-03-0.514D-02-0.915D-02 0.103D-01
 Coeff:      0.475D-01-0.285D-01-0.249D+00 0.242D+00 0.990D+00
 Gap=     0.055 Goal=   None    Shift=    0.000
 Gap=     0.040 Goal=   None    Shift=    0.000
 RMSDP=1.44D-07 MaxDP=7.43D-06 DE= 4.55D-13 OVMax= 4.47D-06

 Cycle  18  Pass 1  IDiag  1:
 E= -1136.12876824235     Delta-E=       -0.000000000005 Rises=F Damp=F
 DIIS: error= 1.38D-08 at cycle  18 NSaved=  18.
 NSaved=18 IEnMin=18 EnMin= -1136.12876824235     IErMin=18 ErrMin= 1.38D-08
 ErrMax= 1.38D-08  0.00D+00 EMaxC= 1.00D-01 BMatC= 9.20D-14 BMatP= 4.31D-13
 IDIUse=1 WtCom= 1.00D+00 WtEn= 0.00D+00
 Coeff-Com:  0.102D-05-0.129D-05 0.127D-06-0.136D-05-0.371D-04-0.890D-04
 Coeff-Com: -0.351D-04 0.309D-04 0.207D-02 0.187D-04-0.284D-02-0.115D-01
 Coeff-Com:  0.831D-02 0.381D-01 0.103D-01-0.329D+00 0.197D+00 0.109D+01
 Coeff:      0.102D-05-0.129D-05 0.127D-06-0.136D-05-0.371D-04-0.890D-04
 Coeff:     -0.351D-04 0.309D-04 0.207D-02 0.187D-04-0.284D-02-0.115D-01
 Coeff:      0.831D-02 0.381D-01 0.103D-01-0.329D+00 0.197D+00 0.109D+01
 Gap=     0.055 Goal=   None    Shift=    0.000
 Gap=     0.040 Goal=   None    Shift=    0.000
 RMSDP=8.96D-08 MaxDP=4.56D-06 DE=-5.00D-12 OVMax= 2.38D-06

 Cycle  19  Pass 1  IDiag  1:
 E= -1136.12876824234     Delta-E=        0.000000000005 Rises=F Damp=F
 DIIS: error= 3.88D-09 at cycle  19 NSaved=  19.
 NSaved=19 IEnMin=18 EnMin= -1136.12876824235     IErMin=19 ErrMin= 3.88D-09
 ErrMax= 3.88D-09  0.00D+00 EMaxC= 1.00D-01 BMatC= 8.04D-15 BMatP= 9.20D-14
 IDIUse=1 WtCom= 1.00D+00 WtEn= 0.00D+00
 Coeff-Com: -0.339D-06 0.458D-06 0.180D-05 0.740D-06 0.112D-04 0.277D-04
 Coeff-Com: -0.341D-04-0.233D-03-0.853D-04 0.792D-03 0.159D-02-0.204D-02
 Coeff-Com: -0.659D-02 0.582D-02 0.354D-01-0.495D-01-0.109D+00 0.362D-01
 Coeff-Com:  0.109D+01
 Coeff:     -0.339D-06 0.458D-06 0.180D-05 0.740D-06 0.112D-04 0.277D-04
 Coeff:     -0.341D-04-0.233D-03-0.853D-04 0.792D-03 0.159D-02-0.204D-02
 Coeff:     -0.659D-02 0.582D-02 0.354D-01-0.495D-01-0.109D+00 0.362D-01
 Coeff:      0.109D+01
 Gap=     0.055 Goal=   None    Shift=    0.000
 Gap=     0.040 Goal=   None    Shift=    0.000
 RMSDP=2.06D-08 MaxDP=1.59D-06 DE= 5.00D-12 OVMax= 5.99D-07

 Cycle  20  Pass 1  IDiag  1:
 E= -1136.12876824234     Delta-E=       -0.000000000000 Rises=F Damp=F
 DIIS: error= 1.94D-09 at cycle  20 NSaved=  20.
 NSaved=20 IEnMin=18 EnMin= -1136.12876824235     IErMin=20 ErrMin= 1.94D-09
 ErrMax= 1.94D-09  0.00D+00 EMaxC= 1.00D-01 BMatC= 1.09D-15 BMatP= 8.04D-15
 IDIUse=1 WtCom= 1.00D+00 WtEn= 0.00D+00
 Large coefficients: NSaved= 20 BigCof=    0.00 CofMax=   10.00 Det=-2.75D-15
 Inversion failed.  Reducing to 19 matrices.
 Large coefficients: NSaved= 19 BigCof=    0.00 CofMax=   10.00 Det=-3.06D-15
 Inversion failed.  Reducing to 18 matrices.
 Large coefficients: NSaved= 18 BigCof=    0.00 CofMax=   10.00 Det=-3.07D-15
 Inversion failed.  Reducing to 17 matrices.
 Large coefficients: NSaved= 17 BigCof=    0.00 CofMax=   10.00 Det=-3.14D-15
 Inversion failed.  Reducing to 16 matrices.
 Large coefficients: NSaved= 16 BigCof=    0.00 CofMax=   10.00 Det=-3.60D-15
 Inversion failed.  Reducing to 15 matrices.
 Coeff-Com: -0.113D-05 0.701D-05 0.175D-04-0.899D-04-0.292D-06-0.178D-04
 Coeff-Com:  0.764D-03-0.526D-03-0.208D-02-0.568D-03 0.233D-01-0.149D-01
 Coeff-Com: -0.102D+00 0.347D-01 0.106D+01
 Coeff:     -0.113D-05 0.701D-05 0.175D-04-0.899D-04-0.292D-06-0.178D-04
 Coeff:      0.764D-03-0.526D-03-0.208D-02-0.568D-03 0.233D-01-0.149D-01
 Coeff:     -0.102D+00 0.347D-01 0.106D+01
 Gap=     0.055 Goal=   None    Shift=    0.000
 Gap=     0.040 Goal=   None    Shift=    0.000
 RMSDP=7.00D-09 MaxDP=7.35D-07 DE=-4.55D-13 OVMax= 1.55D-07

 SCF Done:  E(UB3LYP) =  -1136.12876824     A.U. after   20 cycles
            NFock= 20  Conv=0.70D-08     -V/T= 2.0028
 <Sx>= 0.0000 <Sy>= 0.0000 <Sz>= 0.5000 <S**2>= 0.7622 S= 0.5061
 <L.S>= 0.000000000000E+00
 KE= 1.132975061208D+03 PE=-3.404895286920D+03 EE= 7.980932623178D+02
 Annihilation of the first spin contaminant:
 S**2 before annihilation     0.7622,   after     0.7501
 Leave Link  502 at Tue Nov 28 20:02:12 2023, MaxMem=  1879048192 cpu:             187.6 elap:              16.8
 (Enter /home/sekinelabo/g16/l601.exe)
 Copying SCF densities to generalized density rwf, IOpCl= 1 IROHF=0.

 **********************************************************************

            Population analysis using the SCF Density.

 **********************************************************************

 Orbital symmetries:
 Alpha Orbitals:
       Occupied  (A) (A) (A) (A) (A) (A) (A) (A) (A) (A) (A) (A)
                 (A) (A) (A) (A) (A) (A) (A) (A) (A) (A) (A) (A)
                 (A) (A) (A) (A) (A) (A) (A) (A) (A) (A) (A) (A)
                 (A) (A) (A)
       Virtual   (A) (A) (A) (A) (A) (A) (A) (A) (A) (A) (A) (A)
                 (A) (A) (A) (A) (A) (A) (A) (A) (A) (A) (A) (A)
                 (A) (A) (A) (A) (A) (A) (A) (A) (A) (A) (A) (A)
                 (A) (A) (A) (A) (A) (A) (A) (A) (A) (A) (A) (A)
                 (A) (A) (A) (A) (A) (A) (A) (A) (A) (A) (A) (A)
                 (A) (A) (A) (A) (A) (A) (A) (A) (A) (A) (A) (A)
                 (A) (A) (A) (A) (A) (A) (A) (A) (A) (A) (A) (A)
                 (A) (A) (A) (A) (A) (A) (A) (A) (A) (A) (A) (A)
                 (A) (A) (A) (A) (A) (A) (A) (A) (A) (A) (A) (A)
                 (A) (A) (A) (A) (A) (A) (A) (A) (A) (A) (A) (A)
                 (A) (A) (A) (A) (A) (A) (A) (A) (A) (A) (A) (A)
                 (A) (A) (A) (A) (A) (A) (A) (A) (A) (A) (A) (A)
                 (A) (A) (A) (A) (A) (A) (A) (A) (A) (A) (A) (A)
                 (A) (A) (A) (A) (A) (A) (A) (A) (A) (A) (A) (A)
                 (A) (A) (A)
 Beta  Orbitals:
       Occupied  (A) (A) (A) (A) (A) (A) (A) (A) (A) (A) (A) (A)
                 (A) (A) (A) (A) (A) (A) (A) (A) (A) (A) (A) (A)
                 (A) (A) (A) (A) (A) (A) (A) (A) (A) (A) (A) (A)
                 (A) (A)
       Virtual   (A) (A) (A) (A) (A) (A) (A) (A) (A) (A) (A) (A)
                 (A) (A) (A) (A) (A) (A) (A) (A) (A) (A) (A) (A)
                 (A) (A) (A) (A) (A) (A) (A) (A) (A) (A) (A) (A)
                 (A) (A) (A) (A) (A) (A) (A) (A) (A) (A) (A) (A)
                 (A) (A) (A) (A) (A) (A) (A) (A) (A) (A) (A) (A)
                 (A) (A) (A) (A) (A) (A) (A) (A) (A) (A) (A) (A)
                 (A) (A) (A) (A) (A) (A) (A) (A) (A) (A) (A) (A)
                 (A) (A) (A) (A) (A) (A) (A) (A) (A) (A) (A) (A)
                 (A) (A) (A) (A) (A) (A) (A) (A) (A) (A) (A) (A)
                 (A) (A) (A) (A) (A) (A) (A) (A) (A) (A) (A) (A)
                 (A) (A) (A) (A) (A) (A) (A) (A) (A) (A) (A) (A)
                 (A) (A) (A) (A) (A) (A) (A) (A) (A) (A) (A) (A)
                 (A) (A) (A) (A) (A) (A) (A) (A) (A) (A) (A) (A)
                 (A) (A) (A) (A) (A) (A) (A) (A) (A) (A) (A) (A)
                 (A) (A) (A) (A)
 The electronic state is 2-A.
 Alpha  occ. eigenvalues --  -38.44242 -38.44080 -38.43924 -38.43728 -38.43603
 Alpha  occ. eigenvalues --  -38.43460 -38.42775  -2.20109  -2.19958  -2.19825
 Alpha  occ. eigenvalues --   -2.19567  -2.19532  -2.19400  -2.18657  -1.13770
 Alpha  occ. eigenvalues --   -1.13757  -1.13732  -1.13633  -1.13622  -1.13579
 Alpha  occ. eigenvalues --   -1.13529  -1.13495  -1.13438  -1.13281  -1.13237
 Alpha  occ. eigenvalues --   -1.13213  -1.13186  -1.13183  -1.13150  -1.13078
 Alpha  occ. eigenvalues --   -1.13064  -1.13021  -1.12325  -1.12314  -1.12294
 Alpha  occ. eigenvalues --   -0.18713  -0.13764  -0.11640  -0.11351
 Alpha virt. eigenvalues --   -0.05872  -0.05374  -0.04640  -0.03351  -0.02682
 Alpha virt. eigenvalues --   -0.02451  -0.01891  -0.01110  -0.00573   0.00038
 Alpha virt. eigenvalues --    0.00230   0.00277   0.00519   0.00559   0.00736
 Alpha virt. eigenvalues --    0.00845   0.00941   0.01066   0.01186   0.01374
 Alpha virt. eigenvalues --    0.01391   0.01608   0.01668   0.01940   0.01980
 Alpha virt. eigenvalues --    0.02350   0.02449   0.02588   0.02620   0.02726
 Alpha virt. eigenvalues --    0.02753   0.02780   0.02861   0.02956   0.03040
 Alpha virt. eigenvalues --    0.03105   0.03271   0.03301   0.03543   0.03747
 Alpha virt. eigenvalues --    0.03912   0.04133   0.04517   0.04873   0.04894
 Alpha virt. eigenvalues --    0.05003   0.05258   0.05398   0.05710   0.05845
 Alpha virt. eigenvalues --    0.06056   0.06147   0.06557   0.06994   0.07240
 Alpha virt. eigenvalues --    0.07449   0.07663   0.08221   0.08410   0.08500
 Alpha virt. eigenvalues --    0.09021   0.09552   0.10398   0.11327   0.11782
 Alpha virt. eigenvalues --    0.12170   0.12421   0.12706   0.12824   0.13112
 Alpha virt. eigenvalues --    0.13433   0.13818   0.13891   0.14315   0.14571
 Alpha virt. eigenvalues --    0.14751   0.15223   0.15669   0.16349   0.19157
 Alpha virt. eigenvalues --    0.24841   0.25452   0.27594   0.28359   0.29147
 Alpha virt. eigenvalues --    0.29853   0.30588   0.31910   0.32575   0.33190
 Alpha virt. eigenvalues --    0.33980   0.35454   0.36462   0.37129   0.37377
 Alpha virt. eigenvalues --    0.38663   0.39283   0.40298   0.41188   0.41999
 Alpha virt. eigenvalues --    0.42547   0.43263   0.44002   0.44415   0.44591
 Alpha virt. eigenvalues --    0.44862   0.45182   0.45328   0.45671   0.46115
 Alpha virt. eigenvalues --    0.46800   0.47085   0.47687   0.49002   0.49408
 Alpha virt. eigenvalues --    0.49866   0.50133   0.50467   0.51716   0.52185
 Alpha virt. eigenvalues --    0.52684   0.53023   0.54769   0.55587   0.57107
 Alpha virt. eigenvalues --    0.58159   0.59369   0.59528   0.60551   0.62061
 Alpha virt. eigenvalues --    0.63265   0.64872   0.65214   0.66688   0.67627
 Alpha virt. eigenvalues --    0.70998   2.04124   2.12341   2.15816   2.18590
 Alpha virt. eigenvalues --    2.22965   2.25584   2.26360   4.42615   4.43274
 Alpha virt. eigenvalues --    4.43803   4.44393   4.44612   4.45206   4.45947
 Alpha virt. eigenvalues --    4.46400   4.47692   4.48041   4.48228   4.50318
 Alpha virt. eigenvalues --    4.50488   4.51561   4.52764   4.53698   4.55421
 Alpha virt. eigenvalues --    4.57642   4.60732   4.61636   4.65295  96.23667
 Alpha virt. eigenvalues --   96.33768  96.37731  96.41330  96.46794  96.50343
 Alpha virt. eigenvalues --   96.50703
  Beta  occ. eigenvalues --  -38.44159 -38.44064 -38.43891 -38.43717 -38.43566
  Beta  occ. eigenvalues --  -38.43448 -38.42775  -2.19955  -2.19932  -2.19767
  Beta  occ. eigenvalues --   -2.19512  -2.19501  -2.19383  -2.18657  -1.13669
  Beta  occ. eigenvalues --   -1.13653  -1.13634  -1.13605  -1.13597  -1.13540
  Beta  occ. eigenvalues --   -1.13492  -1.13443  -1.13388  -1.13232  -1.13193
  Beta  occ. eigenvalues --   -1.13176  -1.13170  -1.13163  -1.13125  -1.13058
  Beta  occ. eigenvalues --   -1.13026  -1.13013  -1.12322  -1.12311  -1.12292
  Beta  occ. eigenvalues --   -0.17990  -0.13597  -0.11411
  Beta virt. eigenvalues --   -0.07409  -0.05694  -0.05157  -0.04134  -0.02995
  Beta virt. eigenvalues --   -0.02109  -0.01856  -0.01675  -0.01007  -0.00207
  Beta virt. eigenvalues --    0.00065   0.00277   0.00386   0.00696   0.00715
  Beta virt. eigenvalues --    0.00798   0.00912   0.01009   0.01130   0.01258
  Beta virt. eigenvalues --    0.01479   0.01537   0.01670   0.01751   0.01962
  Beta virt. eigenvalues --    0.02161   0.02373   0.02545   0.02676   0.02721
  Beta virt. eigenvalues --    0.02753   0.02773   0.02813   0.02904   0.03003
  Beta virt. eigenvalues --    0.03068   0.03154   0.03334   0.03376   0.03629
  Beta virt. eigenvalues --    0.03790   0.04051   0.04260   0.04671   0.04964
  Beta virt. eigenvalues --    0.05056   0.05225   0.05379   0.05567   0.05725
  Beta virt. eigenvalues --    0.05979   0.06137   0.06184   0.06623   0.07035
  Beta virt. eigenvalues --    0.07449   0.07641   0.07804   0.08251   0.08595
  Beta virt. eigenvalues --    0.08631   0.09177   0.09597   0.10668   0.11680
  Beta virt. eigenvalues --    0.11931   0.12448   0.12824   0.12981   0.13111
  Beta virt. eigenvalues --    0.13310   0.13623   0.13955   0.14068   0.14428
  Beta virt. eigenvalues --    0.14706   0.14953   0.15380   0.15948   0.16580
  Beta virt. eigenvalues --    0.19320   0.25037   0.25705   0.27874   0.28847
  Beta virt. eigenvalues --    0.29388   0.30110   0.30913   0.32101   0.32852
  Beta virt. eigenvalues --    0.33492   0.34193   0.35773   0.36599   0.37331
  Beta virt. eigenvalues --    0.37864   0.38744   0.39440   0.40577   0.41450
  Beta virt. eigenvalues --    0.42321   0.42873   0.43532   0.44230   0.44478
  Beta virt. eigenvalues --    0.44699   0.45040   0.45348   0.45438   0.45840
  Beta virt. eigenvalues --    0.46306   0.46898   0.47176   0.47788   0.49212
  Beta virt. eigenvalues --    0.49633   0.50008   0.50218   0.50644   0.51876
  Beta virt. eigenvalues --    0.52342   0.52848   0.53237   0.54926   0.55753
  Beta virt. eigenvalues --    0.57269   0.58316   0.59492   0.59769   0.60717
  Beta virt. eigenvalues --    0.62227   0.63524   0.65018   0.65276   0.66785
  Beta virt. eigenvalues --    0.67756   0.71012   2.04257   2.12436   2.15908
  Beta virt. eigenvalues --    2.18763   2.23047   2.25659   2.26493   4.42626
  Beta virt. eigenvalues --    4.43322   4.43848   4.44440   4.44685   4.45263
  Beta virt. eigenvalues --    4.45980   4.46432   4.47762   4.48085   4.48289
  Beta virt. eigenvalues --    4.50370   4.50581   4.51611   4.52806   4.53753
  Beta virt. eigenvalues --    4.55445   4.57683   4.60774   4.61657   4.65305
  Beta virt. eigenvalues --   96.23711  96.33800  96.37765  96.41381  96.46822
  Beta virt. eigenvalues --   96.50384  96.50729
          Condensed to atoms (all electrons):
               1          2          3          4          5          6
     1  Na  11.404531  -0.704153   0.455395   0.598995   0.429181  -0.410686
     2  Na  -0.704153  12.644234  -1.605087  -0.589499  -0.622540   0.038468
     3  Na   0.455395  -1.605087  13.783716   0.255209   0.437062  -0.087831
     4  Na   0.598995  -0.589499   0.255209  11.499604   0.189470  -0.447723
     5  Na   0.429181  -0.622540   0.437062   0.189470  11.026349   0.018820
     6  Na  -0.410686   0.038468  -0.087831  -0.447723   0.018820  11.558591
     7  Na  -0.560265   0.542561  -0.994195  -0.029680  -0.520943   0.241820
               7
     1  Na  -0.560265
     2  Na   0.542561
     3  Na  -0.994195
     4  Na  -0.029680
     5  Na  -0.520943
     6  Na   0.241820
     7  Na  11.814217
          Atomic-Atomic Spin Densities.
               1          2          3          4          5          6
     1  Na  -0.211361   0.206834   0.106742  -0.196050  -0.065391   0.160339
     2  Na   0.206834  -0.040932  -0.171735   0.294315  -0.010504  -0.291186
     3  Na   0.106742  -0.171735   1.289198  -0.455996   0.182501   0.088365
     4  Na  -0.196050   0.294315  -0.455996   0.238564  -0.124767   0.122715
     5  Na  -0.065391  -0.010504   0.182501  -0.124767   0.077262   0.130169
     6  Na   0.160339  -0.291186   0.088365   0.122715   0.130169   0.101310
     7  Na  -0.073797   0.071029  -0.768908   0.394035  -0.125474  -0.054173
               7
     1  Na  -0.073797
     2  Na   0.071029
     3  Na  -0.768908
     4  Na   0.394035
     5  Na  -0.125474
     6  Na  -0.054173
     7  Na   0.707833
 Mulliken charges and spin densities:
               1          2
     1  Na  -0.212998  -0.072684
     2  Na   1.296017   0.057821
     3  Na  -1.244269   0.270168
     4  Na  -0.476376   0.272817
     5  Na   0.042600   0.063795
     6  Na   0.088541   0.257539
     7  Na   0.506485   0.150544
 Sum of Mulliken charges =  -0.00000   1.00000
 Mulliken charges and spin densities with hydrogens summed into heavy atoms:
               1          2
     1  Na  -0.212998  -0.072684
     2  Na   1.296017   0.057821
     3  Na  -1.244269   0.270168
     4  Na  -0.476376   0.272817
     5  Na   0.042600   0.063795
     6  Na   0.088541   0.257539
     7  Na   0.506485   0.150544
 Electronic spatial extent (au):  <R**2>=           2419.1331
 Charge=             -0.0000 electrons
 Dipole moment (field-independent basis, Debye):
    X=             -0.4212    Y=             -0.2963    Z=              0.0376  Tot=              0.5164
 Quadrupole moment (field-independent basis, Debye-Ang):
   XX=            -54.3557   YY=            -71.5419   ZZ=            -68.4622
   XY=              2.2336   XZ=              0.9441   YZ=              1.0208
 Traceless Quadrupole moment (field-independent basis, Debye-Ang):
   XX=             10.4309   YY=             -6.7553   ZZ=             -3.6756
   XY=              2.2336   XZ=              0.9441   YZ=              1.0208
 Octapole moment (field-independent basis, Debye-Ang**2):
  XXX=             -4.4121  YYY=              5.3014  ZZZ=              8.6033  XYY=              1.9563
  XXY=            -12.8516  XXZ=            -11.2399  XZZ=             -1.0327  YZZ=             -6.7475
  YYZ=             -6.6472  XYZ=              0.8454
 Hexadecapole moment (field-independent basis, Debye-Ang**3):
 XXXX=          -1871.1811 YYYY=          -1318.4167 ZZZZ=           -877.3493 XXXY=            -23.2991
 XXXZ=             29.3767 YYYX=             34.0670 YYYZ=             -8.0655 ZZZX=              5.4588
 ZZZY=             -0.8504 XXYY=           -480.1925 XXZZ=           -458.4118 YYZZ=           -369.3696
 XXYZ=             41.7111 YYXZ=            -11.5949 ZZXY=             30.7012
 N-N= 3.376981951522D+02 E-N=-3.404895287051D+03  KE= 1.132975061208D+03
                          Isotropic Fermi Contact Couplings
        Atom                 a.u.       MegaHertz       Gauss      10(-4) cm-1
     1  Na(23)            -0.01383     -16.36208      -5.83840      -5.45780
     2  Na(23)             0.04155      49.15526      17.53982      16.39643
     3  Na(23)             0.11543     136.55352      48.72569      45.54935
     4  Na(23)             0.34103     403.45052     143.96118     134.57661
     5  Na(23)             0.04131      48.86729      17.43707      16.30037
     6  Na(23)             0.00730       8.63703       3.08191       2.88100
     7  Na(23)             0.10505     124.27817      44.34554      41.45474
 --------------------------------------------------------
       Center         ----  Spin Dipole Couplings  ----
                      3XX-RR        3YY-RR        3ZZ-RR
 --------------------------------------------------------
     1   Atom       -0.006640     -0.004711      0.011350
     2   Atom       -0.004645     -0.005031      0.009676
     3   Atom       -0.006635     -0.010925      0.017559
     4   Atom        0.006764     -0.000310     -0.006455
     5   Atom        0.001402     -0.003218      0.001816
     6   Atom       -0.016756     -0.018970      0.035726
     7   Atom        0.010880     -0.014877      0.003998
 --------------------------------------------------------
                        XY            XZ            YZ
 --------------------------------------------------------
     1   Atom        0.002890      0.003793      0.002698
     2   Atom        0.004850     -0.011880     -0.011718
     3   Atom       -0.004676      0.006096     -0.003037
     4   Atom        0.008811      0.007156      0.006283
     5   Atom       -0.000527      0.005603     -0.002869
     6   Atom       -0.003333      0.001417      0.005807
     7   Atom        0.006596     -0.021546     -0.003936
 --------------------------------------------------------


 ---------------------------------------------------------------------------------
              Anisotropic Spin Dipole Couplings in Principal Axis System
 ---------------------------------------------------------------------------------

       Atom             a.u.   MegaHertz   Gauss  10(-4) cm-1        Axes

              Baa    -0.0089    -1.250    -0.446    -0.417  0.8428 -0.5310 -0.0873
     1 Na(23) Bbb    -0.0039    -0.546    -0.195    -0.182  0.4932  0.8271 -0.2696
              Bcc     0.0127     1.796     0.641     0.599  0.2154  0.1842  0.9590
 
              Baa    -0.0125    -1.769    -0.631    -0.590  0.5437  0.5865  0.6004
     2 Na(23) Bbb    -0.0097    -1.368    -0.488    -0.456  0.7211 -0.6925  0.0234
              Bcc     0.0222     3.137     1.119     1.047 -0.4294 -0.4202  0.7994
 
              Baa    -0.0139    -1.969    -0.703    -0.657  0.5546  0.8317 -0.0271
     3 Na(23) Bbb    -0.0056    -0.792    -0.283    -0.264  0.7945 -0.5390 -0.2797
              Bcc     0.0196     2.761     0.985     0.921  0.2472 -0.1336  0.9597
 
              Baa    -0.0106    -1.498    -0.535    -0.500 -0.1626 -0.4087  0.8981
     4 Na(23) Bbb    -0.0060    -0.846    -0.302    -0.282 -0.6353  0.7398  0.2216
              Bcc     0.0166     2.345     0.837     0.782  0.7550  0.5345  0.3799
 
              Baa    -0.0055    -0.771    -0.275    -0.257 -0.4400  0.6666  0.6017
     5 Na(23) Bbb    -0.0023    -0.326    -0.116    -0.109  0.6145  0.7121 -0.3395
              Bcc     0.0078     1.097     0.391     0.366  0.6548 -0.2203  0.7230
 
              Baa    -0.0219    -3.094    -1.104    -1.032  0.5589  0.8236 -0.0967
     6 Na(23) Bbb    -0.0144    -2.040    -0.728    -0.680  0.8290 -0.5577  0.0411
              Bcc     0.0364     5.134     1.832     1.713  0.0201  0.1032  0.9945
 
              Baa    -0.0168    -2.373    -0.847    -0.792 -0.4104  0.8742 -0.2597
     7 Na(23) Bbb    -0.0137    -1.937    -0.691    -0.646  0.5137  0.4569  0.7262
              Bcc     0.0305     4.310     1.538     1.438  0.7535  0.1647 -0.6365
 

 ---------------------------------------------------------------------------------

 No NMR shielding tensors so no spin-rotation constants.
 Leave Link  601 at Tue Nov 28 20:02:13 2023, MaxMem=  1879048192 cpu:               2.3 elap:               0.2
 (Enter /home/sekinelabo/g16/l701.exe)
 ... and contract with generalized density number  0.
 Compute integral first derivatives.
 Leave Link  701 at Tue Nov 28 20:02:13 2023, MaxMem=  1879048192 cpu:               1.7 elap:               0.1
 (Enter /home/sekinelabo/g16/l702.exe)
 L702 exits ... SP integral derivatives will be done elsewhere.
 Leave Link  702 at Tue Nov 28 20:02:13 2023, MaxMem=  1879048192 cpu:               0.5 elap:               0.0
 (Enter /home/sekinelabo/g16/l703.exe)
 Integral derivatives from FoFJK, PRISM(SPDF).
 Compute integral first derivatives, UseDBF=F ICtDFT=           0.
 Calling FoFJK, ICntrl=      2127 FMM=F ISym2X=0 I1Cent= 0 IOpClX= 1 NMat=1 NMatS=1 NMatT=0.
 FoFJK:  IHMeth= 1 ICntrl=    2127 DoSepK=F KAlg= 0 I1Cent=           0 FoldK=F
 IRaf=         0 NMat=       1 IRICut=       1 DoRegI=T DoRafI=F ISym2E= 0 IDoP0=0 IntGTp=1.
 FoFCou: FMM=F IPFlag=           0 FMFlag=      100000 FMFlg1=         800
         NFxFlg=           0 DoJE=F BraDBF=F KetDBF=F FulRan=T
         wScrn=  0.000000 ICntrl=      2127 IOpCl=  1 I1Cent=           0 NGrid=           0
         NMat0=    1 NMatS0=      1 NMatT0=    0 NMatD0=    1 NMtDS0=    0 NMtDT0=    0
 Symmetry not used in FoFCou.
 Leave Link  703 at Tue Nov 28 20:02:15 2023, MaxMem=  1879048192 cpu:              33.3 elap:               2.2
 (Enter /home/sekinelabo/g16/l716.exe)
 Dipole        =-1.65710898D-01-1.16580268D-01 1.48115079D-02
 ***** Axes restored to original set *****
 -------------------------------------------------------------------
 Center     Atomic                   Forces (Hartrees/Bohr)
 Number     Number              X              Y              Z
 -------------------------------------------------------------------
      1       11          -0.004487631    0.001152585   -0.001271125
      2       11           0.002328220    0.000150424    0.003394686
      3       11          -0.000285198   -0.003400542    0.001279781
      4       11           0.000333942   -0.001531640   -0.000414147
      5       11           0.000892234    0.001025967    0.000472447
      6       11          -0.001510183    0.003097181   -0.003098541
      7       11           0.002728617   -0.000493975   -0.000363103
 -------------------------------------------------------------------
 Cartesian Forces:  Max     0.004487631 RMS     0.002039249
 Z-matrix is all fixed cartesians, so copy forces.
 Force constants in Cartesian coordinates: 
                1             2             3             4             5 
      1  0.707511D-01
      2 -0.303737D-02  0.567771D-01
      3  0.172229D-01  0.382247D-02  0.458187D-01
      4  0.874554D-03 -0.128405D-02 -0.337694D-02  0.506840D-01
      5 -0.101633D-02  0.856953D-02 -0.342623D-02  0.393071D-02  0.479937D-01
      6 -0.294634D-02 -0.355458D-02  0.117619D-02  0.107971D-01  0.989175D-02
      7 -0.150112D-01  0.545473D-02 -0.165599D-01 -0.300589D-01 -0.307743D-02
      8 -0.615624D-02 -0.182541D-01  0.205495D-02 -0.222523D-02 -0.314975D-01
      9  0.777126D-02  0.602068D-02 -0.234501D-01 -0.100393D-01 -0.138898D-01
     10 -0.696896D-02 -0.278315D-02 -0.999188D-04 -0.175783D-01 -0.711052D-02
     11 -0.314861D-03  0.641462D-02  0.188462D-02  0.539663D-02 -0.898726D-02
     12 -0.558731D-02  0.817506D-03  0.352592D-02  0.215399D-01 -0.504892D-02
     13  0.296235D-02  0.697268D-02 -0.327042D-02  0.619677D-02 -0.410479D-02
     14 -0.897170D-03 -0.337917D-02  0.134399D-02 -0.604072D-03  0.636376D-03
     15 -0.931540D-03  0.346200D-02  0.282978D-02  0.101815D-02 -0.152495D-02
     16 -0.236983D-01 -0.152327D-01 -0.812663D-02 -0.164823D-01  0.991450D-02
     17  0.957711D-02 -0.325490D-01  0.571689D-02 -0.566868D-02 -0.183867D-01
     18 -0.692699D-02 -0.130369D-01 -0.153419D-01 -0.166680D-01  0.170486D-01
     19 -0.289095D-01  0.990984D-02  0.142109D-01  0.636420D-02  0.146385D-02
     20  0.184486D-02 -0.175789D-01 -0.113967D-01  0.454690D-03  0.167178D-02
     21 -0.860199D-02  0.246880D-02 -0.145585D-01 -0.327090D-02 -0.305051D-02
                6             7             8             9            10 
      6  0.726878D-01
      7  0.988398D-02  0.136117D+00
      8  0.154276D-01  0.450826D-02  0.142405D+00
      9 -0.238338D-01 -0.937928D-02 -0.123380D-01  0.167494D+00
     10 -0.744680D-02 -0.204546D-01  0.580604D-02  0.716455D-03  0.858909D-01
     11 -0.904390D-02 -0.916392D-02 -0.155123D-01  0.489203D-02  0.212621D-02
     12 -0.248210D-01  0.146688D-01  0.339576D-02 -0.186663D-01 -0.113321D-01
     13 -0.177448D-03 -0.281919D-01  0.712038D-02  0.516221D-03  0.141131D-02
     14 -0.438700D-03 -0.833709D-03 -0.219230D-01  0.931209D-02 -0.474117D-04
     15  0.154918D-02 -0.266527D-02 -0.177491D-01 -0.307931D-01 -0.448624D-03
     16 -0.735934D-02 -0.222640D-01 -0.681108D-02  0.412586D-02 -0.227485D-01
     17 -0.708273D-02  0.733126D-02 -0.346819D-01 -0.694819D-03 -0.437918D-02
     18 -0.265828D-01 -0.278859D-02  0.143835D-01 -0.350085D-01  0.698230D-02
     19 -0.275113D-02 -0.201358D-01 -0.224213D-02  0.628877D-02 -0.195519D-01
     20 -0.519941D-02 -0.421918D-02 -0.205366D-01  0.669778D-02  0.638801D-02
     21 -0.175702D-03  0.684023D-02 -0.517475D-02 -0.357424D-01  0.116287D-01
               11            12            13            14            15 
     11  0.485919D-01
     12  0.699233D-02  0.591148D-01
     13 -0.681545D-02  0.123184D-02  0.244732D-01
     14 -0.174462D-02  0.143393D-02  0.289506D-02  0.413462D-01
     15  0.366847D-03  0.477736D-02 -0.115103D-02 -0.550863D-02  0.353108D-01
     16  0.169595D-01 -0.782137D-02  0.254479D-02 -0.199853D-03  0.190588D-03
     17 -0.155759D-01  0.108422D-02  0.259348D-03 -0.849182D-03  0.265201D-02
     18 -0.846814D-02 -0.710385D-02  0.267054D-03 -0.191858D-02  0.657114D-02
     19 -0.818809D-02 -0.126998D-01 -0.939657D-02 -0.312846D-03  0.398772D-02
     20 -0.131865D-01 -0.867483D-02 -0.632723D-02 -0.140866D-01  0.183018D-01
     21  0.337622D-02 -0.168270D-01  0.258378D-02 -0.422409D-02 -0.202452D-01
               16            17            18            19            20 
     16  0.771163D-01
     17 -0.838209D-02  0.109950D+00
     18  0.171117D-01  0.768252D-03  0.767937D-01
     19  0.553197D-02  0.126225D-02  0.202261D-02  0.660976D-01
     20  0.375173D-02 -0.790698D-02 -0.877683D-02 -0.189287D-02  0.716238D-01
     21  0.187924D-02 -0.244382D-02  0.672108D-03 -0.110591D-01  0.904815D-02
               21 
     21  0.868767D-01
 Leave Link  716 at Tue Nov 28 20:02:15 2023, MaxMem=  1879048192 cpu:               0.4 elap:               0.0
 (Enter /home/sekinelabo/g16/l103.exe)

 GradGradGradGradGradGradGradGradGradGradGradGradGradGradGradGradGradGrad
 Berny optimization.
 Search for a local minimum.
 Step number   1 out of a maximum of    2
 All quantities printed in internal units (Hartrees-Bohrs-Radians)
 Second derivative matrix not updated -- first step.
 ITU=  0
     Eigenvalues ---    0.03352   0.03839   0.04333   0.06520   0.06852
     Eigenvalues ---    0.08382   0.08931   0.09118   0.10591   0.12531
     Eigenvalues ---    0.13314   0.13732   0.16567   0.17380   0.20990
 Angle between quadratic step and forces=  20.42 degrees.
 Linear search not attempted -- first point.
 B after Tr=    -0.000000   -0.000000    0.000000
         Rot=    1.000000    0.000000   -0.000000    0.000000 Ang=   0.00 deg.
 Variable       Old X    -DE/DX   Delta X   Delta X   Delta X     New X
                                 (Linear)    (Quad)   (Total)
    X1       24.33911  -0.00449   0.00000  -0.06273  -0.06273  24.27638
    Y1       29.82309   0.00115   0.00000   0.01760   0.01760  29.84069
    Z1       26.01132  -0.00127   0.00000  -0.02683  -0.02683  25.98449
    X2       31.45865   0.00233   0.00000   0.02575   0.02575  31.48440
    Y2       32.73402   0.00015   0.00000  -0.00180  -0.00180  32.73223
    Z2       33.83725   0.00339   0.00000   0.04054   0.04054  33.87779
    X3       28.19509  -0.00029   0.00000  -0.00533  -0.00533  28.18976
    Y3       27.93166  -0.00340   0.00000  -0.02133  -0.02133  27.91033
    Z3       31.27213   0.00128   0.00000   0.00718   0.00718  31.27932
    X4       33.90773   0.00033   0.00000   0.01389   0.01389  33.92163
    Y4       30.71618  -0.00153   0.00000  -0.02295  -0.02295  30.69323
    Z4       28.29355  -0.00041   0.00000   0.00014   0.00014  28.29368
    X5       27.88064   0.00089   0.00000   0.02575   0.02575  27.90639
    Y5       21.72580   0.00103   0.00000   0.00737   0.00737  21.73317
    Z5       29.40678   0.00047   0.00000   0.01003   0.01003  29.41681
    X6       27.89085  -0.00151   0.00000  -0.01535  -0.01535  27.87549
    Y6       33.61823   0.00310   0.00000   0.03249   0.03249  33.65072
    Z6       28.93945  -0.00310   0.00000  -0.02481  -0.02481  28.91464
    X7       29.33308   0.00273   0.00000   0.01802   0.01802  29.35110
    Y7       26.45579  -0.00049   0.00000  -0.01139  -0.01139  26.44440
    Z7       25.24447  -0.00036   0.00000  -0.00625  -0.00625  25.23823
         Item               Value     Threshold  Converged?
 Maximum Force            0.004488     0.000450     NO 
 RMS     Force            0.002039     0.000300     NO 
 Maximum Displacement     0.062728     0.001800     NO 
 RMS     Displacement     0.023652     0.001200     NO 
 Predicted change in Energy=-4.746143D-04
 GradGradGradGradGradGradGradGradGradGradGradGradGradGradGradGradGradGrad

 Leave Link  103 at Tue Nov 28 20:02:15 2023, MaxMem=  1879048192 cpu:               0.2 elap:               0.0
 (Enter /home/sekinelabo/g16/l9999.exe)
 1\1\GINC-SEKINELABO-XA7R-R37\Force\UB3LYP\6-311+G(d)\Na7(2)\SEKINELABO
 \28-Nov-2023\0\\#P B3LYP/6-311+g(d) force\\DPGEN\\0,2\Na,12.8797,15.78
 17,13.7646\Na,16.6472,17.3221,17.9059\Na,14.9202,14.7808,16.5485\Na,17
 .9432,16.2543,14.9723\Na,14.7538,11.4968,15.5614\Na,14.7592,17.79,15.3
 141\Na,15.5224,13.9998,13.3588\\Version=ES64L-G16RevB.01\State=2-A\HF=
 -1136.1287682\S2=0.762187\S2-1=0.\S2A=0.75009\RMSD=6.997e-09\RMSF=2.03
 9e-03\Dipole=0.1463366,0.0834871,0.1135164\Quadrupole=-2.5712765,2.938
 8505,-0.367574,4.4789123,1.3880288,4.5348001\PG=C01 [X(Na7)]\\@


 EDUCATION WITHOUT COMMON SENSE IS A LOAD OF BOOKS ON THE BACK OF AN ASS.
 Job cpu time:       0 days  0 hours  3 minutes 56.9 seconds.
 Elapsed time:       0 days  0 hours  0 minutes 20.1 seconds.
 File lengths (MBytes):  RWF=     32 Int=      0 D2E=      0 Chk=      4 Scr=      1
 Normal termination of Gaussian 16 at Tue Nov 28 20:02:15 2023.
