ITEM: TIMESTEP
4480
ITEM: NUMBER OF ATOMS
7
ITEM: BOX BOUNDS xy xz yz ff ff ff
0.0000000000000000e+00 2.6955169124899999e+01 0.0000000000000000e+00
0.0000000000000000e+00 2.6955169124899999e+01 0.0000000000000000e+00
0.0000000000000000e+00 2.6955169124899999e+01 0.0000000000000000e+00
ITEM: ATOMS id type x y z fx fy fz
6 1 13.1391 10.0671 11.9973 -0.0886674 -0.00798634 0.011483
1 1 14.5995 12.4759 9.62828 0.0377515 0.0454039 -0.000572815
3 1 15.698 15.5243 10.4123 -0.0632495 -0.057635 0.0552941
4 1 10.6835 10.9152 14.2535 0.0996259 -0.0298517 -0.0784468
5 1 14.3861 16.3958 13.7548 -0.0144016 -0.0567473 0.0592605
2 1 13.2431 15.3147 18.3559 0.0325315 0.0521371 -0.0459884
7 1 12.5937 13.6501 15.941 -0.00359026 0.0546795 -0.00102971
