ITEM: TIMESTEP
4760
ITEM: NUMBER OF ATOMS
7
ITEM: BOX BOUNDS xy xz yz ff ff ff
0.0000000000000000e+00 2.6357875607600000e+01 0.0000000000000000e+00
0.0000000000000000e+00 2.6357875607600000e+01 0.0000000000000000e+00
0.0000000000000000e+00 2.6357875607600000e+01 0.0000000000000000e+00
ITEM: ATOMS id type x y z fx fy fz
4 1 16.3502 10.9236 13.9562 -0.129484 -0.0911985 0.0198247
5 1 11.8623 11.309 12.8226 0.00472139 0.0219591 -0.0563349
6 1 16.9749 13.8554 13.216 -0.0183642 0.122154 -0.0212355
3 1 9.95445 13.0916 10.6717 0.0364721 0.0226924 0.0469653
1 1 10.3123 14.8522 13.709 0.000114247 -0.0796834 -0.0313872
2 1 13.576 15.0347 12.8113 0.0476949 0.157543 -0.276255
7 1 13.2223 13.186 15.0656 0.0588459 -0.153466 0.318423
