 Set GAUSS_MDEF to "14GB".
 Entering Gaussian System, Link 0=g16
 Initial command:
 /home/sekinelabo/g16/l1.exe "/home/sekinelabo/g16temp/Gau-344477.inp" -scrdir="/home/sekinelabo/g16temp/"
 Entering Link 1 = /home/sekinelabo/g16/l1.exe PID=    344479.
  
 Copyright (c) 1988-2017, Gaussian, Inc.  All Rights Reserved.
  
 This is part of the Gaussian(R) 16 program.  It is based on
 the Gaussian(R) 09 system (copyright 2009, Gaussian, Inc.),
 the Gaussian(R) 03 system (copyright 2003, Gaussian, Inc.),
 the Gaussian(R) 98 system (copyright 1998, Gaussian, Inc.),
 the Gaussian(R) 94 system (copyright 1995, Gaussian, Inc.),
 the Gaussian 92(TM) system (copyright 1992, Gaussian, Inc.),
 the Gaussian 90(TM) system (copyright 1990, Gaussian, Inc.),
 the Gaussian 88(TM) system (copyright 1988, Gaussian, Inc.),
 the Gaussian 86(TM) system (copyright 1986, Carnegie Mellon
 University), and the Gaussian 82(TM) system (copyright 1983,
 Carnegie Mellon University). Gaussian is a federally registered
 trademark of Gaussian, Inc.
  
 This software contains proprietary and confidential information,
 including trade secrets, belonging to Gaussian, Inc.
  
 This software is provided under written license and may be
 used, copied, transmitted, or stored only in accord with that
 written license.
  
 The following legend is applicable only to US Government
 contracts under FAR:
  
                    RESTRICTED RIGHTS LEGEND
  
 Use, reproduction and disclosure by the US Government is
 subject to restrictions as set forth in subparagraphs (a)
 and (c) of the Commercial Computer Software - Restricted
 Rights clause in FAR 52.227-19.
  
 Gaussian, Inc.
 340 Quinnipiac St., Bldg. 40, Wallingford CT 06492
  
  
 ---------------------------------------------------------------
 Warning -- This program may not be used in any manner that
 competes with the business of Gaussian, Inc. or will provide
 assistance to any competitor of Gaussian, Inc.  The licensee
 of this program is prohibited from giving any competitor of
 Gaussian, Inc. access to this program.  By using this program,
 the user acknowledges that Gaussian, Inc. is engaged in the
 business of creating and licensing software in the field of
 computational chemistry and represents and warrants to the
 licensee that it is not a competitor of Gaussian, Inc. and that
 it will not use this program in any manner prohibited above.
 ---------------------------------------------------------------
  

 Cite this work as:
 Gaussian 16, Revision B.01,
 M. J. Frisch, G. W. Trucks, H. B. Schlegel, G. E. Scuseria, 
 M. A. Robb, J. R. Cheeseman, G. Scalmani, V. Barone, 
 G. A. Petersson, H. Nakatsuji, X. Li, M. Caricato, A. V. Marenich, 
 J. Bloino, B. G. Janesko, R. Gomperts, B. Mennucci, H. P. Hratchian, 
 J. V. Ortiz, A. F. Izmaylov, J. L. Sonnenberg, D. Williams-Young, 
 F. Ding, F. Lipparini, F. Egidi, J. Goings, B. Peng, A. Petrone, 
 T. Henderson, D. Ranasinghe, V. G. Zakrzewski, J. Gao, N. Rega, 
 G. Zheng, W. Liang, M. Hada, M. Ehara, K. Toyota, R. Fukuda, 
 J. Hasegawa, M. Ishida, T. Nakajima, Y. Honda, O. Kitao, H. Nakai, 
 T. Vreven, K. Throssell, J. A. Montgomery, Jr., J. E. Peralta, 
 F. Ogliaro, M. J. Bearpark, J. J. Heyd, E. N. Brothers, K. N. Kudin, 
 V. N. Staroverov, T. A. Keith, R. Kobayashi, J. Normand, 
 K. Raghavachari, A. P. Rendell, J. C. Burant, S. S. Iyengar, 
 J. Tomasi, M. Cossi, J. M. Millam, M. Klene, C. Adamo, R. Cammi, 
 J. W. Ochterski, R. L. Martin, K. Morokuma, O. Farkas, 
 J. B. Foresman, and D. J. Fox, Gaussian, Inc., Wallingford CT, 2016.
 
 ******************************************
 Gaussian 16:  ES64L-G16RevB.01 20-Dec-2017
                29-Nov-2023 
 ******************************************
 %nproc=15
 Will use up to   15 processors via shared memory.
 -------------------------
 #P B3LYP/6-311+g(d) force
 -------------------------
 1/10=7,30=1,38=1/1,3;
 2/12=2,17=6,18=5,40=1/2;
 3/5=4,6=6,7=11,11=2,25=1,30=1,71=1,74=-5/1,2,3;
 4//1;
 5/5=2,38=5/2;
 6/7=2,8=2,9=2,10=2,28=1/1;
 7/29=1/1,2,3,16;
 1/10=7,30=1/3;
 99//99;
 Leave Link    1 at Wed Nov 29 03:12:28 2023, MaxMem=           0 cpu:               0.3 elap:               0.0
 (Enter /home/sekinelabo/g16/l101.exe)
 -----
 DPGEN
 -----
 Symbolic Z-matrix:
 Charge =  0 Multiplicity = 2
 Na                    13.8696   18.3353   15.0065 
 Na                    17.5882   17.3182   15.5481 
 Na                    18.1494   13.8491   15.1342 
 Na                    15.2213   15.5978   13.9317 
 Na                    15.0557   12.533    15.037 
 Na                    15.1369   14.8485   17.0916 
 Na                    12.4043   14.9436   15.6763 
 
 ITRead=  0  0  0  0  0  0  0
 MicOpt= -1 -1 -1 -1 -1 -1 -1
 NAtoms=      7 NQM=        7 NQMF=       0 NMMI=      0 NMMIF=      0
                NMic=       0 NMicF=      0.
                    Isotopes and Nuclear Properties:
 (Nuclear quadrupole moments (NQMom) in fm**2, nuclear magnetic moments (NMagM)
  in nuclear magnetons)

  Atom         1           2           3           4           5           6           7
 IAtWgt=          23          23          23          23          23          23          23
 AtmWgt=  22.9897697  22.9897697  22.9897697  22.9897697  22.9897697  22.9897697  22.9897697
 NucSpn=           3           3           3           3           3           3           3
 AtZEff=  -0.0000000  -0.0000000  -0.0000000  -0.0000000  -0.0000000  -0.0000000  -0.0000000
 NQMom=   10.4000000  10.4000000  10.4000000  10.4000000  10.4000000  10.4000000  10.4000000
 NMagM=    2.2175200   2.2175200   2.2175200   2.2175200   2.2175200   2.2175200   2.2175200
 AtZNuc=  11.0000000  11.0000000  11.0000000  11.0000000  11.0000000  11.0000000  11.0000000
 Leave Link  101 at Wed Nov 29 03:12:28 2023, MaxMem=  1879048192 cpu:               2.4 elap:               0.2
 (Enter /home/sekinelabo/g16/l103.exe)

 GradGradGradGradGradGradGradGradGradGradGradGradGradGradGradGradGradGrad
 Berny optimization.
 Initialization pass.
 Trust Radius=3.00D-01 FncErr=1.00D-07 GrdErr=1.00D-07 EigMax=2.50D+02 EigMin=1.00D-04
 Number of steps in this run=      2 maximum allowed number of steps=      2.
 GradGradGradGradGradGradGradGradGradGradGradGradGradGradGradGradGradGrad

 Leave Link  103 at Wed Nov 29 03:12:28 2023, MaxMem=  1879048192 cpu:               0.2 elap:               0.0
 (Enter /home/sekinelabo/g16/l202.exe)
                          Input orientation:                          
 ---------------------------------------------------------------------
 Center     Atomic      Atomic             Coordinates (Angstroms)
 Number     Number       Type             X           Y           Z
 ---------------------------------------------------------------------
      1         11           0       13.869600   18.335300   15.006500
      2         11           0       17.588200   17.318200   15.548100
      3         11           0       18.149400   13.849100   15.134200
      4         11           0       15.221300   15.597800   13.931700
      5         11           0       15.055700   12.533000   15.037000
      6         11           0       15.136900   14.848500   17.091600
      7         11           0       12.404300   14.943600   15.676300
 ---------------------------------------------------------------------
                    Distance matrix (angstroms):
                    1          2          3          4          5
     1  Na   0.000000
     2  Na   3.893046   0.000000
     3  Na   6.201531   3.538490   0.000000
     4  Na   3.236695   3.342864   3.616314   0.000000
     5  Na   5.922369   5.438099   3.363413   3.262225   0.000000
     6  Na   4.255757   3.806663   3.728991   3.248622   3.096694
     7  Na   3.754912   5.703331   5.873498   3.377439   3.640003
                    6          7
     6  Na   0.000000
     7  Na   3.078834   0.000000
 Stoichiometry    Na7(2)
 Framework group  C1[X(Na7)]
 Deg. of freedom    15
 Full point group                 C1      NOp   1
 Largest Abelian subgroup         C1      NOp   1
 Largest concise Abelian subgroup C1      NOp   1
                         Standard orientation:                         
 ---------------------------------------------------------------------
 Center     Atomic      Atomic             Coordinates (Angstroms)
 Number     Number       Type             X           Y           Z
 ---------------------------------------------------------------------
      1         11           0       -3.102304    1.240348   -0.258751
      2         11           0        0.335004    2.947017    0.395471
      3         11           0        3.081878    0.787093   -0.161598
      4         11           0       -0.261828    0.194426   -1.405022
      5         11           0        1.675394   -2.253673   -0.458401
      6         11           0        0.179773   -0.622856    1.707948
      7         11           0       -1.907916   -2.292355    0.180353
 ---------------------------------------------------------------------
 Rotational constants (GHZ):           0.8146034           0.7053506           0.4639183
 Leave Link  202 at Wed Nov 29 03:12:28 2023, MaxMem=  1879048192 cpu:               0.0 elap:               0.0
 (Enter /home/sekinelabo/g16/l301.exe)
 Standard basis: 6-311+G(d) (5D, 7F)
 Ernie: Thresh=  0.10000D-02 Tol=  0.10000D-05 Strict=F.
 There are   217 symmetry adapted cartesian basis functions of A   symmetry.
 There are   210 symmetry adapted basis functions of A   symmetry.
   210 basis functions,   350 primitive gaussians,   217 cartesian basis functions
    39 alpha electrons       38 beta electrons
       nuclear repulsion energy       348.7131885766 Hartrees.
 IExCor=  402 DFT=T Ex+Corr=B3LYP ExCW=0 ScaHFX=  0.200000
 ScaDFX=  0.800000  0.720000  1.000000  0.810000 ScalE2=  1.000000  1.000000
 IRadAn=      5 IRanWt=     -1 IRanGd=            0 ICorTp=0 IEmpDi=  4
 NAtoms=    7 NActive=    7 NUniq=    7 SFac= 1.00D+00 NAtFMM=   60 NAOKFM=F Big=F
 Integral buffers will be    131072 words long.
 Raffenetti 2 integral format.
 Two-electron integral symmetry is turned on.
 Leave Link  301 at Wed Nov 29 03:12:28 2023, MaxMem=  1879048192 cpu:               0.5 elap:               0.0
 (Enter /home/sekinelabo/g16/l302.exe)
 NPDir=0 NMtPBC=     1 NCelOv=     1 NCel=       1 NClECP=     1 NCelD=      1
         NCelK=      1 NCelE2=     1 NClLst=     1 CellRange=     0.0.
 One-electron integrals computed using PRISM.
 One-electron integral symmetry used in STVInt
 NBasis=   210 RedAO= T EigKep=  3.95D-06  NBF=   210
 NBsUse=   210 1.00D-06 EigRej= -1.00D+00 NBFU=   210
 Precomputing XC quadrature grid using
 IXCGrd= 4 IRadAn=           5 IRanWt=          -1 IRanGd=           0 AccXCQ= 0.00D+00.
 Generated NRdTot=       0 NPtTot=           0 NUsed=           0 NTot=          32
 NSgBfM=   211   211   211   211   211 MxSgAt=     7 MxSgA2=     7.
 Leave Link  302 at Wed Nov 29 03:12:28 2023, MaxMem=  1879048192 cpu:               1.9 elap:               0.1
 (Enter /home/sekinelabo/g16/l303.exe)
 DipDrv:  MaxL=1.
 Leave Link  303 at Wed Nov 29 03:12:28 2023, MaxMem=  1879048192 cpu:               0.5 elap:               0.0
 (Enter /home/sekinelabo/g16/l401.exe)
 ExpMin= 7.60D-03 ExpMax= 3.62D+04 ExpMxC= 1.21D+03 IAcc=3 IRadAn=         5 AccDes= 0.00D+00
 Harris functional with IExCor=  402 and IRadAn=       5 diagonalized for initial guess.
 HarFok:  IExCor=  402 AccDes= 0.00D+00 IRadAn=         5 IDoV= 1 UseB2=F ITyADJ=14
 ICtDFT=  3500011 ScaDFX=  1.000000  1.000000  1.000000  1.000000
 FoFCou: FMM=F IPFlag=           0 FMFlag=      100000 FMFlg1=           0
         NFxFlg=           0 DoJE=T BraDBF=F KetDBF=T FulRan=T
         wScrn=  0.000000 ICntrl=       500 IOpCl=  0 I1Cent=   200000004 NGrid=           0
         NMat0=    1 NMatS0=      1 NMatT0=    0 NMatD0=    1 NMtDS0=    0 NMtDT0=    0
 Petite list used in FoFCou.
 Harris En= -1135.90550137565    
 JPrj=0 DoOrth=F DoCkMO=F.
 Initial guess <Sx>= 0.0000 <Sy>= 0.0000 <Sz>= 0.5000 <S**2>= 0.7500 S= 0.5000
 Leave Link  401 at Wed Nov 29 03:12:28 2023, MaxMem=  1879048192 cpu:               4.3 elap:               0.3
 (Enter /home/sekinelabo/g16/l502.exe)
 Keep R1 and R2 ints in memory in canonical form, NReq=506573335.
 FoFCou: FMM=F IPFlag=           0 FMFlag=           0 FMFlg1=           0
         NFxFlg=           0 DoJE=F BraDBF=F KetDBF=F FulRan=T
         wScrn=  0.000000 ICntrl=       600 IOpCl=  0 I1Cent=           0 NGrid=           0
         NMat0=    1 NMatS0=  22155 NMatT0=    0 NMatD0=    1 NMtDS0=    0 NMtDT0=    0
 Symmetry not used in FoFCou.
 Two-electron integral symmetry not used.
 UHF open shell SCF:
 Using DIIS extrapolation, IDIIS=  1040.
 NGot=  1879048192 LenX=  1388082565 LenY=  1388035035
 Requested convergence on RMS density matrix=1.00D-08 within 128 cycles.
 Requested convergence on MAX density matrix=1.00D-06.
 Requested convergence on             energy=1.00D-06.
 No special actions if energy rises.

 Cycle   1  Pass 1  IDiag  1:
 E= -1136.09158388070    
 DIIS: error= 1.32D-02 at cycle   1 NSaved=   1.
 NSaved= 1 IEnMin= 1 EnMin= -1136.09158388070     IErMin= 1 ErrMin= 1.32D-02
 ErrMax= 1.32D-02  0.00D+00 EMaxC= 1.00D-01 BMatC= 1.98D-01 BMatP= 1.98D-01
 IDIUse=3 WtCom= 8.68D-01 WtEn= 1.32D-01
 Coeff-Com:  0.100D+01
 Coeff-En:   0.100D+01
 Coeff:      0.100D+01
 Gap=     0.031 Goal=   None    Shift=    0.000
 Gap=     0.062 Goal=   None    Shift=    0.000
 GapD=    0.031 DampG=0.250 DampE=0.500 DampFc=0.2500 IDamp=-1.
 Damping current iteration by 2.50D-01
 RMSDP=3.75D-02 MaxDP=2.95D+00              OVMax= 2.72D-01

 Cycle   2  Pass 1  IDiag  1:
 E= -1136.10662062591     Delta-E=       -0.015036745209 Rises=F Damp=T
 DIIS: error= 9.28D-03 at cycle   2 NSaved=   2.
 NSaved= 2 IEnMin= 2 EnMin= -1136.10662062591     IErMin= 2 ErrMin= 9.28D-03
 ErrMax= 9.28D-03  0.00D+00 EMaxC= 1.00D-01 BMatC= 7.44D-02 BMatP= 1.98D-01
 IDIUse=3 WtCom= 9.07D-01 WtEn= 9.28D-02
 Coeff-Com: -0.124D+01 0.224D+01
 Coeff-En:   0.000D+00 0.100D+01
 Coeff:     -0.112D+01 0.212D+01
 Gap=     0.047 Goal=   None    Shift=    0.000
 Gap=     0.066 Goal=   None    Shift=    0.000
 RMSDP=2.19D-02 MaxDP=1.87D+00 DE=-1.50D-02 OVMax= 1.80D-01

 Cycle   3  Pass 1  IDiag  1:
 E= -1136.13041546571     Delta-E=       -0.023794839803 Rises=F Damp=F
 DIIS: error= 3.63D-03 at cycle   3 NSaved=   3.
 NSaved= 3 IEnMin= 3 EnMin= -1136.13041546571     IErMin= 3 ErrMin= 3.63D-03
 ErrMax= 3.63D-03  0.00D+00 EMaxC= 1.00D-01 BMatC= 4.47D-03 BMatP= 7.44D-02
 IDIUse=3 WtCom= 9.64D-01 WtEn= 3.63D-02
 Coeff-Com: -0.282D+00 0.508D+00 0.773D+00
 Coeff-En:   0.000D+00 0.000D+00 0.100D+01
 Coeff:     -0.271D+00 0.490D+00 0.782D+00
 Gap=     0.042 Goal=   None    Shift=    0.000
 Gap=     0.062 Goal=   None    Shift=    0.000
 RMSDP=1.15D-02 MaxDP=1.83D+00 DE=-2.38D-02 OVMax= 1.02D-01

 Cycle   4  Pass 1  IDiag  1:
 E= -1136.12955103222     Delta-E=        0.000864433484 Rises=F Damp=F
 DIIS: error= 3.96D-03 at cycle   4 NSaved=   4.
 NSaved= 4 IEnMin= 3 EnMin= -1136.13041546571     IErMin= 3 ErrMin= 3.63D-03
 ErrMax= 3.96D-03  0.00D+00 EMaxC= 1.00D-01 BMatC= 4.48D-03 BMatP= 4.47D-03
 IDIUse=3 WtCom= 9.60D-01 WtEn= 3.96D-02
 Coeff-Com: -0.355D-02 0.949D-02 0.498D+00 0.496D+00
 Coeff-En:   0.000D+00 0.000D+00 0.543D+00 0.457D+00
 Coeff:     -0.341D-02 0.911D-02 0.500D+00 0.494D+00
 Gap=     0.045 Goal=   None    Shift=    0.000
 Gap=     0.061 Goal=   None    Shift=    0.000
 RMSDP=3.42D-03 MaxDP=2.85D-01 DE= 8.64D-04 OVMax= 7.18D-02

 Cycle   5  Pass 1  IDiag  1:
 E= -1136.13366748475     Delta-E=       -0.004116452522 Rises=F Damp=F
 DIIS: error= 1.12D-03 at cycle   5 NSaved=   5.
 NSaved= 5 IEnMin= 5 EnMin= -1136.13366748475     IErMin= 5 ErrMin= 1.12D-03
 ErrMax= 1.12D-03  0.00D+00 EMaxC= 1.00D-01 BMatC= 3.27D-04 BMatP= 4.47D-03
 IDIUse=3 WtCom= 9.89D-01 WtEn= 1.12D-02
 Coeff-Com:  0.243D-02-0.411D-02 0.294D+00 0.321D+00 0.387D+00
 Coeff-En:   0.000D+00 0.000D+00 0.000D+00 0.285D-01 0.971D+00
 Coeff:      0.240D-02-0.406D-02 0.291D+00 0.318D+00 0.393D+00
 Gap=     0.045 Goal=   None    Shift=    0.000
 Gap=     0.060 Goal=   None    Shift=    0.000
 RMSDP=7.72D-04 MaxDP=6.34D-02 DE=-4.12D-03 OVMax= 1.91D-02

 Cycle   6  Pass 1  IDiag  1:
 E= -1136.13405282791     Delta-E=       -0.000385343167 Rises=F Damp=F
 DIIS: error= 8.32D-05 at cycle   6 NSaved=   6.
 NSaved= 6 IEnMin= 6 EnMin= -1136.13405282791     IErMin= 6 ErrMin= 8.32D-05
 ErrMax= 8.32D-05  0.00D+00 EMaxC= 1.00D-01 BMatC= 3.01D-06 BMatP= 3.27D-04
 IDIUse=1 WtCom= 1.00D+00 WtEn= 0.00D+00
 Coeff-Com: -0.332D-02 0.409D-02-0.153D-01-0.135D-01 0.547D-01 0.973D+00
 Coeff:     -0.332D-02 0.409D-02-0.153D-01-0.135D-01 0.547D-01 0.973D+00
 Gap=     0.045 Goal=   None    Shift=    0.000
 Gap=     0.060 Goal=   None    Shift=    0.000
 RMSDP=6.89D-04 MaxDP=1.21D-01 DE=-3.85D-04 OVMax= 2.96D-03

 Cycle   7  Pass 1  IDiag  1:
 E= -1136.13405556557     Delta-E=       -0.000002737658 Rises=F Damp=F
 DIIS: error= 8.20D-05 at cycle   7 NSaved=   7.
 NSaved= 7 IEnMin= 7 EnMin= -1136.13405556557     IErMin= 7 ErrMin= 8.20D-05
 ErrMax= 8.20D-05  0.00D+00 EMaxC= 1.00D-01 BMatC= 2.01D-06 BMatP= 3.01D-06
 IDIUse=1 WtCom= 1.00D+00 WtEn= 0.00D+00
 Coeff-Com: -0.214D-02 0.268D-02-0.303D-01-0.309D-01 0.898D-02 0.612D+00
 Coeff-Com:  0.440D+00
 Coeff:     -0.214D-02 0.268D-02-0.303D-01-0.309D-01 0.898D-02 0.612D+00
 Coeff:      0.440D+00
 Gap=     0.045 Goal=   None    Shift=    0.000
 Gap=     0.060 Goal=   None    Shift=    0.000
 RMSDP=1.59D-04 MaxDP=2.09D-02 DE=-2.74D-06 OVMax= 1.79D-03

 Cycle   8  Pass 1  IDiag  1:
 E= -1136.13405797405     Delta-E=       -0.000002408473 Rises=F Damp=F
 DIIS: error= 3.10D-05 at cycle   8 NSaved=   8.
 NSaved= 8 IEnMin= 8 EnMin= -1136.13405797405     IErMin= 8 ErrMin= 3.10D-05
 ErrMax= 3.10D-05  0.00D+00 EMaxC= 1.00D-01 BMatC= 2.06D-07 BMatP= 2.01D-06
 IDIUse=1 WtCom= 1.00D+00 WtEn= 0.00D+00
 Coeff-Com:  0.232D-04-0.649D-04-0.117D-01-0.121D-01-0.844D-02 0.570D-01
 Coeff-Com:  0.216D+00 0.759D+00
 Coeff:      0.232D-04-0.649D-04-0.117D-01-0.121D-01-0.844D-02 0.570D-01
 Coeff:      0.216D+00 0.759D+00
 Gap=     0.045 Goal=   None    Shift=    0.000
 Gap=     0.060 Goal=   None    Shift=    0.000
 RMSDP=9.74D-05 MaxDP=1.29D-02 DE=-2.41D-06 OVMax= 9.51D-04

 Cycle   9  Pass 1  IDiag  1:
 E= -1136.13405832499     Delta-E=       -0.000000350942 Rises=F Damp=F
 DIIS: error= 1.63D-05 at cycle   9 NSaved=   9.
 NSaved= 9 IEnMin= 9 EnMin= -1136.13405832499     IErMin= 9 ErrMin= 1.63D-05
 ErrMax= 1.63D-05  0.00D+00 EMaxC= 1.00D-01 BMatC= 8.77D-08 BMatP= 2.06D-07
 IDIUse=1 WtCom= 1.00D+00 WtEn= 0.00D+00
 Coeff-Com:  0.698D-03-0.907D-03 0.156D-03 0.155D-03-0.950D-02-0.132D+00
 Coeff-Com:  0.160D-01 0.494D+00 0.632D+00
 Coeff:      0.698D-03-0.907D-03 0.156D-03 0.155D-03-0.950D-02-0.132D+00
 Coeff:      0.160D-01 0.494D+00 0.632D+00
 Gap=     0.045 Goal=   None    Shift=    0.000
 Gap=     0.060 Goal=   None    Shift=    0.000
 RMSDP=4.48D-05 MaxDP=6.96D-03 DE=-3.51D-07 OVMax= 5.87D-04

 Cycle  10  Pass 1  IDiag  1:
 E= -1136.13405848444     Delta-E=       -0.000000159452 Rises=F Damp=F
 DIIS: error= 4.79D-06 at cycle  10 NSaved=  10.
 NSaved=10 IEnMin=10 EnMin= -1136.13405848444     IErMin=10 ErrMin= 4.79D-06
 ErrMax= 4.79D-06  0.00D+00 EMaxC= 1.00D-01 BMatC= 8.42D-09 BMatP= 8.77D-08
 IDIUse=1 WtCom= 1.00D+00 WtEn= 0.00D+00
 Coeff-Com:  0.251D-03-0.317D-03 0.204D-02 0.201D-02-0.268D-02-0.506D-01
 Coeff-Com: -0.342D-01 0.953D-02 0.207D+00 0.866D+00
 Coeff:      0.251D-03-0.317D-03 0.204D-02 0.201D-02-0.268D-02-0.506D-01
 Coeff:     -0.342D-01 0.953D-02 0.207D+00 0.866D+00
 Gap=     0.045 Goal=   None    Shift=    0.000
 Gap=     0.060 Goal=   None    Shift=    0.000
 RMSDP=2.38D-05 MaxDP=3.14D-03 DE=-1.59D-07 OVMax= 3.72D-04

 Cycle  11  Pass 1  IDiag  1:
 E= -1136.13405851681     Delta-E=       -0.000000032368 Rises=F Damp=F
 DIIS: error= 2.76D-06 at cycle  11 NSaved=  11.
 NSaved=11 IEnMin=11 EnMin= -1136.13405851681     IErMin=11 ErrMin= 2.76D-06
 ErrMax= 2.76D-06  0.00D+00 EMaxC= 1.00D-01 BMatC= 1.56D-09 BMatP= 8.42D-09
 IDIUse=1 WtCom= 1.00D+00 WtEn= 0.00D+00
 Coeff-Com: -0.336D-04 0.476D-04 0.777D-03 0.595D-03 0.114D-02 0.406D-02
 Coeff-Com: -0.104D-01-0.697D-01-0.649D-01 0.105D+00 0.103D+01
 Coeff:     -0.336D-04 0.476D-04 0.777D-03 0.595D-03 0.114D-02 0.406D-02
 Coeff:     -0.104D-01-0.697D-01-0.649D-01 0.105D+00 0.103D+01
 Gap=     0.045 Goal=   None    Shift=    0.000
 Gap=     0.060 Goal=   None    Shift=    0.000
 RMSDP=2.21D-05 MaxDP=2.92D-03 DE=-3.24D-08 OVMax= 2.62D-04

 Cycle  12  Pass 1  IDiag  1:
 E= -1136.13405852580     Delta-E=       -0.000000008994 Rises=F Damp=F
 DIIS: error= 1.27D-06 at cycle  12 NSaved=  12.
 NSaved=12 IEnMin=12 EnMin= -1136.13405852580     IErMin=12 ErrMin= 1.27D-06
 ErrMax= 1.27D-06  0.00D+00 EMaxC= 1.00D-01 BMatC= 4.64D-10 BMatP= 1.56D-09
 IDIUse=1 WtCom= 1.00D+00 WtEn= 0.00D+00
 Coeff-Com: -0.828D-04 0.107D-03-0.779D-04-0.192D-03 0.138D-02 0.161D-01
 Coeff-Com:  0.160D-02-0.455D-01-0.821D-01-0.141D+00 0.422D+00 0.828D+00
 Coeff:     -0.828D-04 0.107D-03-0.779D-04-0.192D-03 0.138D-02 0.161D-01
 Coeff:      0.160D-02-0.455D-01-0.821D-01-0.141D+00 0.422D+00 0.828D+00
 Gap=     0.045 Goal=   None    Shift=    0.000
 Gap=     0.060 Goal=   None    Shift=    0.000
 RMSDP=1.16D-05 MaxDP=1.68D-03 DE=-8.99D-09 OVMax= 1.44D-04

 Cycle  13  Pass 1  IDiag  1:
 E= -1136.13405852765     Delta-E=       -0.000000001851 Rises=F Damp=F
 DIIS: error= 4.30D-07 at cycle  13 NSaved=  13.
 NSaved=13 IEnMin=13 EnMin= -1136.13405852765     IErMin=13 ErrMin= 4.30D-07
 ErrMax= 4.30D-07  0.00D+00 EMaxC= 1.00D-01 BMatC= 2.73D-11 BMatP= 4.64D-10
 IDIUse=1 WtCom= 1.00D+00 WtEn= 0.00D+00
 Coeff-Com:  0.577D-05-0.864D-05-0.533D-04-0.295D-04-0.273D-04-0.467D-03
 Coeff-Com:  0.128D-02 0.679D-02 0.499D-02-0.160D-01-0.116D+00-0.449D-01
 Coeff-Com:  0.116D+01
 Coeff:      0.577D-05-0.864D-05-0.533D-04-0.295D-04-0.273D-04-0.467D-03
 Coeff:      0.128D-02 0.679D-02 0.499D-02-0.160D-01-0.116D+00-0.449D-01
 Coeff:      0.116D+01
 Gap=     0.045 Goal=   None    Shift=    0.000
 Gap=     0.060 Goal=   None    Shift=    0.000
 RMSDP=3.97D-06 MaxDP=5.14D-04 DE=-1.85D-09 OVMax= 5.85D-05

 Cycle  14  Pass 1  IDiag  1:
 E= -1136.13405852788     Delta-E=       -0.000000000232 Rises=F Damp=F
 DIIS: error= 1.11D-07 at cycle  14 NSaved=  14.
 NSaved=14 IEnMin=14 EnMin= -1136.13405852788     IErMin=14 ErrMin= 1.11D-07
 ErrMax= 1.11D-07  0.00D+00 EMaxC= 1.00D-01 BMatC= 3.38D-12 BMatP= 2.73D-11
 IDIUse=1 WtCom= 1.00D+00 WtEn= 0.00D+00
 Coeff-Com:  0.581D-05-0.766D-05-0.259D-04-0.724D-05-0.132D-03-0.112D-02
 Coeff-Com: -0.800D-05 0.438D-02 0.778D-02 0.100D-01-0.453D-01-0.690D-01
 Coeff-Com:  0.114D-01 0.108D+01
 Coeff:      0.581D-05-0.766D-05-0.259D-04-0.724D-05-0.132D-03-0.112D-02
 Coeff:     -0.800D-05 0.438D-02 0.778D-02 0.100D-01-0.453D-01-0.690D-01
 Coeff:      0.114D-01 0.108D+01
 Gap=     0.045 Goal=   None    Shift=    0.000
 Gap=     0.060 Goal=   None    Shift=    0.000
 RMSDP=9.17D-07 MaxDP=1.38D-04 DE=-2.32D-10 OVMax= 1.55D-05

 Cycle  15  Pass 1  IDiag  1:
 E= -1136.13405852790     Delta-E=       -0.000000000017 Rises=F Damp=F
 DIIS: error= 4.58D-08 at cycle  15 NSaved=  15.
 NSaved=15 IEnMin=15 EnMin= -1136.13405852790     IErMin=15 ErrMin= 4.58D-08
 ErrMax= 4.58D-08  0.00D+00 EMaxC= 1.00D-01 BMatC= 5.91D-13 BMatP= 3.38D-12
 IDIUse=1 WtCom= 1.00D+00 WtEn= 0.00D+00
 Coeff-Com: -0.825D-06 0.126D-05 0.155D-04 0.485D-05 0.291D-04 0.180D-03
 Coeff-Com: -0.222D-03-0.147D-02-0.207D-02-0.274D-02 0.295D-01 0.217D-01
 Coeff-Com: -0.158D+00-0.253D+00 0.137D+01
 Coeff:     -0.825D-06 0.126D-05 0.155D-04 0.485D-05 0.291D-04 0.180D-03
 Coeff:     -0.222D-03-0.147D-02-0.207D-02-0.274D-02 0.295D-01 0.217D-01
 Coeff:     -0.158D+00-0.253D+00 0.137D+01
 Gap=     0.045 Goal=   None    Shift=    0.000
 Gap=     0.060 Goal=   None    Shift=    0.000
 RMSDP=3.64D-07 MaxDP=5.31D-05 DE=-1.71D-11 OVMax= 5.68D-06

 Cycle  16  Pass 1  IDiag  1:
 E= -1136.13405852791     Delta-E=       -0.000000000006 Rises=F Damp=F
 DIIS: error= 2.19D-08 at cycle  16 NSaved=  16.
 NSaved=16 IEnMin=16 EnMin= -1136.13405852791     IErMin=16 ErrMin= 2.19D-08
 ErrMax= 2.19D-08  0.00D+00 EMaxC= 1.00D-01 BMatC= 8.61D-14 BMatP= 5.91D-13
 IDIUse=1 WtCom= 1.00D+00 WtEn= 0.00D+00
 Coeff-Com: -0.587D-06 0.761D-06 0.443D-05 0.212D-05 0.177D-04 0.907D-04
 Coeff-Com:  0.379D-04-0.299D-03-0.802D-03-0.118D-02 0.308D-02 0.592D-02
 Coeff-Com:  0.213D-01-0.133D+00-0.113D+00 0.122D+01
 Coeff:     -0.587D-06 0.761D-06 0.443D-05 0.212D-05 0.177D-04 0.907D-04
 Coeff:      0.379D-04-0.299D-03-0.802D-03-0.118D-02 0.308D-02 0.592D-02
 Coeff:      0.213D-01-0.133D+00-0.113D+00 0.122D+01
 Gap=     0.045 Goal=   None    Shift=    0.000
 Gap=     0.060 Goal=   None    Shift=    0.000
 RMSDP=1.30D-07 MaxDP=1.87D-05 DE=-5.91D-12 OVMax= 1.89D-06

 Cycle  17  Pass 1  IDiag  1:
 E= -1136.13405852790     Delta-E=        0.000000000005 Rises=F Damp=F
 DIIS: error= 1.17D-08 at cycle  17 NSaved=  17.
 NSaved=17 IEnMin=16 EnMin= -1136.13405852791     IErMin=17 ErrMin= 1.17D-08
 ErrMax= 1.17D-08  0.00D+00 EMaxC= 1.00D-01 BMatC= 2.18D-14 BMatP= 8.61D-14
 IDIUse=1 WtCom= 1.00D+00 WtEn= 0.00D+00
 Coeff-Com: -0.149D-06 0.164D-06-0.158D-05-0.414D-06-0.380D-06 0.159D-04
 Coeff-Com:  0.350D-04 0.105D-03 0.113D-03 0.312D-05-0.350D-02-0.123D-02
 Coeff-Com:  0.287D-01 0.622D-02-0.246D+00 0.299D+00 0.917D+00
 Coeff:     -0.149D-06 0.164D-06-0.158D-05-0.414D-06-0.380D-06 0.159D-04
 Coeff:      0.350D-04 0.105D-03 0.113D-03 0.312D-05-0.350D-02-0.123D-02
 Coeff:      0.287D-01 0.622D-02-0.246D+00 0.299D+00 0.917D+00
 Gap=     0.045 Goal=   None    Shift=    0.000
 Gap=     0.060 Goal=   None    Shift=    0.000
 RMSDP=3.49D-08 MaxDP=3.76D-06 DE= 4.55D-12 OVMax= 5.99D-07

 Cycle  18  Pass 1  IDiag  1:
 E= -1136.13405852791     Delta-E=       -0.000000000007 Rises=F Damp=F
 DIIS: error= 4.28D-09 at cycle  18 NSaved=  18.
 NSaved=18 IEnMin=18 EnMin= -1136.13405852791     IErMin=18 ErrMin= 4.28D-09
 ErrMax= 4.28D-09  0.00D+00 EMaxC= 1.00D-01 BMatC= 4.06D-15 BMatP= 2.18D-14
 IDIUse=1 WtCom= 1.00D+00 WtEn= 0.00D+00
 Coeff-Com:  0.201D-06-0.263D-06-0.124D-05-0.573D-06-0.483D-05-0.282D-04
 Coeff-Com: -0.481D-05 0.899D-04 0.240D-03 0.426D-03-0.141D-02-0.188D-02
 Coeff-Com: -0.258D-02 0.353D-01 0.790D-02-0.297D+00 0.634D-01 0.120D+01
 Coeff:      0.201D-06-0.263D-06-0.124D-05-0.573D-06-0.483D-05-0.282D-04
 Coeff:     -0.481D-05 0.899D-04 0.240D-03 0.426D-03-0.141D-02-0.188D-02
 Coeff:     -0.258D-02 0.353D-01 0.790D-02-0.297D+00 0.634D-01 0.120D+01
 Gap=     0.045 Goal=   None    Shift=    0.000
 Gap=     0.060 Goal=   None    Shift=    0.000
 RMSDP=2.02D-08 MaxDP=2.22D-06 DE=-6.59D-12 OVMax= 3.72D-07

 Cycle  19  Pass 1  IDiag  1:
 E= -1136.13405852790     Delta-E=        0.000000000006 Rises=F Damp=F
 DIIS: error= 1.54D-09 at cycle  19 NSaved=  19.
 NSaved=19 IEnMin=18 EnMin= -1136.13405852791     IErMin=19 ErrMin= 1.54D-09
 ErrMax= 1.54D-09  0.00D+00 EMaxC= 1.00D-01 BMatC= 4.94D-16 BMatP= 4.06D-15
 IDIUse=1 WtCom= 1.00D+00 WtEn= 0.00D+00
 Large coefficients: NSaved= 19 BigCof=    0.00 CofMax=   10.00 Det=-7.56D-16
 Inversion failed.  Reducing to 18 matrices.
 Large coefficients: NSaved= 18 BigCof=    0.00 CofMax=   10.00 Det=-8.41D-16
 Inversion failed.  Reducing to 17 matrices.
 Large coefficients: NSaved= 17 BigCof=    0.00 CofMax=   10.00 Det=-8.53D-16
 Inversion failed.  Reducing to 16 matrices.
 Large coefficients: NSaved= 16 BigCof=    0.00 CofMax=   10.00 Det=-9.15D-16
 Inversion failed.  Reducing to 15 matrices.
 Coeff-Com:  0.127D-06 0.553D-06-0.482D-05-0.132D-04-0.121D-04-0.531D-06
 Coeff-Com:  0.435D-03 0.245D-04-0.381D-02 0.962D-03 0.290D-01-0.261D-01
 Coeff-Com: -0.123D+00-0.119D+00 0.124D+01
 Coeff:      0.127D-06 0.553D-06-0.482D-05-0.132D-04-0.121D-04-0.531D-06
 Coeff:      0.435D-03 0.245D-04-0.381D-02 0.962D-03 0.290D-01-0.261D-01
 Coeff:     -0.123D+00-0.119D+00 0.124D+01
 Gap=     0.045 Goal=   None    Shift=    0.000
 Gap=     0.060 Goal=   None    Shift=    0.000
 RMSDP=1.17D-08 MaxDP=1.78D-06 DE= 6.14D-12 OVMax= 1.61D-07

 Cycle  20  Pass 1  IDiag  1:
 E= -1136.13405852791     Delta-E=       -0.000000000003 Rises=F Damp=F
 DIIS: error= 7.47D-10 at cycle  20 NSaved=  16.
 NSaved=16 IEnMin=14 EnMin= -1136.13405852791     IErMin=16 ErrMin= 7.47D-10
 ErrMax= 7.47D-10  0.00D+00 EMaxC= 1.00D-01 BMatC= 9.47D-17 BMatP= 4.94D-16
 IDIUse=1 WtCom= 1.00D+00 WtEn= 0.00D+00
 Large coefficients: NSaved= 16 BigCof=    0.00 CofMax=   10.00 Det=-1.06D-16
 Inversion failed.  Reducing to 15 matrices.
 Coeff-Com: -0.632D-06 0.123D-05 0.187D-07-0.110D-04-0.713D-05 0.839D-04
 Coeff-Com:  0.112D-03-0.600D-04-0.291D-02 0.287D-03 0.302D-01-0.980D-02
 Coeff-Com: -0.126D+00-0.189D-01 0.113D+01
 Coeff:     -0.632D-06 0.123D-05 0.187D-07-0.110D-04-0.713D-05 0.839D-04
 Coeff:      0.112D-03-0.600D-04-0.291D-02 0.287D-03 0.302D-01-0.980D-02
 Coeff:     -0.126D+00-0.189D-01 0.113D+01
 Gap=     0.045 Goal=   None    Shift=    0.000
 Gap=     0.060 Goal=   None    Shift=    0.000
 RMSDP=4.80D-09 MaxDP=6.62D-07 DE=-2.50D-12 OVMax= 5.45D-08

 SCF Done:  E(UB3LYP) =  -1136.13405853     A.U. after   20 cycles
            NFock= 20  Conv=0.48D-08     -V/T= 2.0028
 <Sx>= 0.0000 <Sy>= 0.0000 <Sz>= 0.5000 <S**2>= 0.7599 S= 0.5049
 <L.S>= 0.000000000000E+00
 KE= 1.132975019279D+03 PE=-3.427032951975D+03 EE= 8.092106855918D+02
 Annihilation of the first spin contaminant:
 S**2 before annihilation     0.7599,   after     0.7501
 Leave Link  502 at Wed Nov 29 03:12:45 2023, MaxMem=  1879048192 cpu:             189.0 elap:              16.9
 (Enter /home/sekinelabo/g16/l601.exe)
 Copying SCF densities to generalized density rwf, IOpCl= 1 IROHF=0.

 **********************************************************************

            Population analysis using the SCF Density.

 **********************************************************************

 Orbital symmetries:
 Alpha Orbitals:
       Occupied  (A) (A) (A) (A) (A) (A) (A) (A) (A) (A) (A) (A)
                 (A) (A) (A) (A) (A) (A) (A) (A) (A) (A) (A) (A)
                 (A) (A) (A) (A) (A) (A) (A) (A) (A) (A) (A) (A)
                 (A) (A) (A)
       Virtual   (A) (A) (A) (A) (A) (A) (A) (A) (A) (A) (A) (A)
                 (A) (A) (A) (A) (A) (A) (A) (A) (A) (A) (A) (A)
                 (A) (A) (A) (A) (A) (A) (A) (A) (A) (A) (A) (A)
                 (A) (A) (A) (A) (A) (A) (A) (A) (A) (A) (A) (A)
                 (A) (A) (A) (A) (A) (A) (A) (A) (A) (A) (A) (A)
                 (A) (A) (A) (A) (A) (A) (A) (A) (A) (A) (A) (A)
                 (A) (A) (A) (A) (A) (A) (A) (A) (A) (A) (A) (A)
                 (A) (A) (A) (A) (A) (A) (A) (A) (A) (A) (A) (A)
                 (A) (A) (A) (A) (A) (A) (A) (A) (A) (A) (A) (A)
                 (A) (A) (A) (A) (A) (A) (A) (A) (A) (A) (A) (A)
                 (A) (A) (A) (A) (A) (A) (A) (A) (A) (A) (A) (A)
                 (A) (A) (A) (A) (A) (A) (A) (A) (A) (A) (A) (A)
                 (A) (A) (A) (A) (A) (A) (A) (A) (A) (A) (A) (A)
                 (A) (A) (A) (A) (A) (A) (A) (A) (A) (A) (A) (A)
                 (A) (A) (A)
 Beta  Orbitals:
       Occupied  (A) (A) (A) (A) (A) (A) (A) (A) (A) (A) (A) (A)
                 (A) (A) (A) (A) (A) (A) (A) (A) (A) (A) (A) (A)
                 (A) (A) (A) (A) (A) (A) (A) (A) (A) (A) (A) (A)
                 (A) (A)
       Virtual   (A) (A) (A) (A) (A) (A) (A) (A) (A) (A) (A) (A)
                 (A) (A) (A) (A) (A) (A) (A) (A) (A) (A) (A) (A)
                 (A) (A) (A) (A) (A) (A) (A) (A) (A) (A) (A) (A)
                 (A) (A) (A) (A) (A) (A) (A) (A) (A) (A) (A) (A)
                 (A) (A) (A) (A) (A) (A) (A) (A) (A) (A) (A) (A)
                 (A) (A) (A) (A) (A) (A) (A) (A) (A) (A) (A) (A)
                 (A) (A) (A) (A) (A) (A) (A) (A) (A) (A) (A) (A)
                 (A) (A) (A) (A) (A) (A) (A) (A) (A) (A) (A) (A)
                 (A) (A) (A) (A) (A) (A) (A) (A) (A) (A) (A) (A)
                 (A) (A) (A) (A) (A) (A) (A) (A) (A) (A) (A) (A)
                 (A) (A) (A) (A) (A) (A) (A) (A) (A) (A) (A) (A)
                 (A) (A) (A) (A) (A) (A) (A) (A) (A) (A) (A) (A)
                 (A) (A) (A) (A) (A) (A) (A) (A) (A) (A) (A) (A)
                 (A) (A) (A) (A) (A) (A) (A) (A) (A) (A) (A) (A)
                 (A) (A) (A) (A)
 The electronic state is 2-A.
 Alpha  occ. eigenvalues --  -38.44166 -38.43947 -38.43730 -38.43597 -38.43413
 Alpha  occ. eigenvalues --  -38.43054 -38.42822  -2.19974  -2.19788  -2.19613
 Alpha  occ. eigenvalues --   -2.19424  -2.19339  -2.19056  -2.18861  -1.13663
 Alpha  occ. eigenvalues --   -1.13624  -1.13608  -1.13456  -1.13453  -1.13437
 Alpha  occ. eigenvalues --   -1.13339  -1.13278  -1.13225  -1.13110  -1.13090
 Alpha  occ. eigenvalues --   -1.13066  -1.13046  -1.13014  -1.12946  -1.12754
 Alpha  occ. eigenvalues --   -1.12670  -1.12654  -1.12552  -1.12494  -1.12475
 Alpha  occ. eigenvalues --   -0.18916  -0.13117  -0.12707  -0.10239
 Alpha virt. eigenvalues --   -0.05735  -0.05319  -0.04796  -0.02910  -0.02805
 Alpha virt. eigenvalues --   -0.01896  -0.01686  -0.01284  -0.00476  -0.00362
 Alpha virt. eigenvalues --    0.00040   0.00325   0.00783   0.00837   0.00871
 Alpha virt. eigenvalues --    0.00979   0.01108   0.01247   0.01300   0.01317
 Alpha virt. eigenvalues --    0.01383   0.01523   0.01824   0.01894   0.02184
 Alpha virt. eigenvalues --    0.02249   0.02306   0.02526   0.02544   0.02878
 Alpha virt. eigenvalues --    0.03013   0.03080   0.03147   0.03161   0.03196
 Alpha virt. eigenvalues --    0.03276   0.03286   0.03361   0.03418   0.03530
 Alpha virt. eigenvalues --    0.04181   0.04329   0.04603   0.04711   0.04859
 Alpha virt. eigenvalues --    0.04981   0.05078   0.05213   0.05289   0.05472
 Alpha virt. eigenvalues --    0.06199   0.06783   0.07138   0.07382   0.07749
 Alpha virt. eigenvalues --    0.07879   0.08012   0.08221   0.08241   0.09297
 Alpha virt. eigenvalues --    0.09474   0.09840   0.10858   0.11063   0.11739
 Alpha virt. eigenvalues --    0.11897   0.12098   0.12546   0.12988   0.13628
 Alpha virt. eigenvalues --    0.13878   0.13963   0.14449   0.14731   0.15161
 Alpha virt. eigenvalues --    0.15438   0.15923   0.16057   0.16449   0.18396
 Alpha virt. eigenvalues --    0.25487   0.25625   0.26909   0.27538   0.28658
 Alpha virt. eigenvalues --    0.30299   0.30599   0.32691   0.33575   0.34225
 Alpha virt. eigenvalues --    0.34826   0.35250   0.36008   0.38140   0.38267
 Alpha virt. eigenvalues --    0.39124   0.40286   0.40866   0.41706   0.43612
 Alpha virt. eigenvalues --    0.43845   0.44091   0.44295   0.44818   0.44971
 Alpha virt. eigenvalues --    0.45125   0.45313   0.45719   0.45966   0.46750
 Alpha virt. eigenvalues --    0.47087   0.48005   0.48502   0.48871   0.49554
 Alpha virt. eigenvalues --    0.49739   0.50904   0.51218   0.52191   0.53349
 Alpha virt. eigenvalues --    0.53636   0.55085   0.55683   0.56464   0.57347
 Alpha virt. eigenvalues --    0.58090   0.59427   0.59770   0.63268   0.64123
 Alpha virt. eigenvalues --    0.64492   0.65011   0.67740   0.68132   0.70211
 Alpha virt. eigenvalues --    0.70823   2.04292   2.14165   2.16210   2.18839
 Alpha virt. eigenvalues --    2.23026   2.26816   2.31705   4.43335   4.43769
 Alpha virt. eigenvalues --    4.44293   4.44536   4.45484   4.45850   4.46037
 Alpha virt. eigenvalues --    4.46903   4.47582   4.47810   4.48459   4.49377
 Alpha virt. eigenvalues --    4.49765   4.50715   4.53715   4.56658   4.58300
 Alpha virt. eigenvalues --    4.60878   4.61776   4.63982   4.69563  96.23713
 Alpha virt. eigenvalues --   96.35715  96.38074  96.41344  96.46932  96.52103
 Alpha virt. eigenvalues --   96.57688
  Beta  occ. eigenvalues --  -38.44160 -38.43943 -38.43719 -38.43587 -38.43395
  Beta  occ. eigenvalues --  -38.42976 -38.42769  -2.19964  -2.19783  -2.19599
  Beta  occ. eigenvalues --   -2.19407  -2.19310  -2.18913  -2.18767  -1.13647
  Beta  occ. eigenvalues --   -1.13612  -1.13604  -1.13454  -1.13445  -1.13416
  Beta  occ. eigenvalues --   -1.13321  -1.13244  -1.13217  -1.13099  -1.13065
  Beta  occ. eigenvalues --   -1.13046  -1.13036  -1.12966  -1.12921  -1.12663
  Beta  occ. eigenvalues --   -1.12574  -1.12548  -1.12476  -1.12424  -1.12403
  Beta  occ. eigenvalues --   -0.18238  -0.12828  -0.12449
  Beta virt. eigenvalues --   -0.06428  -0.05637  -0.05297  -0.04728  -0.02198
  Beta virt. eigenvalues --   -0.02078  -0.01600  -0.01237  -0.00923  -0.00469
  Beta virt. eigenvalues --   -0.00393   0.00180   0.00379   0.00822   0.00852
  Beta virt. eigenvalues --    0.00877   0.01032   0.01217   0.01351   0.01414
  Beta virt. eigenvalues --    0.01445   0.01599   0.01675   0.01864   0.01931
  Beta virt. eigenvalues --    0.02209   0.02250   0.02461   0.02515   0.02554
  Beta virt. eigenvalues --    0.02886   0.03103   0.03133   0.03160   0.03203
  Beta virt. eigenvalues --    0.03264   0.03293   0.03337   0.03426   0.03574
  Beta virt. eigenvalues --    0.03693   0.04256   0.04417   0.04705   0.04747
  Beta virt. eigenvalues --    0.04912   0.05129   0.05234   0.05413   0.05444
  Beta virt. eigenvalues --    0.05764   0.06561   0.06765   0.07149   0.07374
  Beta virt. eigenvalues --    0.07838   0.07964   0.08155   0.08367   0.08490
  Beta virt. eigenvalues --    0.09487   0.09754   0.10141   0.10944   0.11191
  Beta virt. eigenvalues --    0.11820   0.12103   0.12378   0.12855   0.13222
  Beta virt. eigenvalues --    0.13927   0.13943   0.14136   0.14557   0.14854
  Beta virt. eigenvalues --    0.15412   0.15646   0.16373   0.16458   0.16996
  Beta virt. eigenvalues --    0.18919   0.25558   0.25815   0.27255   0.27712
  Beta virt. eigenvalues --    0.28734   0.30695   0.30820   0.33099   0.34005
  Beta virt. eigenvalues --    0.34613   0.35002   0.35415   0.36236   0.38333
  Beta virt. eigenvalues --    0.38519   0.39226   0.40535   0.41092   0.41833
  Beta virt. eigenvalues --    0.43790   0.43930   0.44268   0.44386   0.44984
  Beta virt. eigenvalues --    0.45084   0.45208   0.45537   0.45867   0.46122
  Beta virt. eigenvalues --    0.46848   0.47338   0.48084   0.48538   0.48965
  Beta virt. eigenvalues --    0.49686   0.49881   0.51094   0.51435   0.52252
  Beta virt. eigenvalues --    0.53601   0.53910   0.55313   0.55865   0.56677
  Beta virt. eigenvalues --    0.57438   0.58219   0.59707   0.60071   0.63534
  Beta virt. eigenvalues --    0.64283   0.64741   0.65199   0.68012   0.68343
  Beta virt. eigenvalues --    0.70531   0.71105   2.04360   2.14181   2.16244
  Beta virt. eigenvalues --    2.18858   2.23066   2.27132   2.31937   4.43424
  Beta virt. eigenvalues --    4.43865   4.44335   4.44563   4.45520   4.45869
  Beta virt. eigenvalues --    4.46061   4.46918   4.47596   4.47831   4.48494
  Beta virt. eigenvalues --    4.49424   4.49810   4.50721   4.53737   4.56728
  Beta virt. eigenvalues --    4.58379   4.60953   4.61845   4.64062   4.69627
  Beta virt. eigenvalues --   96.23739  96.35721  96.38088  96.41352  96.46950
  Beta virt. eigenvalues --   96.52193  96.57760
          Condensed to atoms (all electrons):
               1          2          3          4          5          6
     1  Na  11.100279   0.402588  -0.125457  -0.255016  -0.631929   0.046996
     2  Na   0.402588  10.876217   0.257929  -0.846713  -0.348780   0.795144
     3  Na  -0.125457   0.257929  11.037336   0.201536   0.514534  -0.238606
     4  Na  -0.255016  -0.846713   0.201536  16.775167   1.717152  -6.045413
     5  Na  -0.631929  -0.348780   0.514534   1.717152  12.987980  -3.442523
     6  Na   0.046996   0.795144  -0.238606  -6.045413  -3.442523  20.816290
     7  Na   0.454220  -0.033609  -0.688256  -0.242874  -0.083966  -0.674068
               7
     1  Na   0.454220
     2  Na  -0.033609
     3  Na  -0.688256
     4  Na  -0.242874
     5  Na  -0.083966
     6  Na  -0.674068
     7  Na  11.940950
          Atomic-Atomic Spin Densities.
               1          2          3          4          5          6
     1  Na  -0.056847  -0.052281  -0.051467   0.043991   0.063428  -0.048693
     2  Na  -0.052281   0.036925  -0.147360  -0.527051  -0.179807   0.776999
     3  Na  -0.051467  -0.147360  -0.137489   0.437706  -0.001841  -0.197732
     4  Na   0.043991  -0.527051   0.437706   4.909167   1.762315  -5.991170
     5  Na   0.063428  -0.179807  -0.001841   1.762315   0.435866  -2.127930
     6  Na  -0.048693   0.776999  -0.197732  -5.991170  -2.127930   8.311536
     7  Na   0.045394   0.103226   0.085577  -0.254996   0.099134  -0.059289
               7
     1  Na   0.045394
     2  Na   0.103226
     3  Na   0.085577
     4  Na  -0.254996
     5  Na   0.099134
     6  Na  -0.059289
     7  Na  -0.055464
 Mulliken charges and spin densities:
               1          2
     1  Na   0.008318  -0.056474
     2  Na  -0.102776   0.010652
     3  Na   0.040983  -0.012606
     4  Na  -0.303839   0.379962
     5  Na   0.287531   0.051164
     6  Na  -0.257821   0.663720
     7  Na   0.327604  -0.036418
 Sum of Mulliken charges =  -0.00000   1.00000
 Mulliken charges and spin densities with hydrogens summed into heavy atoms:
               1          2
     1  Na   0.008318  -0.056474
     2  Na  -0.102776   0.010652
     3  Na   0.040983  -0.012606
     4  Na  -0.303839   0.379962
     5  Na   0.287531   0.051164
     6  Na  -0.257821   0.663720
     7  Na   0.327604  -0.036418
 Electronic spatial extent (au):  <R**2>=           2215.0356
 Charge=             -0.0000 electrons
 Dipole moment (field-independent basis, Debye):
    X=             -0.1839    Y=              0.1320    Z=              0.1002  Tot=              0.2476
 Quadrupole moment (field-independent basis, Debye-Ang):
   XX=            -53.9274   YY=            -60.7069   ZZ=            -76.6372
   XY=              0.4322   XZ=             -0.8189   YZ=              1.7186
 Traceless Quadrupole moment (field-independent basis, Debye-Ang):
   XX=              9.8298   YY=              3.0503   ZZ=            -12.8801
   XY=              0.4322   XZ=             -0.8189   YZ=              1.7186
 Octapole moment (field-independent basis, Debye-Ang**2):
  XXX=             -4.8661  YYY=             -1.2915  ZZZ=              1.2698  XYY=             -4.6280
  XXY=              5.0239  XXZ=             -0.2227  XZZ=              0.7169  YZZ=              1.1329
  YYZ=             -0.5221  XYZ=              0.1506
 Hexadecapole moment (field-independent basis, Debye-Ang**3):
 XXXX=          -1423.4270 YYYY=          -1373.2683 ZZZZ=           -689.0952 XXXY=             -6.2078
 XXXZ=            -11.5312 YYYX=             17.9559 YYYZ=             46.6578 ZZZX=              1.6901
 ZZZY=             -0.6673 XXYY=           -466.7525 XXZZ=           -435.5953 YYZZ=           -395.7503
 XXYZ=             -3.4995 YYXZ=            -12.1915 ZZXY=             -1.8474
 N-N= 3.487131885766D+02 E-N=-3.427032951895D+03  KE= 1.132975019279D+03
                          Isotropic Fermi Contact Couplings
        Atom                 a.u.       MegaHertz       Gauss      10(-4) cm-1
     1  Na(23)             0.00557       6.58358       2.34919       2.19605
     2  Na(23)             0.01979      23.41794       8.35610       7.81139
     3  Na(23)            -0.01752     -20.72448      -7.39501      -6.91294
     4  Na(23)             0.18912     223.73805      79.83530      74.63098
     5  Na(23)             0.02849      33.70505      12.02680      11.24279
     6  Na(23)             0.31404     371.52092     132.56790     123.92604
     7  Na(23)            -0.00333      -3.93918      -1.40560      -1.31397
 --------------------------------------------------------
       Center         ----  Spin Dipole Couplings  ----
                      3XX-RR        3YY-RR        3ZZ-RR
 --------------------------------------------------------
     1   Atom       -0.006567     -0.009902      0.016468
     2   Atom       -0.011524     -0.004917      0.016441
     3   Atom       -0.011508     -0.010179      0.021687
     4   Atom       -0.002185     -0.010815      0.013000
     5   Atom       -0.019945     -0.013967      0.033912
     6   Atom       -0.003541      0.004643     -0.001101
     7   Atom       -0.017746     -0.018168      0.035914
 --------------------------------------------------------
                        XY            XZ            YZ
 --------------------------------------------------------
     1   Atom       -0.001984     -0.002676      0.002918
     2   Atom       -0.000572      0.005298     -0.007239
     3   Atom        0.000811     -0.001867      0.016126
     4   Atom       -0.006466     -0.002168      0.012228
     5   Atom        0.000526     -0.004958     -0.017456
     6   Atom        0.006295     -0.003038     -0.001152
     7   Atom        0.002009      0.010918     -0.000065
 --------------------------------------------------------


 ---------------------------------------------------------------------------------
              Anisotropic Spin Dipole Couplings in Principal Axis System
 ---------------------------------------------------------------------------------

       Atom             a.u.   MegaHertz   Gauss  10(-4) cm-1        Axes

              Baa    -0.0109    -1.542    -0.550    -0.514  0.3829  0.9218 -0.0608
     1 Na(23) Bbb    -0.0062    -0.878    -0.313    -0.293  0.9159 -0.3701  0.1556
              Bcc     0.0171     2.420     0.864     0.807 -0.1210  0.1153  0.9859
 
              Baa    -0.0126    -1.777    -0.634    -0.593  0.9702 -0.1240 -0.2080
     2 Na(23) Bbb    -0.0070    -0.983    -0.351    -0.328  0.1761  0.9510  0.2543
              Bcc     0.0195     2.760     0.985     0.921  0.1663 -0.2834  0.9445
 
              Baa    -0.0173    -2.442    -0.871    -0.814 -0.2478  0.8910 -0.3805
     3 Na(23) Bbb    -0.0112    -1.579    -0.563    -0.527  0.9682  0.2420 -0.0637
              Bcc     0.0285     4.021     1.435     1.341 -0.0353  0.3842  0.9226
 
              Baa    -0.0177    -2.503    -0.893    -0.835  0.3230  0.8869 -0.3302
     4 Na(23) Bbb    -0.0014    -0.201    -0.072    -0.067  0.9219 -0.2160  0.3216
              Bcc     0.0191     2.704     0.965     0.902 -0.2139  0.4083  0.8874
 
              Baa    -0.0211    -2.978    -1.063    -0.993  0.8083  0.5362  0.2431
     5 Na(23) Bbb    -0.0189    -2.670    -0.953    -0.891 -0.5831  0.7861  0.2050
              Bcc     0.0400     5.648     2.015     1.884 -0.0811 -0.3075  0.9481
 
              Baa    -0.0077    -1.085    -0.387    -0.362  0.8546 -0.4063  0.3234
     6 Na(23) Bbb    -0.0010    -0.143    -0.051    -0.048 -0.1680  0.3729  0.9125
              Bcc     0.0087     1.228     0.438     0.410  0.4913  0.8342 -0.2504
 
              Baa    -0.0212    -2.992    -1.068    -0.998  0.8205 -0.5495 -0.1575
     7 Na(23) Bbb    -0.0169    -2.382    -0.850    -0.794  0.5383  0.8355 -0.1103
              Bcc     0.0381     5.373     1.917     1.792  0.1922  0.0057  0.9813
 

 ---------------------------------------------------------------------------------

 No NMR shielding tensors so no spin-rotation constants.
 Leave Link  601 at Wed Nov 29 03:12:46 2023, MaxMem=  1879048192 cpu:               2.3 elap:               0.2
 (Enter /home/sekinelabo/g16/l701.exe)
 ... and contract with generalized density number  0.
 Compute integral first derivatives.
 Leave Link  701 at Wed Nov 29 03:12:46 2023, MaxMem=  1879048192 cpu:               1.6 elap:               0.1
 (Enter /home/sekinelabo/g16/l702.exe)
 L702 exits ... SP integral derivatives will be done elsewhere.
 Leave Link  702 at Wed Nov 29 03:12:46 2023, MaxMem=  1879048192 cpu:               0.5 elap:               0.0
 (Enter /home/sekinelabo/g16/l703.exe)
 Integral derivatives from FoFJK, PRISM(SPDF).
 Compute integral first derivatives, UseDBF=F ICtDFT=           0.
 Calling FoFJK, ICntrl=      2127 FMM=F ISym2X=0 I1Cent= 0 IOpClX= 1 NMat=1 NMatS=1 NMatT=0.
 FoFJK:  IHMeth= 1 ICntrl=    2127 DoSepK=F KAlg= 0 I1Cent=           0 FoldK=F
 IRaf=         0 NMat=       1 IRICut=       1 DoRegI=T DoRafI=F ISym2E= 0 IDoP0=0 IntGTp=1.
 FoFCou: FMM=F IPFlag=           0 FMFlag=      100000 FMFlg1=         800
         NFxFlg=           0 DoJE=F BraDBF=F KetDBF=F FulRan=T
         wScrn=  0.000000 ICntrl=      2127 IOpCl=  1 I1Cent=           0 NGrid=           0
         NMat0=    1 NMatS0=      1 NMatT0=    0 NMatD0=    1 NMtDS0=    0 NMtDT0=    0
 Symmetry not used in FoFCou.
 Leave Link  703 at Wed Nov 29 03:12:48 2023, MaxMem=  1879048192 cpu:              34.1 elap:               2.3
 (Enter /home/sekinelabo/g16/l716.exe)
 Dipole        =-7.23326601D-02 5.19494356D-02 3.94391431D-02
 ***** Axes restored to original set *****
 -------------------------------------------------------------------
 Center     Atomic                   Forces (Hartrees/Bohr)
 Number     Number              X              Y              Z
 -------------------------------------------------------------------
      1       11           0.001504050   -0.001432490    0.001239454
      2       11          -0.001349660    0.000189615    0.001130594
      3       11          -0.000687015    0.002028286    0.000122948
      4       11           0.001386962    0.000412710   -0.006062563
      5       11          -0.002212037   -0.005390672   -0.002577130
      6       11           0.004838149    0.004033467    0.007651386
      7       11          -0.003480449    0.000159083   -0.001504688
 -------------------------------------------------------------------
 Cartesian Forces:  Max     0.007651386 RMS     0.003129378
 Z-matrix is all fixed cartesians, so copy forces.
 Force constants in Cartesian coordinates: 
                1             2             3             4             5 
      1  0.494280D-01
      2 -0.842717D-02  0.647234D-01
      3 -0.290778D-03 -0.225317D-02  0.298584D-01
      4 -0.168506D-01 -0.147779D-01 -0.322458D-02  0.787889D-01
      5  0.118087D-01 -0.141110D-01  0.404536D-02  0.171822D-01  0.760890D-01
      6  0.114974D-02 -0.888348D-03 -0.311219D-02  0.414156D-02  0.407064D-02
      7  0.206847D-02  0.551056D-02  0.712753D-03 -0.230216D-01 -0.173911D-01
      8  0.356720D-02  0.120512D-02  0.294687D-02  0.184766D-01 -0.253446D-01
      9  0.306041D-02  0.573769D-03  0.514512D-02  0.255286D-02 -0.334610D-02
     10 -0.247033D-01  0.105889D-02  0.111974D-01 -0.235517D-01 -0.107398D-02
     11  0.225100D-02 -0.274815D-01 -0.215554D-01 -0.587474D-02 -0.236010D-01
     12 -0.159844D-02  0.486656D-02 -0.338290D-01  0.408576D-02  0.597723D-02
     13  0.596414D-02  0.991285D-03 -0.302149D-02  0.455129D-02 -0.652745D-02
     14  0.286722D-02 -0.287038D-02  0.116962D-02 -0.540776D-02 -0.389743D-02
     15 -0.237659D-02 -0.229318D-02  0.585675D-02 -0.459108D-03 -0.171428D-02
     16  0.250478D-02  0.400687D-02 -0.406895D-02 -0.157253D-01 -0.255535D-03
     17  0.430922D-02 -0.560489D-02  0.104812D-01 -0.439572D-02 -0.131301D-01
     18 -0.952011D-03  0.142232D-02 -0.332855D-03 -0.631229D-02 -0.750918D-02
     19 -0.184115D-01  0.116375D-01 -0.130433D-02 -0.419097D-02 -0.374280D-02
     20 -0.163762D-01 -0.158607D-01  0.516551D-02 -0.520266D-02  0.399520D-02
     21  0.100767D-02 -0.142796D-02 -0.358617D-02 -0.784203D-03 -0.152367D-02
                6             7             8             9            10 
      6  0.441189D-01
      7 -0.158362D-02  0.938268D-01
      8 -0.299416D-02 -0.124948D-01  0.704077D-01
      9 -0.630951D-02 -0.345485D-02  0.617561D-02  0.440948D-01
     10 -0.194992D-01 -0.215924D-01  0.721983D-02 -0.212646D-01  0.139704D+00
     11 -0.150438D-01  0.164183D-02 -0.179164D-01  0.119049D-01 -0.141250D-02
     12 -0.327531D-01  0.805783D-02 -0.362403D-02 -0.245252D-01 -0.785072D-03
     13 -0.571123D-03 -0.287142D-01 -0.228689D-01 -0.377154D-02 -0.233704D-01
     14 -0.175183D-02  0.154665D-01 -0.274079D-01 -0.483521D-02 -0.199534D-02
     15  0.696988D-02  0.300797D-02 -0.305757D-02 -0.632701D-02  0.371888D-02
     16  0.147887D-01 -0.174234D-01  0.383058D-02  0.218941D-01 -0.191481D-01
     17  0.170948D-01  0.536638D-02 -0.823912D-02 -0.103054D-01  0.835454D-03
     18 -0.162179D-01 -0.775822D-02  0.800724D-03 -0.205866D-01  0.191004D-02
     19  0.157394D-02 -0.514363D-02  0.226947D-02  0.983620D-03 -0.273382D-01
     20 -0.487335D-03  0.190068D-02  0.729518D-02 -0.167537D-03 -0.463236D-02
     21  0.730390D-02  0.101813D-02 -0.247445D-03  0.850841D-02  0.247226D-01
               11            12            13            14            15 
     11  0.141662D+00
     12 -0.493570D-02  0.194481D+00
     13  0.757872D-04  0.637728D-03  0.808224D-01
     14 -0.349519D-01 -0.104644D-01  0.942825D-02  0.121029D+00
     15  0.279580D-01 -0.279079D-01 -0.379403D-02  0.155103D-01  0.586811D-01
     16  0.189927D-02 -0.183862D-02 -0.184801D-01 -0.537066D-02 -0.156387D-03
     17 -0.186094D-01  0.682730D-02 -0.241370D-02 -0.303268D-01 -0.328952D-01
     18 -0.362465D-02 -0.458854D-01  0.371305D-02  0.190849D-02 -0.329973D-01
     19  0.141936D-02 -0.855919D-02 -0.207731D-01 -0.149882D-01  0.592645D-04
     20 -0.191013D-01  0.135304D-02  0.213147D-01 -0.215748D-01 -0.350802D-02
     21  0.529666D-02 -0.295804D-01  0.680740D-02 -0.153695D-02 -0.427547D-02
               16            17            18            19            20 
     16  0.103441D+00
     17 -0.112039D-02  0.952413D-01
     18 -0.531565D-03  0.743117D-02  0.150321D+00
     19 -0.351686D-01 -0.258124D-02  0.993100D-02  0.111026D+00
     20 -0.299013D-02 -0.193311D-01 -0.428883D-03  0.598593D-02  0.645775D-01
     21 -0.300873D-01  0.136614D-02 -0.343013D-01 -0.268430D-02 -0.192678D-02
               21 
     21  0.559310D-01
 Leave Link  716 at Wed Nov 29 03:12:48 2023, MaxMem=  1879048192 cpu:               0.4 elap:               0.0
 (Enter /home/sekinelabo/g16/l103.exe)

 GradGradGradGradGradGradGradGradGradGradGradGradGradGradGradGradGradGrad
 Berny optimization.
 Search for a local minimum.
 Step number   1 out of a maximum of    2
 All quantities printed in internal units (Hartrees-Bohrs-Radians)
 Second derivative matrix not updated -- first step.
 ITU=  0
     Eigenvalues ---    0.04333   0.05673   0.05831   0.06839   0.08897
     Eigenvalues ---    0.09157   0.09862   0.12403   0.14036   0.15231
     Eigenvalues ---    0.15462   0.17615   0.17775   0.18940   0.23526
 Angle between quadratic step and forces=  16.09 degrees.
 Linear search not attempted -- first point.
 B after Tr=     0.000000    0.000000   -0.000000
         Rot=    1.000000   -0.000000    0.000000    0.000000 Ang=   0.00 deg.
 Variable       Old X    -DE/DX   Delta X   Delta X   Delta X     New X
                                 (Linear)    (Quad)   (Total)
    X1       26.20975   0.00150   0.00000   0.01587   0.01587  26.22561
    Y1       34.64870  -0.00143   0.00000  -0.01402  -0.01402  34.63467
    Z1       28.35818   0.00124   0.00000   0.00258   0.00258  28.36076
    X2       33.23688  -0.00135   0.00000  -0.00926  -0.00926  33.22763
    Y2       32.72665   0.00019   0.00000   0.00946   0.00946  32.73611
    Z2       29.38165   0.00113   0.00000   0.01001   0.01001  29.39166
    X3       34.29740  -0.00069   0.00000   0.00546   0.00546  34.30286
    Y3       26.17101   0.00203   0.00000   0.01367   0.01367  26.18468
    Z3       28.59949   0.00012   0.00000  -0.00429  -0.00429  28.59520
    X4       28.76409   0.00139   0.00000   0.00759   0.00759  28.77168
    Y4       29.47557   0.00041   0.00000   0.00211   0.00211  29.47768
    Z4       26.32710  -0.00606   0.00000  -0.02662  -0.02662  26.30048
    X5       28.45115  -0.00221   0.00000  -0.01824  -0.01824  28.43291
    Y5       23.68394  -0.00539   0.00000  -0.03807  -0.03807  23.64587
    Z5       28.41581  -0.00258   0.00000  -0.01516  -0.01516  28.40065
    X6       28.60460   0.00484   0.00000   0.02910   0.02910  28.63369
    Y6       28.05960   0.00403   0.00000   0.02195   0.02195  28.08154
    Z6       32.29844   0.00765   0.00000   0.04075   0.04075  32.33919
    X7       23.44073  -0.00348   0.00000  -0.03052  -0.03052  23.41021
    Y7       28.23931   0.00016   0.00000   0.00490   0.00490  28.24421
    Z7       29.62391  -0.00150   0.00000  -0.00727  -0.00727  29.61664
         Item               Value     Threshold  Converged?
 Maximum Force            0.007651     0.000450     NO 
 RMS     Force            0.003129     0.000300     NO 
 Maximum Displacement     0.040746     0.001800     NO 
 RMS     Displacement     0.019205     0.001200     NO 
 Predicted change in Energy=-6.063213D-04
 GradGradGradGradGradGradGradGradGradGradGradGradGradGradGradGradGradGrad

 Leave Link  103 at Wed Nov 29 03:12:48 2023, MaxMem=  1879048192 cpu:               0.2 elap:               0.0
 (Enter /home/sekinelabo/g16/l9999.exe)
 1\1\GINC-SEKINELABO-XA7R-R37\Force\UB3LYP\6-311+G(d)\Na7(2)\SEKINELABO
 \29-Nov-2023\0\\#P B3LYP/6-311+g(d) force\\DPGEN\\0,2\Na,13.8696,18.33
 53,15.0065\Na,17.5882,17.3182,15.5481\Na,18.1494,13.8491,15.1342\Na,15
 .2213,15.5978,13.9317\Na,15.0557,12.533,15.037\Na,15.1369,14.8485,17.0
 916\Na,12.4043,14.9436,15.6763\\Version=ES64L-G16RevB.01\State=2-A\HF=
 -1136.1340585\S2=0.759883\S2-1=0.\S2A=0.750071\RMSD=4.797e-09\RMSF=3.1
 29e-03\Dipole=-0.0169947,0.0889145,0.0359387\Quadrupole=5.36377,4.3286
 751,-9.6924451,-2.4234813,-0.132258,0.785229\PG=C01 [X(Na7)]\\@


 It is also a good rule not to put too much confidence in
 experimental results until they have been confirmed by
 Theory.
                             -- Sir Arthur Eddington
 Job cpu time:       0 days  0 hours  3 minutes 59.0 seconds.
 Elapsed time:       0 days  0 hours  0 minutes 20.3 seconds.
 File lengths (MBytes):  RWF=     32 Int=      0 D2E=      0 Chk=      4 Scr=      1
 Normal termination of Gaussian 16 at Wed Nov 29 03:12:48 2023.
