 Set GAUSS_MDEF to "14GB".
 Entering Gaussian System, Link 0=g16
 Initial command:
 /home/sekinelabo/g16/l1.exe "/home/sekinelabo/g16temp/Gau-1067497.inp" -scrdir="/home/sekinelabo/g16temp/"
 Entering Link 1 = /home/sekinelabo/g16/l1.exe PID=   1067499.
  
 Copyright (c) 1988-2017, Gaussian, Inc.  All Rights Reserved.
  
 This is part of the Gaussian(R) 16 program.  It is based on
 the Gaussian(R) 09 system (copyright 2009, Gaussian, Inc.),
 the Gaussian(R) 03 system (copyright 2003, Gaussian, Inc.),
 the Gaussian(R) 98 system (copyright 1998, Gaussian, Inc.),
 the Gaussian(R) 94 system (copyright 1995, Gaussian, Inc.),
 the Gaussian 92(TM) system (copyright 1992, Gaussian, Inc.),
 the Gaussian 90(TM) system (copyright 1990, Gaussian, Inc.),
 the Gaussian 88(TM) system (copyright 1988, Gaussian, Inc.),
 the Gaussian 86(TM) system (copyright 1986, Carnegie Mellon
 University), and the Gaussian 82(TM) system (copyright 1983,
 Carnegie Mellon University). Gaussian is a federally registered
 trademark of Gaussian, Inc.
  
 This software contains proprietary and confidential information,
 including trade secrets, belonging to Gaussian, Inc.
  
 This software is provided under written license and may be
 used, copied, transmitted, or stored only in accord with that
 written license.
  
 The following legend is applicable only to US Government
 contracts under FAR:
  
                    RESTRICTED RIGHTS LEGEND
  
 Use, reproduction and disclosure by the US Government is
 subject to restrictions as set forth in subparagraphs (a)
 and (c) of the Commercial Computer Software - Restricted
 Rights clause in FAR 52.227-19.
  
 Gaussian, Inc.
 340 Quinnipiac St., Bldg. 40, Wallingford CT 06492
  
  
 ---------------------------------------------------------------
 Warning -- This program may not be used in any manner that
 competes with the business of Gaussian, Inc. or will provide
 assistance to any competitor of Gaussian, Inc.  The licensee
 of this program is prohibited from giving any competitor of
 Gaussian, Inc. access to this program.  By using this program,
 the user acknowledges that Gaussian, Inc. is engaged in the
 business of creating and licensing software in the field of
 computational chemistry and represents and warrants to the
 licensee that it is not a competitor of Gaussian, Inc. and that
 it will not use this program in any manner prohibited above.
 ---------------------------------------------------------------
  

 Cite this work as:
 Gaussian 16, Revision B.01,
 M. J. Frisch, G. W. Trucks, H. B. Schlegel, G. E. Scuseria, 
 M. A. Robb, J. R. Cheeseman, G. Scalmani, V. Barone, 
 G. A. Petersson, H. Nakatsuji, X. Li, M. Caricato, A. V. Marenich, 
 J. Bloino, B. G. Janesko, R. Gomperts, B. Mennucci, H. P. Hratchian, 
 J. V. Ortiz, A. F. Izmaylov, J. L. Sonnenberg, D. Williams-Young, 
 F. Ding, F. Lipparini, F. Egidi, J. Goings, B. Peng, A. Petrone, 
 T. Henderson, D. Ranasinghe, V. G. Zakrzewski, J. Gao, N. Rega, 
 G. Zheng, W. Liang, M. Hada, M. Ehara, K. Toyota, R. Fukuda, 
 J. Hasegawa, M. Ishida, T. Nakajima, Y. Honda, O. Kitao, H. Nakai, 
 T. Vreven, K. Throssell, J. A. Montgomery, Jr., J. E. Peralta, 
 F. Ogliaro, M. J. Bearpark, J. J. Heyd, E. N. Brothers, K. N. Kudin, 
 V. N. Staroverov, T. A. Keith, R. Kobayashi, J. Normand, 
 K. Raghavachari, A. P. Rendell, J. C. Burant, S. S. Iyengar, 
 J. Tomasi, M. Cossi, J. M. Millam, M. Klene, C. Adamo, R. Cammi, 
 J. W. Ochterski, R. L. Martin, K. Morokuma, O. Farkas, 
 J. B. Foresman, and D. J. Fox, Gaussian, Inc., Wallingford CT, 2016.
 
 ******************************************
 Gaussian 16:  ES64L-G16RevB.01 20-Dec-2017
                 7-Dec-2023 
 ******************************************
 %nproc=15
 Will use up to   15 processors via shared memory.
 -------------------------
 #P B3LYP/6-311+g(d) force
 -------------------------
 1/10=7,30=1,38=1/1,3;
 2/12=2,17=6,18=5,40=1/2;
 3/5=4,6=6,7=11,11=2,25=1,30=1,71=1,74=-5/1,2,3;
 4//1;
 5/5=2,38=5/2;
 6/7=2,8=2,9=2,10=2,28=1/1;
 7/29=1/1,2,3,16;
 1/10=7,30=1/3;
 99//99;
 Leave Link    1 at Thu Dec  7 10:06:14 2023, MaxMem=           0 cpu:               0.3 elap:               0.0
 (Enter /home/sekinelabo/g16/l101.exe)
 -----
 DPGEN
 -----
 Symbolic Z-matrix:
 Charge =  0 Multiplicity = 2
 Na                    10.2584   9.69734   11.4285 
 Na                    10.7786   12.7042   12.7412 
 Na                    13.1836   9.47514   14.5119 
 Na                    13.7671   13.2844   14.4393 
 Na                    13.5024   11.5954   11.2987 
 Na                    12.5914   15.0736   10.9592 
 Na                    10.7025   12.9537   9.40509 
 
 ITRead=  0  0  0  0  0  0  0
 MicOpt= -1 -1 -1 -1 -1 -1 -1
 NAtoms=      7 NQM=        7 NQMF=       0 NMMI=      0 NMMIF=      0
                NMic=       0 NMicF=      0.
                    Isotopes and Nuclear Properties:
 (Nuclear quadrupole moments (NQMom) in fm**2, nuclear magnetic moments (NMagM)
  in nuclear magnetons)

  Atom         1           2           3           4           5           6           7
 IAtWgt=          23          23          23          23          23          23          23
 AtmWgt=  22.9897697  22.9897697  22.9897697  22.9897697  22.9897697  22.9897697  22.9897697
 NucSpn=           3           3           3           3           3           3           3
 AtZEff=  -0.0000000  -0.0000000  -0.0000000  -0.0000000  -0.0000000  -0.0000000  -0.0000000
 NQMom=   10.4000000  10.4000000  10.4000000  10.4000000  10.4000000  10.4000000  10.4000000
 NMagM=    2.2175200   2.2175200   2.2175200   2.2175200   2.2175200   2.2175200   2.2175200
 AtZNuc=  11.0000000  11.0000000  11.0000000  11.0000000  11.0000000  11.0000000  11.0000000
 Leave Link  101 at Thu Dec  7 10:06:14 2023, MaxMem=  1879048192 cpu:               2.5 elap:               0.2
 (Enter /home/sekinelabo/g16/l103.exe)

 GradGradGradGradGradGradGradGradGradGradGradGradGradGradGradGradGradGrad
 Berny optimization.
 Initialization pass.
 Trust Radius=3.00D-01 FncErr=1.00D-07 GrdErr=1.00D-07 EigMax=2.50D+02 EigMin=1.00D-04
 Number of steps in this run=      2 maximum allowed number of steps=      2.
 GradGradGradGradGradGradGradGradGradGradGradGradGradGradGradGradGradGrad

 Leave Link  103 at Thu Dec  7 10:06:14 2023, MaxMem=  1879048192 cpu:               0.2 elap:               0.0
 (Enter /home/sekinelabo/g16/l202.exe)
                          Input orientation:                          
 ---------------------------------------------------------------------
 Center     Atomic      Atomic             Coordinates (Angstroms)
 Number     Number       Type             X           Y           Z
 ---------------------------------------------------------------------
      1         11           0       10.258400    9.697340   11.428500
      2         11           0       10.778600   12.704200   12.741200
      3         11           0       13.183600    9.475140   14.511900
      4         11           0       13.767100   13.284400   14.439300
      5         11           0       13.502400   11.595400   11.298700
      6         11           0       12.591400   15.073600   10.959200
      7         11           0       10.702500   12.953700    9.405090
 ---------------------------------------------------------------------
                    Distance matrix (angstroms):
                    1          2          3          4          5
     1  Na   0.000000
     2  Na   3.321897   0.000000
     3  Na   4.255999   4.398435   0.000000
     4  Na   5.851743   3.485873   3.854375   0.000000
     5  Na   3.760720   3.275566   3.862873   3.575773   0.000000
     6  Na   5.879396   3.475029   6.656961   4.085903   3.611517
     7  Na   3.859442   3.346292   6.658509   5.902915   3.642826
                    6          7
     6  Na   0.000000
     7  Na   3.236847   0.000000
 Stoichiometry    Na7(2)
 Framework group  C1[X(Na7)]
 Deg. of freedom    15
 Full point group                 C1      NOp   1
 Largest Abelian subgroup         C1      NOp   1
 Largest concise Abelian subgroup C1      NOp   1
                         Standard orientation:                         
 ---------------------------------------------------------------------
 Center     Atomic      Atomic             Coordinates (Angstroms)
 Number     Number       Type             X           Y           Z
 ---------------------------------------------------------------------
      1         11           0        0.526791    3.061146   -0.292051
      2         11           0       -0.300248    0.102900   -1.556878
      3         11           0        3.703505    0.282224    0.255313
      4         11           0        1.388715   -2.725422   -0.417007
      5         11           0        0.135937   -0.115772    1.682143
      6         11           0       -2.579439   -1.913604    0.120865
      7         11           0       -2.875261    1.308529    0.207616
 ---------------------------------------------------------------------
 Rotational constants (GHZ):           0.7875782           0.6008389           0.4129962
 Leave Link  202 at Thu Dec  7 10:06:14 2023, MaxMem=  1879048192 cpu:               0.0 elap:               0.0
 (Enter /home/sekinelabo/g16/l301.exe)
 Standard basis: 6-311+G(d) (5D, 7F)
 Ernie: Thresh=  0.10000D-02 Tol=  0.10000D-05 Strict=F.
 There are   217 symmetry adapted cartesian basis functions of A   symmetry.
 There are   210 symmetry adapted basis functions of A   symmetry.
   210 basis functions,   350 primitive gaussians,   217 cartesian basis functions
    39 alpha electrons       38 beta electrons
       nuclear repulsion energy       331.7407314977 Hartrees.
 IExCor=  402 DFT=T Ex+Corr=B3LYP ExCW=0 ScaHFX=  0.200000
 ScaDFX=  0.800000  0.720000  1.000000  0.810000 ScalE2=  1.000000  1.000000
 IRadAn=      5 IRanWt=     -1 IRanGd=            0 ICorTp=0 IEmpDi=  4
 NAtoms=    7 NActive=    7 NUniq=    7 SFac= 1.00D+00 NAtFMM=   60 NAOKFM=F Big=F
 Integral buffers will be    131072 words long.
 Raffenetti 2 integral format.
 Two-electron integral symmetry is turned on.
 Leave Link  301 at Thu Dec  7 10:06:14 2023, MaxMem=  1879048192 cpu:               0.5 elap:               0.0
 (Enter /home/sekinelabo/g16/l302.exe)
 NPDir=0 NMtPBC=     1 NCelOv=     1 NCel=       1 NClECP=     1 NCelD=      1
         NCelK=      1 NCelE2=     1 NClLst=     1 CellRange=     0.0.
 One-electron integrals computed using PRISM.
 One-electron integral symmetry used in STVInt
 NBasis=   210 RedAO= T EigKep=  6.03D-06  NBF=   210
 NBsUse=   210 1.00D-06 EigRej= -1.00D+00 NBFU=   210
 Precomputing XC quadrature grid using
 IXCGrd= 4 IRadAn=           5 IRanWt=          -1 IRanGd=           0 AccXCQ= 0.00D+00.
 Generated NRdTot=       0 NPtTot=           0 NUsed=           0 NTot=          32
 NSgBfM=   211   211   211   211   211 MxSgAt=     7 MxSgA2=     7.
 Leave Link  302 at Thu Dec  7 10:06:14 2023, MaxMem=  1879048192 cpu:               2.0 elap:               0.1
 (Enter /home/sekinelabo/g16/l303.exe)
 DipDrv:  MaxL=1.
 Leave Link  303 at Thu Dec  7 10:06:15 2023, MaxMem=  1879048192 cpu:               0.5 elap:               0.0
 (Enter /home/sekinelabo/g16/l401.exe)
 ExpMin= 7.60D-03 ExpMax= 3.62D+04 ExpMxC= 1.21D+03 IAcc=3 IRadAn=         5 AccDes= 0.00D+00
 Harris functional with IExCor=  402 and IRadAn=       5 diagonalized for initial guess.
 HarFok:  IExCor=  402 AccDes= 0.00D+00 IRadAn=         5 IDoV= 1 UseB2=F ITyADJ=14
 ICtDFT=  3500011 ScaDFX=  1.000000  1.000000  1.000000  1.000000
 FoFCou: FMM=F IPFlag=           0 FMFlag=      100000 FMFlg1=           0
         NFxFlg=           0 DoJE=T BraDBF=F KetDBF=T FulRan=T
         wScrn=  0.000000 ICntrl=       500 IOpCl=  0 I1Cent=   200000004 NGrid=           0
         NMat0=    1 NMatS0=      1 NMatT0=    0 NMatD0=    1 NMtDS0=    0 NMtDT0=    0
 Petite list used in FoFCou.
 Harris En= -1135.90225589433    
 JPrj=0 DoOrth=F DoCkMO=F.
 Initial guess <Sx>= 0.0000 <Sy>= 0.0000 <Sz>= 0.5000 <S**2>= 0.7500 S= 0.5000
 Leave Link  401 at Thu Dec  7 10:06:15 2023, MaxMem=  1879048192 cpu:               4.3 elap:               0.3
 (Enter /home/sekinelabo/g16/l502.exe)
 Keep R1 and R2 ints in memory in canonical form, NReq=506573321.
 FoFCou: FMM=F IPFlag=           0 FMFlag=           0 FMFlg1=           0
         NFxFlg=           0 DoJE=F BraDBF=F KetDBF=F FulRan=T
         wScrn=  0.000000 ICntrl=       600 IOpCl=  0 I1Cent=           0 NGrid=           0
         NMat0=    1 NMatS0=  22155 NMatT0=    0 NMatD0=    1 NMtDS0=    0 NMtDT0=    0
 Symmetry not used in FoFCou.
 Two-electron integral symmetry not used.
 UHF open shell SCF:
 Using DIIS extrapolation, IDIIS=  1040.
 NGot=  1879048192 LenX=  1388082579 LenY=  1388035049
 Requested convergence on RMS density matrix=1.00D-08 within 128 cycles.
 Requested convergence on MAX density matrix=1.00D-06.
 Requested convergence on             energy=1.00D-06.
 No special actions if energy rises.

 Cycle   1  Pass 1  IDiag  1:
 E= -1136.08899354364    
 DIIS: error= 1.28D-02 at cycle   1 NSaved=   1.
 NSaved= 1 IEnMin= 1 EnMin= -1136.08899354364     IErMin= 1 ErrMin= 1.28D-02
 ErrMax= 1.28D-02  0.00D+00 EMaxC= 1.00D-01 BMatC= 1.98D-01 BMatP= 1.98D-01
 IDIUse=3 WtCom= 8.72D-01 WtEn= 1.28D-01
 Coeff-Com:  0.100D+01
 Coeff-En:   0.100D+01
 Coeff:      0.100D+01
 Gap=     0.017 Goal=   None    Shift=    0.000
 Gap=     0.057 Goal=   None    Shift=    0.000
 GapD=    0.017 DampG=0.250 DampE=0.500 DampFc=0.2500 IDamp=-1.
 Damping current iteration by 2.50D-01
 RMSDP=2.13D-02 MaxDP=1.32D+00              OVMax= 3.02D-01

 Cycle   2  Pass 1  IDiag  1:
 E= -1136.10356780983     Delta-E=       -0.014574266183 Rises=F Damp=T
 DIIS: error= 8.88D-03 at cycle   2 NSaved=   2.
 NSaved= 2 IEnMin= 2 EnMin= -1136.10356780983     IErMin= 2 ErrMin= 8.88D-03
 ErrMax= 8.88D-03  0.00D+00 EMaxC= 1.00D-01 BMatC= 7.38D-02 BMatP= 1.98D-01
 IDIUse=3 WtCom= 9.11D-01 WtEn= 8.88D-02
 Coeff-Com: -0.120D+01 0.220D+01
 Coeff-En:   0.000D+00 0.100D+01
 Coeff:     -0.109D+01 0.209D+01
 Gap=     0.038 Goal=   None    Shift=    0.000
 Gap=     0.058 Goal=   None    Shift=    0.000
 RMSDP=1.61D-02 MaxDP=1.74D+00 DE=-1.46D-02 OVMax= 3.08D-01

 Cycle   3  Pass 1  IDiag  1:
 E= -1136.11671707778     Delta-E=       -0.013149267950 Rises=F Damp=F
 DIIS: error= 6.18D-03 at cycle   3 NSaved=   3.
 NSaved= 3 IEnMin= 3 EnMin= -1136.11671707778     IErMin= 3 ErrMin= 6.18D-03
 ErrMax= 6.18D-03  0.00D+00 EMaxC= 1.00D-01 BMatC= 1.21D-02 BMatP= 7.38D-02
 IDIUse=3 WtCom= 9.38D-01 WtEn= 6.18D-02
 Coeff-Com: -0.503D+00 0.894D+00 0.610D+00
 Coeff-En:   0.000D+00 0.000D+00 0.100D+01
 Coeff:     -0.472D+00 0.838D+00 0.634D+00
 Gap=     0.032 Goal=   None    Shift=    0.000
 Gap=     0.057 Goal=   None    Shift=    0.000
 RMSDP=8.39D-03 MaxDP=1.27D+00 DE=-1.31D-02 OVMax= 2.40D-01

 Cycle   4  Pass 1  IDiag  1:
 E= -1136.11411535027     Delta-E=        0.002601727507 Rises=F Damp=F
 DIIS: error= 7.57D-03 at cycle   4 NSaved=   4.
 NSaved= 4 IEnMin= 3 EnMin= -1136.11671707778     IErMin= 3 ErrMin= 6.18D-03
 ErrMax= 7.57D-03  0.00D+00 EMaxC= 1.00D-01 BMatC= 1.28D-02 BMatP= 1.21D-02
 IDIUse=3 WtCom= 9.24D-01 WtEn= 7.57D-02
 Coeff-Com: -0.461D-01 0.811D-01 0.497D+00 0.468D+00
 Coeff-En:   0.000D+00 0.000D+00 0.530D+00 0.470D+00
 Coeff:     -0.426D-01 0.750D-01 0.500D+00 0.468D+00
 Gap=     0.034 Goal=   None    Shift=    0.000
 Gap=     0.052 Goal=   None    Shift=    0.000
 RMSDP=2.90D-03 MaxDP=2.42D-01 DE= 2.60D-03 OVMax= 1.48D-01

 Cycle   5  Pass 1  IDiag  1:
 E= -1136.13031695578     Delta-E=       -0.016201605511 Rises=F Damp=F
 DIIS: error= 1.25D-03 at cycle   5 NSaved=   5.
 NSaved= 5 IEnMin= 5 EnMin= -1136.13031695578     IErMin= 5 ErrMin= 1.25D-03
 ErrMax= 1.25D-03  0.00D+00 EMaxC= 1.00D-01 BMatC= 6.66D-04 BMatP= 1.21D-02
 IDIUse=3 WtCom= 9.88D-01 WtEn= 1.25D-02
 Coeff-Com: -0.465D-02 0.533D-02 0.246D+00 0.269D+00 0.484D+00
 Coeff-En:   0.000D+00 0.000D+00 0.000D+00 0.000D+00 0.100D+01
 Coeff:     -0.459D-02 0.526D-02 0.243D+00 0.266D+00 0.490D+00
 Gap=     0.035 Goal=   None    Shift=    0.000
 Gap=     0.053 Goal=   None    Shift=    0.000
 RMSDP=8.76D-04 MaxDP=4.51D-02 DE=-1.62D-02 OVMax= 2.88D-02

 Cycle   6  Pass 1  IDiag  1:
 E= -1136.13098985403     Delta-E=       -0.000672898253 Rises=F Damp=F
 DIIS: error= 2.66D-04 at cycle   6 NSaved=   6.
 NSaved= 6 IEnMin= 6 EnMin= -1136.13098985403     IErMin= 6 ErrMin= 2.66D-04
 ErrMax= 2.66D-04  0.00D+00 EMaxC= 1.00D-01 BMatC= 2.52D-05 BMatP= 6.66D-04
 IDIUse=3 WtCom= 9.97D-01 WtEn= 2.66D-03
 Coeff-Com: -0.317D-02 0.375D-02-0.188D-01-0.255D-01 0.130D+00 0.914D+00
 Coeff-En:   0.000D+00 0.000D+00 0.000D+00 0.000D+00 0.000D+00 0.100D+01
 Coeff:     -0.316D-02 0.374D-02-0.187D-01-0.255D-01 0.130D+00 0.914D+00
 Gap=     0.035 Goal=   None    Shift=    0.000
 Gap=     0.053 Goal=   None    Shift=    0.000
 RMSDP=5.67D-04 MaxDP=1.03D-01 DE=-6.73D-04 OVMax= 7.38D-03

 Cycle   7  Pass 1  IDiag  1:
 E= -1136.13102333796     Delta-E=       -0.000033483928 Rises=F Damp=F
 DIIS: error= 7.09D-05 at cycle   7 NSaved=   7.
 NSaved= 7 IEnMin= 7 EnMin= -1136.13102333796     IErMin= 7 ErrMin= 7.09D-05
 ErrMax= 7.09D-05  0.00D+00 EMaxC= 1.00D-01 BMatC= 1.12D-06 BMatP= 2.52D-05
 IDIUse=1 WtCom= 1.00D+00 WtEn= 0.00D+00
 Coeff-Com: -0.266D-03 0.147D-03-0.108D-01-0.147D-01 0.337D-01 0.312D+00
 Coeff-Com:  0.680D+00
 Coeff:     -0.266D-03 0.147D-03-0.108D-01-0.147D-01 0.337D-01 0.312D+00
 Coeff:      0.680D+00
 Gap=     0.035 Goal=   None    Shift=    0.000
 Gap=     0.053 Goal=   None    Shift=    0.000
 RMSDP=1.49D-04 MaxDP=2.06D-02 DE=-3.35D-05 OVMax= 1.89D-03

 Cycle   8  Pass 1  IDiag  1:
 E= -1136.13102510571     Delta-E=       -0.000001767743 Rises=F Damp=F
 DIIS: error= 4.39D-05 at cycle   8 NSaved=   8.
 NSaved= 8 IEnMin= 8 EnMin= -1136.13102510571     IErMin= 8 ErrMin= 4.39D-05
 ErrMax= 4.39D-05  0.00D+00 EMaxC= 1.00D-01 BMatC= 5.12D-07 BMatP= 1.12D-06
 IDIUse=1 WtCom= 1.00D+00 WtEn= 0.00D+00
 Coeff-Com:  0.879D-03-0.122D-02-0.237D-02-0.255D-02-0.157D-01-0.594D-01
 Coeff-Com:  0.396D+00 0.685D+00
 Coeff:      0.879D-03-0.122D-02-0.237D-02-0.255D-02-0.157D-01-0.594D-01
 Coeff:      0.396D+00 0.685D+00
 Gap=     0.036 Goal=   None    Shift=    0.000
 Gap=     0.053 Goal=   None    Shift=    0.000
 RMSDP=8.36D-05 MaxDP=1.05D-02 DE=-1.77D-06 OVMax= 2.42D-03

 Cycle   9  Pass 1  IDiag  1:
 E= -1136.13102630919     Delta-E=       -0.000001203480 Rises=F Damp=F
 DIIS: error= 2.12D-05 at cycle   9 NSaved=   9.
 NSaved= 9 IEnMin= 9 EnMin= -1136.13102630919     IErMin= 9 ErrMin= 2.12D-05
 ErrMax= 2.12D-05  0.00D+00 EMaxC= 1.00D-01 BMatC= 1.36D-07 BMatP= 5.12D-07
 IDIUse=1 WtCom= 1.00D+00 WtEn= 0.00D+00
 Coeff-Com:  0.387D-03-0.502D-03 0.327D-03 0.133D-02-0.133D-01-0.799D-01
 Coeff-Com:  0.108D-01 0.341D+00 0.740D+00
 Coeff:      0.387D-03-0.502D-03 0.327D-03 0.133D-02-0.133D-01-0.799D-01
 Coeff:      0.108D-01 0.341D+00 0.740D+00
 Gap=     0.036 Goal=   None    Shift=    0.000
 Gap=     0.053 Goal=   None    Shift=    0.000
 RMSDP=5.88D-05 MaxDP=5.60D-03 DE=-1.20D-06 OVMax= 1.96D-03

 Cycle  10  Pass 1  IDiag  1:
 E= -1136.13102680007     Delta-E=       -0.000000490889 Rises=F Damp=F
 DIIS: error= 1.48D-05 at cycle  10 NSaved=  10.
 NSaved=10 IEnMin=10 EnMin= -1136.13102680007     IErMin=10 ErrMin= 1.48D-05
 ErrMax= 1.48D-05  0.00D+00 EMaxC= 1.00D-01 BMatC= 6.19D-08 BMatP= 1.36D-07
 IDIUse=1 WtCom= 1.00D+00 WtEn= 0.00D+00
 Coeff-Com:  0.693D-04-0.706D-04 0.840D-03 0.128D-02-0.445D-02-0.309D-01
 Coeff-Com: -0.115D+00 0.248D-01 0.455D+00 0.669D+00
 Coeff:      0.693D-04-0.706D-04 0.840D-03 0.128D-02-0.445D-02-0.309D-01
 Coeff:     -0.115D+00 0.248D-01 0.455D+00 0.669D+00
 Gap=     0.036 Goal=   None    Shift=    0.000
 Gap=     0.054 Goal=   None    Shift=    0.000
 RMSDP=5.78D-05 MaxDP=9.28D-03 DE=-4.91D-07 OVMax= 1.35D-03

 Cycle  11  Pass 1  IDiag  1:
 E= -1136.13102704394     Delta-E=       -0.000000243865 Rises=F Damp=F
 DIIS: error= 8.13D-06 at cycle  11 NSaved=  11.
 NSaved=11 IEnMin=11 EnMin= -1136.13102704394     IErMin=11 ErrMin= 8.13D-06
 ErrMax= 8.13D-06  0.00D+00 EMaxC= 1.00D-01 BMatC= 1.67D-08 BMatP= 6.19D-08
 IDIUse=1 WtCom= 1.00D+00 WtEn= 0.00D+00
 Coeff-Com:  0.935D-05-0.673D-05 0.726D-03 0.158D-04 0.283D-02 0.180D-01
 Coeff-Com: -0.779D-01-0.133D+00-0.138D+00 0.218D+00 0.111D+01
 Coeff:      0.935D-05-0.673D-05 0.726D-03 0.158D-04 0.283D-02 0.180D-01
 Coeff:     -0.779D-01-0.133D+00-0.138D+00 0.218D+00 0.111D+01
 Gap=     0.036 Goal=   None    Shift=    0.000
 Gap=     0.054 Goal=   None    Shift=    0.000
 RMSDP=7.43D-05 MaxDP=1.01D-02 DE=-2.44D-07 OVMax= 1.77D-03

 Cycle  12  Pass 1  IDiag  1:
 E= -1136.13102720452     Delta-E=       -0.000000160576 Rises=F Damp=F
 DIIS: error= 3.35D-06 at cycle  12 NSaved=  12.
 NSaved=12 IEnMin=12 EnMin= -1136.13102720452     IErMin=12 ErrMin= 3.35D-06
 ErrMax= 3.35D-06  0.00D+00 EMaxC= 1.00D-01 BMatC= 3.67D-09 BMatP= 1.67D-08
 IDIUse=1 WtCom= 1.00D+00 WtEn= 0.00D+00
 Coeff-Com: -0.429D-04 0.544D-04 0.612D-04-0.370D-03 0.306D-02 0.191D-01
 Coeff-Com: -0.213D-01-0.557D-01-0.104D+00-0.698D-01 0.271D+00 0.958D+00
 Coeff:     -0.429D-04 0.544D-04 0.612D-04-0.370D-03 0.306D-02 0.191D-01
 Coeff:     -0.213D-01-0.557D-01-0.104D+00-0.698D-01 0.271D+00 0.958D+00
 Gap=     0.036 Goal=   None    Shift=    0.000
 Gap=     0.054 Goal=   None    Shift=    0.000
 RMSDP=4.29D-05 MaxDP=6.58D-03 DE=-1.61D-07 OVMax= 8.41D-04

 Cycle  13  Pass 1  IDiag  1:
 E= -1136.13102723844     Delta-E=       -0.000000033920 Rises=F Damp=F
 DIIS: error= 1.57D-06 at cycle  13 NSaved=  13.
 NSaved=13 IEnMin=13 EnMin= -1136.13102723844     IErMin=13 ErrMin= 1.57D-06
 ErrMax= 1.57D-06  0.00D+00 EMaxC= 1.00D-01 BMatC= 9.23D-10 BMatP= 3.67D-09
 IDIUse=1 WtCom= 1.00D+00 WtEn= 0.00D+00
 Coeff-Com:  0.437D-05-0.100D-04-0.207D-03-0.159D-03-0.171D-04-0.120D-03
 Coeff-Com:  0.182D-01 0.324D-01 0.167D-01-0.110D+00-0.313D+00 0.281D+00
 Coeff-Com:  0.108D+01
 Coeff:      0.437D-05-0.100D-04-0.207D-03-0.159D-03-0.171D-04-0.120D-03
 Coeff:      0.182D-01 0.324D-01 0.167D-01-0.110D+00-0.313D+00 0.281D+00
 Coeff:      0.108D+01
 Gap=     0.036 Goal=   None    Shift=    0.000
 Gap=     0.054 Goal=   None    Shift=    0.000
 RMSDP=2.91D-05 MaxDP=4.45D-03 DE=-3.39D-08 OVMax= 5.57D-04

 Cycle  14  Pass 1  IDiag  1:
 E= -1136.13102724786     Delta-E=       -0.000000009424 Rises=F Damp=F
 DIIS: error= 7.50D-07 at cycle  14 NSaved=  14.
 NSaved=14 IEnMin=14 EnMin= -1136.13102724786     IErMin=14 ErrMin= 7.50D-07
 ErrMax= 7.50D-07  0.00D+00 EMaxC= 1.00D-01 BMatC= 8.63D-11 BMatP= 9.23D-10
 IDIUse=1 WtCom= 1.00D+00 WtEn= 0.00D+00
 Coeff-Com:  0.272D-05-0.352D-05-0.498D-04 0.260D-04-0.340D-03-0.167D-02
 Coeff-Com: -0.590D-04 0.381D-02 0.125D-01 0.136D-01-0.689D-02-0.132D+00
 Coeff-Com: -0.108D+00 0.122D+01
 Coeff:      0.272D-05-0.352D-05-0.498D-04 0.260D-04-0.340D-03-0.167D-02
 Coeff:     -0.590D-04 0.381D-02 0.125D-01 0.136D-01-0.689D-02-0.132D+00
 Coeff:     -0.108D+00 0.122D+01
 Gap=     0.036 Goal=   None    Shift=    0.000
 Gap=     0.054 Goal=   None    Shift=    0.000
 RMSDP=6.57D-06 MaxDP=1.10D-03 DE=-9.42D-09 OVMax= 1.27D-04

 Cycle  15  Pass 1  IDiag  1:
 E= -1136.13102724882     Delta-E=       -0.000000000963 Rises=F Damp=F
 DIIS: error= 3.87D-07 at cycle  15 NSaved=  15.
 NSaved=15 IEnMin=15 EnMin= -1136.13102724882     IErMin=15 ErrMin= 3.87D-07
 ErrMax= 3.87D-07  0.00D+00 EMaxC= 1.00D-01 BMatC= 2.03D-11 BMatP= 8.63D-11
 IDIUse=1 WtCom= 1.00D+00 WtEn= 0.00D+00
 Coeff-Com:  0.164D-05-0.146D-05 0.616D-04 0.246D-04 0.648D-04 0.271D-03
 Coeff-Com: -0.317D-02-0.744D-02-0.999D-02 0.190D-01 0.749D-01-0.266D-01
 Coeff-Com: -0.189D+00-0.282D+00 0.142D+01
 Coeff:      0.164D-05-0.146D-05 0.616D-04 0.246D-04 0.648D-04 0.271D-03
 Coeff:     -0.317D-02-0.744D-02-0.999D-02 0.190D-01 0.749D-01-0.266D-01
 Coeff:     -0.189D+00-0.282D+00 0.142D+01
 Gap=     0.036 Goal=   None    Shift=    0.000
 Gap=     0.054 Goal=   None    Shift=    0.000
 RMSDP=1.37D-06 MaxDP=1.58D-04 DE=-9.63D-10 OVMax= 4.68D-05

 Cycle  16  Pass 1  IDiag  1:
 E= -1136.13102724909     Delta-E=       -0.000000000269 Rises=F Damp=F
 DIIS: error= 1.61D-07 at cycle  16 NSaved=  16.
 NSaved=16 IEnMin=16 EnMin= -1136.13102724909     IErMin=16 ErrMin= 1.61D-07
 ErrMax= 1.61D-07  0.00D+00 EMaxC= 1.00D-01 BMatC= 4.73D-12 BMatP= 2.03D-11
 IDIUse=1 WtCom= 1.00D+00 WtEn= 0.00D+00
 Coeff-Com: -0.231D-05 0.293D-05-0.537D-06-0.648D-05 0.591D-04 0.308D-03
 Coeff-Com:  0.118D-02 0.169D-02 0.161D-02-0.945D-02-0.285D-01 0.408D-01
 Coeff-Com:  0.102D+00-0.241D+00-0.370D+00 0.150D+01
 Coeff:     -0.231D-05 0.293D-05-0.537D-06-0.648D-05 0.591D-04 0.308D-03
 Coeff:      0.118D-02 0.169D-02 0.161D-02-0.945D-02-0.285D-01 0.408D-01
 Coeff:      0.102D+00-0.241D+00-0.370D+00 0.150D+01
 Gap=     0.036 Goal=   None    Shift=    0.000
 Gap=     0.054 Goal=   None    Shift=    0.000
 RMSDP=7.06D-07 MaxDP=6.92D-05 DE=-2.69D-10 OVMax= 2.68D-05

 Cycle  17  Pass 1  IDiag  1:
 E= -1136.13102724915     Delta-E=       -0.000000000054 Rises=F Damp=F
 DIIS: error= 5.71D-08 at cycle  17 NSaved=  17.
 NSaved=17 IEnMin=17 EnMin= -1136.13102724915     IErMin=17 ErrMin= 5.71D-08
 ErrMax= 5.71D-08  0.00D+00 EMaxC= 1.00D-01 BMatC= 8.92D-13 BMatP= 4.73D-12
 IDIUse=1 WtCom= 1.00D+00 WtEn= 0.00D+00
 Coeff-Com: -0.487D-06 0.468D-06-0.958D-05-0.555D-05 0.656D-05 0.516D-04
 Coeff-Com:  0.544D-03 0.955D-03 0.126D-02-0.394D-02-0.126D-01 0.113D-01
 Coeff-Com:  0.349D-01 0.105D-01-0.278D+00 0.239D+00 0.996D+00
 Coeff:     -0.487D-06 0.468D-06-0.958D-05-0.555D-05 0.656D-05 0.516D-04
 Coeff:      0.544D-03 0.955D-03 0.126D-02-0.394D-02-0.126D-01 0.113D-01
 Coeff:      0.349D-01 0.105D-01-0.278D+00 0.239D+00 0.996D+00
 Gap=     0.036 Goal=   None    Shift=    0.000
 Gap=     0.054 Goal=   None    Shift=    0.000
 RMSDP=2.38D-07 MaxDP=2.73D-05 DE=-5.37D-11 OVMax= 7.60D-06

 Cycle  18  Pass 1  IDiag  1:
 E= -1136.13102724915     Delta-E=       -0.000000000002 Rises=F Damp=F
 DIIS: error= 2.83D-08 at cycle  18 NSaved=  18.
 NSaved=18 IEnMin=18 EnMin= -1136.13102724915     IErMin=18 ErrMin= 2.83D-08
 ErrMax= 2.83D-08  0.00D+00 EMaxC= 1.00D-01 BMatC= 2.12D-13 BMatP= 8.92D-13
 IDIUse=1 WtCom= 1.00D+00 WtEn= 0.00D+00
 Coeff-Com:  0.503D-06-0.670D-06-0.317D-05 0.708D-06-0.199D-04-0.104D-03
 Coeff-Com: -0.190D-03 0.528D-04 0.448D-03 0.139D-02 0.214D-02-0.883D-02
 Coeff-Com: -0.135D-01 0.782D-01 0.135D-02-0.333D+00 0.223D+00 0.105D+01
 Coeff:      0.503D-06-0.670D-06-0.317D-05 0.708D-06-0.199D-04-0.104D-03
 Coeff:     -0.190D-03 0.528D-04 0.448D-03 0.139D-02 0.214D-02-0.883D-02
 Coeff:     -0.135D-01 0.782D-01 0.135D-02-0.333D+00 0.223D+00 0.105D+01
 Gap=     0.036 Goal=   None    Shift=    0.000
 Gap=     0.054 Goal=   None    Shift=    0.000
 RMSDP=1.34D-07 MaxDP=1.72D-05 DE=-2.05D-12 OVMax= 3.72D-06

 Cycle  19  Pass 1  IDiag  1:
 E= -1136.13102724915     Delta-E=       -0.000000000001 Rises=F Damp=F
 DIIS: error= 1.34D-08 at cycle  19 NSaved=  19.
 NSaved=19 IEnMin=19 EnMin= -1136.13102724915     IErMin=19 ErrMin= 1.34D-08
 ErrMax= 1.34D-08  0.00D+00 EMaxC= 1.00D-01 BMatC= 2.47D-14 BMatP= 2.12D-13
 IDIUse=1 WtCom= 1.00D+00 WtEn= 0.00D+00
 Coeff-Com:  0.102D-07 0.437D-08 0.799D-06 0.348D-06 0.924D-06 0.118D-04
 Coeff-Com:  0.313D-04-0.103D-03-0.305D-03 0.138D-03 0.893D-03 0.142D-03
 Coeff-Com: -0.186D-02-0.136D-01 0.280D-01 0.476D-01-0.187D+00-0.216D+00
 Coeff-Com:  0.134D+01
 Coeff:      0.102D-07 0.437D-08 0.799D-06 0.348D-06 0.924D-06 0.118D-04
 Coeff:      0.313D-04-0.103D-03-0.305D-03 0.138D-03 0.893D-03 0.142D-03
 Coeff:     -0.186D-02-0.136D-01 0.280D-01 0.476D-01-0.187D+00-0.216D+00
 Coeff:      0.134D+01
 Gap=     0.036 Goal=   None    Shift=    0.000
 Gap=     0.054 Goal=   None    Shift=    0.000
 RMSDP=5.20D-08 MaxDP=6.04D-06 DE=-9.09D-13 OVMax= 1.05D-06

 Cycle  20  Pass 1  IDiag  1:
 E= -1136.13102724915     Delta-E=       -0.000000000005 Rises=F Damp=F
 DIIS: error= 4.08D-09 at cycle  20 NSaved=  20.
 NSaved=20 IEnMin=20 EnMin= -1136.13102724915     IErMin=20 ErrMin= 4.08D-09
 ErrMax= 4.08D-09  0.00D+00 EMaxC= 1.00D-01 BMatC= 3.59D-15 BMatP= 2.47D-14
 IDIUse=1 WtCom= 1.00D+00 WtEn= 0.00D+00
 Large coefficients: NSaved= 20 BigCof=    0.00 CofMax=   10.00 Det=-2.63D-15
 Inversion failed.  Reducing to 19 matrices.
 Large coefficients: NSaved= 19 BigCof=    0.00 CofMax=   10.00 Det=-2.66D-15
 Inversion failed.  Reducing to 18 matrices.
 Large coefficients: NSaved= 18 BigCof=    0.00 CofMax=   10.00 Det=-2.70D-15
 Inversion failed.  Reducing to 17 matrices.
 Large coefficients: NSaved= 17 BigCof=    0.00 CofMax=   10.00 Det=-2.70D-15
 Inversion failed.  Reducing to 16 matrices.
 Large coefficients: NSaved= 16 BigCof=    0.00 CofMax=   10.00 Det=-2.84D-15
 Inversion failed.  Reducing to 15 matrices.
 Coeff-Com: -0.559D-05 0.281D-04 0.449D-04 0.846D-04-0.130D-03-0.572D-03
 Coeff-Com:  0.537D-03 0.225D-02-0.344D-02-0.791D-02 0.200D-01 0.296D-01
 Coeff-Com: -0.789D-01-0.287D+00 0.133D+01
 Coeff:     -0.559D-05 0.281D-04 0.449D-04 0.846D-04-0.130D-03-0.572D-03
 Coeff:      0.537D-03 0.225D-02-0.344D-02-0.791D-02 0.200D-01 0.296D-01
 Coeff:     -0.789D-01-0.287D+00 0.133D+01
 Gap=     0.036 Goal=   None    Shift=    0.000
 Gap=     0.054 Goal=   None    Shift=    0.000
 RMSDP=3.97D-08 MaxDP=6.22D-06 DE=-5.23D-12 OVMax= 5.36D-07

 Cycle  21  Pass 1  IDiag  1:
 E= -1136.13102724915     Delta-E=        0.000000000001 Rises=F Damp=F
 DIIS: error= 1.92D-09 at cycle  21 NSaved=  16.
 NSaved=16 IEnMin=15 EnMin= -1136.13102724915     IErMin=16 ErrMin= 1.92D-09
 ErrMax= 1.92D-09  0.00D+00 EMaxC= 1.00D-01 BMatC= 7.37D-16 BMatP= 3.59D-15
 IDIUse=1 WtCom= 1.00D+00 WtEn= 0.00D+00
 Large coefficients: NSaved= 16 BigCof=    0.00 CofMax=   10.00 Det=-8.50D-16
 Inversion failed.  Reducing to 15 matrices.
 Coeff-Com: -0.247D-05 0.957D-05 0.234D-04-0.938D-05-0.943D-04-0.195D-04
 Coeff-Com:  0.165D-03 0.223D-02-0.512D-02-0.489D-02 0.282D-01 0.351D-01
 Coeff-Com: -0.242D+00-0.382D-01 0.122D+01
 Coeff:     -0.247D-05 0.957D-05 0.234D-04-0.938D-05-0.943D-04-0.195D-04
 Coeff:      0.165D-03 0.223D-02-0.512D-02-0.489D-02 0.282D-01 0.351D-01
 Coeff:     -0.242D+00-0.382D-01 0.122D+01
 Gap=     0.036 Goal=   None    Shift=    0.000
 Gap=     0.054 Goal=   None    Shift=    0.000
 RMSDP=1.52D-08 MaxDP=2.49D-06 DE= 9.09D-13 OVMax= 2.35D-07

 Cycle  22  Pass 1  IDiag  1:
 E= -1136.13102724916     Delta-E=       -0.000000000010 Rises=F Damp=F
 DIIS: error= 1.32D-09 at cycle  22 NSaved=  16.
 NSaved=16 IEnMin=16 EnMin= -1136.13102724916     IErMin=16 ErrMin= 1.32D-09
 ErrMax= 1.32D-09  0.00D+00 EMaxC= 1.00D-01 BMatC= 2.45D-16 BMatP= 7.37D-16
 IDIUse=1 WtCom= 1.00D+00 WtEn= 0.00D+00
 Large coefficients: NSaved= 16 BigCof=    0.00 CofMax=   10.00 Det=-3.88D-16
 Inversion failed.  Reducing to 15 matrices.
 Coeff-Com:  0.608D-05 0.986D-06-0.207D-04-0.397D-04 0.873D-04 0.110D-03
 Coeff-Com:  0.303D-03-0.105D-02-0.279D-02 0.874D-02 0.225D-01-0.867D-01
 Coeff-Com: -0.153D+00 0.462D+00 0.750D+00
 Coeff:      0.608D-05 0.986D-06-0.207D-04-0.397D-04 0.873D-04 0.110D-03
 Coeff:      0.303D-03-0.105D-02-0.279D-02 0.874D-02 0.225D-01-0.867D-01
 Coeff:     -0.153D+00 0.462D+00 0.750D+00
 Gap=     0.036 Goal=   None    Shift=    0.000
 Gap=     0.054 Goal=   None    Shift=    0.000
 RMSDP=7.43D-09 MaxDP=9.63D-07 DE=-9.55D-12 OVMax= 9.35D-08

 SCF Done:  E(UB3LYP) =  -1136.13102725     A.U. after   22 cycles
            NFock= 22  Conv=0.74D-08     -V/T= 2.0029
 <Sx>= 0.0000 <Sy>= 0.0000 <Sz>= 0.5000 <S**2>= 0.7612 S= 0.5056
 <L.S>= 0.000000000000E+00
 KE= 1.132854411583D+03 PE=-3.392861412461D+03 EE= 7.921352421309D+02
 Annihilation of the first spin contaminant:
 S**2 before annihilation     0.7612,   after     0.7501
 Leave Link  502 at Thu Dec  7 10:06:33 2023, MaxMem=  1879048192 cpu:             200.5 elap:              17.8
 (Enter /home/sekinelabo/g16/l601.exe)
 Copying SCF densities to generalized density rwf, IOpCl= 1 IROHF=0.

 **********************************************************************

            Population analysis using the SCF Density.

 **********************************************************************

 Orbital symmetries:
 Alpha Orbitals:
       Occupied  (A) (A) (A) (A) (A) (A) (A) (A) (A) (A) (A) (A)
                 (A) (A) (A) (A) (A) (A) (A) (A) (A) (A) (A) (A)
                 (A) (A) (A) (A) (A) (A) (A) (A) (A) (A) (A) (A)
                 (A) (A) (A)
       Virtual   (A) (A) (A) (A) (A) (A) (A) (A) (A) (A) (A) (A)
                 (A) (A) (A) (A) (A) (A) (A) (A) (A) (A) (A) (A)
                 (A) (A) (A) (A) (A) (A) (A) (A) (A) (A) (A) (A)
                 (A) (A) (A) (A) (A) (A) (A) (A) (A) (A) (A) (A)
                 (A) (A) (A) (A) (A) (A) (A) (A) (A) (A) (A) (A)
                 (A) (A) (A) (A) (A) (A) (A) (A) (A) (A) (A) (A)
                 (A) (A) (A) (A) (A) (A) (A) (A) (A) (A) (A) (A)
                 (A) (A) (A) (A) (A) (A) (A) (A) (A) (A) (A) (A)
                 (A) (A) (A) (A) (A) (A) (A) (A) (A) (A) (A) (A)
                 (A) (A) (A) (A) (A) (A) (A) (A) (A) (A) (A) (A)
                 (A) (A) (A) (A) (A) (A) (A) (A) (A) (A) (A) (A)
                 (A) (A) (A) (A) (A) (A) (A) (A) (A) (A) (A) (A)
                 (A) (A) (A) (A) (A) (A) (A) (A) (A) (A) (A) (A)
                 (A) (A) (A) (A) (A) (A) (A) (A) (A) (A) (A) (A)
                 (A) (A) (A)
 Beta  Orbitals:
       Occupied  (A) (A) (A) (A) (A) (A) (A) (A) (A) (A) (A) (A)
                 (A) (A) (A) (A) (A) (A) (A) (A) (A) (A) (A) (A)
                 (A) (A) (A) (A) (A) (A) (A) (A) (A) (A) (A) (A)
                 (A) (A)
       Virtual   (A) (A) (A) (A) (A) (A) (A) (A) (A) (A) (A) (A)
                 (A) (A) (A) (A) (A) (A) (A) (A) (A) (A) (A) (A)
                 (A) (A) (A) (A) (A) (A) (A) (A) (A) (A) (A) (A)
                 (A) (A) (A) (A) (A) (A) (A) (A) (A) (A) (A) (A)
                 (A) (A) (A) (A) (A) (A) (A) (A) (A) (A) (A) (A)
                 (A) (A) (A) (A) (A) (A) (A) (A) (A) (A) (A) (A)
                 (A) (A) (A) (A) (A) (A) (A) (A) (A) (A) (A) (A)
                 (A) (A) (A) (A) (A) (A) (A) (A) (A) (A) (A) (A)
                 (A) (A) (A) (A) (A) (A) (A) (A) (A) (A) (A) (A)
                 (A) (A) (A) (A) (A) (A) (A) (A) (A) (A) (A) (A)
                 (A) (A) (A) (A) (A) (A) (A) (A) (A) (A) (A) (A)
                 (A) (A) (A) (A) (A) (A) (A) (A) (A) (A) (A) (A)
                 (A) (A) (A) (A) (A) (A) (A) (A) (A) (A) (A) (A)
                 (A) (A) (A) (A) (A) (A) (A) (A) (A) (A) (A) (A)
                 (A) (A) (A) (A)
 The electronic state is 2-A.
 Alpha  occ. eigenvalues --  -38.45099 -38.44097 -38.43840 -38.43655 -38.43631
 Alpha  occ. eigenvalues --  -38.43364 -38.42812  -2.20839  -2.19959  -2.19688
 Alpha  occ. eigenvalues --   -2.19555  -2.19439  -2.19172  -2.18794  -1.14517
 Alpha  occ. eigenvalues --   -1.14489  -1.14472  -1.13654  -1.13624  -1.13594
 Alpha  occ. eigenvalues --   -1.13358  -1.13349  -1.13323  -1.13279  -1.13193
 Alpha  occ. eigenvalues --   -1.13156  -1.13120  -1.13103  -1.13061  -1.12865
 Alpha  occ. eigenvalues --   -1.12834  -1.12801  -1.12496  -1.12424  -1.12395
 Alpha  occ. eigenvalues --   -0.18318  -0.13125  -0.12164  -0.10046
 Alpha virt. eigenvalues --   -0.06490  -0.05224  -0.04795  -0.03020  -0.02524
 Alpha virt. eigenvalues --   -0.02222  -0.01904  -0.01320  -0.00729  -0.00612
 Alpha virt. eigenvalues --   -0.00032   0.00269   0.00661   0.00771   0.00803
 Alpha virt. eigenvalues --    0.00810   0.00914   0.01232   0.01243   0.01345
 Alpha virt. eigenvalues --    0.01352   0.01420   0.01792   0.01891   0.02093
 Alpha virt. eigenvalues --    0.02166   0.02299   0.02366   0.02400   0.02788
 Alpha virt. eigenvalues --    0.02815   0.03046   0.03081   0.03142   0.03202
 Alpha virt. eigenvalues --    0.03223   0.03259   0.03302   0.03389   0.03477
 Alpha virt. eigenvalues --    0.03722   0.04045   0.04481   0.04624   0.04675
 Alpha virt. eigenvalues --    0.04757   0.05065   0.05123   0.05296   0.05299
 Alpha virt. eigenvalues --    0.06148   0.06550   0.06714   0.07367   0.07467
 Alpha virt. eigenvalues --    0.07775   0.07992   0.08102   0.08355   0.08920
 Alpha virt. eigenvalues --    0.09556   0.09687   0.09960   0.10545   0.11242
 Alpha virt. eigenvalues --    0.11711   0.11888   0.12362   0.12730   0.13056
 Alpha virt. eigenvalues --    0.13487   0.13801   0.13994   0.14722   0.15027
 Alpha virt. eigenvalues --    0.15363   0.15566   0.16135   0.16527   0.17078
 Alpha virt. eigenvalues --    0.25562   0.26666   0.26966   0.27553   0.29021
 Alpha virt. eigenvalues --    0.30736   0.31048   0.33467   0.33770   0.34088
 Alpha virt. eigenvalues --    0.34743   0.35273   0.35490   0.36043   0.38201
 Alpha virt. eigenvalues --    0.38336   0.38675   0.40086   0.41430   0.42193
 Alpha virt. eigenvalues --    0.43183   0.43507   0.43642   0.43938   0.44282
 Alpha virt. eigenvalues --    0.44630   0.44883   0.45228   0.45508   0.45678
 Alpha virt. eigenvalues --    0.46358   0.46779   0.47114   0.47679   0.48096
 Alpha virt. eigenvalues --    0.48820   0.50128   0.50342   0.50740   0.51311
 Alpha virt. eigenvalues --    0.52952   0.53512   0.54197   0.55025   0.55624
 Alpha virt. eigenvalues --    0.56560   0.58015   0.58549   0.59072   0.60348
 Alpha virt. eigenvalues --    0.62127   0.64385   0.64662   0.65583   0.65890
 Alpha virt. eigenvalues --    0.66269   2.02864   2.10240   2.14214   2.16166
 Alpha virt. eigenvalues --    2.19673   2.23207   2.27196   4.43440   4.44127
 Alpha virt. eigenvalues --    4.44697   4.44978   4.45230   4.45470   4.46137
 Alpha virt. eigenvalues --    4.46471   4.46965   4.47245   4.48299   4.49069
 Alpha virt. eigenvalues --    4.49462   4.50745   4.51480   4.52812   4.55200
 Alpha virt. eigenvalues --    4.56138   4.59672   4.60598   4.62054  96.22465
 Alpha virt. eigenvalues --   96.30686  96.35614  96.37693  96.42612  96.46088
 Alpha virt. eigenvalues --   96.51711
  Beta  occ. eigenvalues --  -38.45091 -38.44088 -38.43834 -38.43617 -38.43598
  Beta  occ. eigenvalues --  -38.43357 -38.42739  -2.20823  -2.19945  -2.19680
  Beta  occ. eigenvalues --   -2.19451  -2.19417  -2.19162  -2.18663  -1.14495
  Beta  occ. eigenvalues --   -1.14481  -1.14462  -1.13648  -1.13602  -1.13571
  Beta  occ. eigenvalues --   -1.13353  -1.13337  -1.13300  -1.13203  -1.13131
  Beta  occ. eigenvalues --   -1.13094  -1.13083  -1.13070  -1.13042  -1.12849
  Beta  occ. eigenvalues --   -1.12820  -1.12793  -1.12403  -1.12337  -1.12292
  Beta  occ. eigenvalues --   -0.17658  -0.12863  -0.11884
  Beta virt. eigenvalues --   -0.06528  -0.06139  -0.05229  -0.04727  -0.02364
  Beta virt. eigenvalues --   -0.02057  -0.01849  -0.01248  -0.01013  -0.00738
  Beta virt. eigenvalues --   -0.00619   0.00125   0.00329   0.00710   0.00809
  Beta virt. eigenvalues --    0.00839   0.00927   0.00975   0.01307   0.01358
  Beta virt. eigenvalues --    0.01469   0.01539   0.01599   0.01833   0.01910
  Beta virt. eigenvalues --    0.02113   0.02167   0.02357   0.02391   0.02486
  Beta virt. eigenvalues --    0.02798   0.02946   0.03086   0.03115   0.03188
  Beta virt. eigenvalues --    0.03217   0.03234   0.03323   0.03358   0.03544
  Beta virt. eigenvalues --    0.03596   0.03799   0.04073   0.04504   0.04684
  Beta virt. eigenvalues --    0.04760   0.05002   0.05220   0.05304   0.05483
  Beta virt. eigenvalues --    0.05558   0.06469   0.06534   0.06777   0.07370
  Beta virt. eigenvalues --    0.07513   0.07833   0.08156   0.08373   0.08520
  Beta virt. eigenvalues --    0.09106   0.09763   0.09972   0.10117   0.10568
  Beta virt. eigenvalues --    0.11328   0.11903   0.12118   0.12627   0.13128
  Beta virt. eigenvalues --    0.13222   0.13590   0.13968   0.14112   0.14829
  Beta virt. eigenvalues --    0.15097   0.15718   0.15990   0.16652   0.16979
  Beta virt. eigenvalues --    0.17614   0.25795   0.26886   0.27153   0.27707
  Beta virt. eigenvalues --    0.29388   0.31091   0.31169   0.33586   0.33967
  Beta virt. eigenvalues --    0.34350   0.35162   0.35565   0.35845   0.36160
  Beta virt. eigenvalues --    0.38439   0.38459   0.38814   0.40168   0.41461
  Beta virt. eigenvalues --    0.42575   0.43181   0.43659   0.43774   0.44045
  Beta virt. eigenvalues --    0.44328   0.44688   0.45057   0.45365   0.45656
  Beta virt. eigenvalues --    0.45935   0.46560   0.46971   0.47220   0.47837
  Beta virt. eigenvalues --    0.48273   0.48941   0.50209   0.50412   0.50782
  Beta virt. eigenvalues --    0.51514   0.53050   0.53609   0.54337   0.55324
  Beta virt. eigenvalues --    0.55905   0.56889   0.58153   0.58701   0.59402
  Beta virt. eigenvalues --    0.60776   0.62322   0.64680   0.65020   0.65766
  Beta virt. eigenvalues --    0.66020   0.66527   2.02950   2.10276   2.14240
  Beta virt. eigenvalues --    2.16188   2.19687   2.23425   2.27512   4.43440
  Beta virt. eigenvalues --    4.44164   4.44739   4.45030   4.45267   4.45497
  Beta virt. eigenvalues --    4.46161   4.46516   4.46984   4.47259   4.48356
  Beta virt. eigenvalues --    4.49091   4.49544   4.50808   4.51525   4.52847
  Beta virt. eigenvalues --    4.55286   4.56195   4.59735   4.60670   4.62114
  Beta virt. eigenvalues --   96.22495  96.30700  96.35626  96.37701  96.42619
  Beta virt. eigenvalues --   96.46154  96.51805
          Condensed to atoms (all electrons):
               1          2          3          4          5          6
     1  Na  10.838290   0.036341   0.234789   0.075760  -0.213771  -0.143073
     2  Na   0.036341  19.220984  -0.526609   0.854452  -6.492117  -0.598750
     3  Na   0.234789  -0.526609  10.733382   0.113797   0.579566  -0.066141
     4  Na   0.075760   0.854452   0.113797  10.963286  -1.024044   0.327105
     5  Na  -0.213771  -6.492117   0.579566  -1.024044  17.315467   0.144486
     6  Na  -0.143073  -0.598750  -0.066141   0.327105   0.144486  11.049362
     7  Na   0.264628  -1.558300   0.013629  -0.260646   0.921215   0.114313
               7
     1  Na   0.264628
     2  Na  -1.558300
     3  Na   0.013629
     4  Na  -0.260646
     5  Na   0.921215
     6  Na   0.114313
     7  Na  11.285969
          Atomic-Atomic Spin Densities.
               1          2          3          4          5          6
     1  Na  -0.055091   0.278249  -0.066590  -0.016414  -0.151327  -0.021303
     2  Na   0.278249   7.429351  -0.423577   0.964030  -6.343163  -0.377511
     3  Na  -0.066590  -0.423577   0.022026  -0.125824   0.521156   0.014715
     4  Na  -0.016414   0.964030  -0.125824   0.096552  -0.758661  -0.088067
     5  Na  -0.151327  -6.343163   0.521156  -0.758661   5.855072   0.455118
     6  Na  -0.021303  -0.377511   0.014715  -0.088067   0.455118  -0.030702
     7  Na  -0.054762  -1.035201   0.053300  -0.103501   1.003952   0.056497
               7
     1  Na  -0.054762
     2  Na  -1.035201
     3  Na   0.053300
     4  Na  -0.103501
     5  Na   1.003952
     6  Na   0.056497
     7  Na   0.120561
 Mulliken charges and spin densities:
               1          2
     1  Na  -0.092964  -0.087239
     2  Na   0.064000   0.492177
     3  Na  -0.082413  -0.004794
     4  Na  -0.049710  -0.031884
     5  Na  -0.230802   0.582148
     6  Na   0.172699   0.008746
     7  Na   0.219191   0.040846
 Sum of Mulliken charges =  -0.00000   1.00000
 Mulliken charges and spin densities with hydrogens summed into heavy atoms:
               1          2
     1  Na  -0.092964  -0.087239
     2  Na   0.064000   0.492177
     3  Na  -0.082413  -0.004794
     4  Na  -0.049710  -0.031884
     5  Na  -0.230802   0.582148
     6  Na   0.172699   0.008746
     7  Na   0.219191   0.040846
 Electronic spatial extent (au):  <R**2>=           2454.0412
 Charge=             -0.0000 electrons
 Dipole moment (field-independent basis, Debye):
    X=              0.3369    Y=             -0.0077    Z=              0.0696  Tot=              0.3441
 Quadrupole moment (field-independent basis, Debye-Ang):
   XX=            -51.1193   YY=            -62.2164   ZZ=            -77.3861
   XY=              0.5774   XZ=             -0.7827   YZ=              0.5991
 Traceless Quadrupole moment (field-independent basis, Debye-Ang):
   XX=             12.4546   YY=              1.3575   ZZ=            -13.8122
   XY=              0.5774   XZ=             -0.7827   YZ=              0.5991
 Octapole moment (field-independent basis, Debye-Ang**2):
  XXX=             17.8903  YYY=             -3.0618  ZZZ=              1.8815  XYY=             -3.6901
  XXY=              4.9972  XXZ=             -4.9349  XZZ=              0.7310  YZZ=             -0.3579
  YYZ=             -0.9742  XYZ=             -0.3957
 Hexadecapole moment (field-independent basis, Debye-Ang**3):
 XXXX=          -1613.4641 YYYY=          -1428.5595 ZZZZ=           -716.2218 XXXY=             15.8683
 XXXZ=             -1.2497 YYYX=              4.6450 YYYZ=              5.1589 ZZZX=              0.8198
 ZZZY=             -0.4135 XXYY=           -533.2007 XXZZ=           -498.6839 YYZZ=           -420.6367
 XXYZ=             10.9165 YYXZ=            -21.5612 ZZXY=             -1.3403
 N-N= 3.317407314977D+02 E-N=-3.392861412480D+03  KE= 1.132854411583D+03
                          Isotropic Fermi Contact Couplings
        Atom                 a.u.       MegaHertz       Gauss      10(-4) cm-1
     1  Na(23)             0.00077       0.91364       0.32601       0.30476
     2  Na(23)             0.28201     333.62120     119.04434     111.28405
     3  Na(23)             0.02563      30.31733      10.81798      10.11277
     4  Na(23)             0.02825      33.42509      11.92690      11.14941
     5  Na(23)             0.21971     259.92017      92.74598      86.70004
     6  Na(23)            -0.01667     -19.72574      -7.03864      -6.57980
     7  Na(23)             0.00099       1.17655       0.41982       0.39246
 --------------------------------------------------------
       Center         ----  Spin Dipole Couplings  ----
                      3XX-RR        3YY-RR        3ZZ-RR
 --------------------------------------------------------
     1   Atom       -0.010811     -0.007597      0.018408
     2   Atom       -0.011437      0.009285      0.002152
     3   Atom       -0.003161     -0.007934      0.011095
     4   Atom       -0.008169     -0.009798      0.017967
     5   Atom        0.003566     -0.011417      0.007850
     6   Atom       -0.011849     -0.013242      0.025091
     7   Atom       -0.013368     -0.013752      0.027121
 --------------------------------------------------------
                        XY            XZ            YZ
 --------------------------------------------------------
     1   Atom        0.002153      0.007942      0.006291
     2   Atom       -0.002869     -0.000715      0.001669
     3   Atom        0.000033     -0.000890      0.000670
     4   Atom       -0.003837      0.011948     -0.004752
     5   Atom        0.001300     -0.004802      0.001978
     6   Atom       -0.001153     -0.010989      0.013345
     7   Atom       -0.000154     -0.006291     -0.015817
 --------------------------------------------------------


 ---------------------------------------------------------------------------------
              Anisotropic Spin Dipole Couplings in Principal Axis System
 ---------------------------------------------------------------------------------

       Atom             a.u.   MegaHertz   Gauss  10(-4) cm-1        Axes

              Baa    -0.0129    -1.822    -0.650    -0.608  0.9667 -0.1334 -0.2184
     1 Na(23) Bbb    -0.0090    -1.273    -0.454    -0.425  0.0781  0.9665 -0.2444
              Bcc     0.0219     3.095     1.104     1.032  0.2437  0.2192  0.9448
 
              Baa    -0.0118    -1.673    -0.597    -0.558  0.9907  0.1318  0.0349
     2 Na(23) Bbb     0.0018     0.251     0.090     0.084 -0.0052 -0.2190  0.9757
              Bcc     0.0101     1.421     0.507     0.474 -0.1362  0.9668  0.2163
 
              Baa    -0.0080    -1.124    -0.401    -0.375 -0.0136  0.9993 -0.0358
     3 Na(23) Bbb    -0.0032    -0.454    -0.162    -0.151  0.9980  0.0157  0.0613
              Bcc     0.0112     1.578     0.563     0.526 -0.0618  0.0349  0.9975
 
              Baa    -0.0139    -1.962    -0.700    -0.655  0.8308  0.5039 -0.2364
     4 Na(23) Bbb    -0.0097    -1.373    -0.490    -0.458 -0.4204  0.8465  0.3267
              Bcc     0.0236     3.336     1.190     1.113  0.3647 -0.1720  0.9151
 
              Baa    -0.0118    -1.672    -0.597    -0.558 -0.1232  0.9840 -0.1289
     5 Na(23) Bbb     0.0008     0.117     0.042     0.039  0.8349  0.1730  0.5225
              Bcc     0.0110     1.554     0.555     0.519 -0.5364  0.0432  0.8429
 
              Baa    -0.0186    -2.621    -0.935    -0.874 -0.4551  0.8130 -0.3632
     6 Na(23) Bbb    -0.0134    -1.893    -0.675    -0.631  0.8573  0.5103  0.0678
              Bcc     0.0320     4.513     1.611     1.506 -0.2405  0.2805  0.9293
 
              Baa    -0.0200    -2.819    -1.006    -0.940  0.3449  0.8749  0.3400
     7 Na(23) Bbb    -0.0133    -1.880    -0.671    -0.627  0.9302 -0.3671  0.0011
              Bcc     0.0333     4.699     1.677     1.567 -0.1258 -0.3159  0.9404
 

 ---------------------------------------------------------------------------------

 No NMR shielding tensors so no spin-rotation constants.
 Leave Link  601 at Thu Dec  7 10:06:33 2023, MaxMem=  1879048192 cpu:               2.3 elap:               0.2
 (Enter /home/sekinelabo/g16/l701.exe)
 ... and contract with generalized density number  0.
 Compute integral first derivatives.
 Leave Link  701 at Thu Dec  7 10:06:33 2023, MaxMem=  1879048192 cpu:               1.5 elap:               0.1
 (Enter /home/sekinelabo/g16/l702.exe)
 L702 exits ... SP integral derivatives will be done elsewhere.
 Leave Link  702 at Thu Dec  7 10:06:33 2023, MaxMem=  1879048192 cpu:               0.5 elap:               0.0
 (Enter /home/sekinelabo/g16/l703.exe)
 Integral derivatives from FoFJK, PRISM(SPDF).
 Compute integral first derivatives, UseDBF=F ICtDFT=           0.
 Calling FoFJK, ICntrl=      2127 FMM=F ISym2X=0 I1Cent= 0 IOpClX= 1 NMat=1 NMatS=1 NMatT=0.
 FoFJK:  IHMeth= 1 ICntrl=    2127 DoSepK=F KAlg= 0 I1Cent=           0 FoldK=F
 IRaf=         0 NMat=       1 IRICut=       1 DoRegI=T DoRafI=F ISym2E= 0 IDoP0=0 IntGTp=1.
 FoFCou: FMM=F IPFlag=           0 FMFlag=      100000 FMFlg1=         800
         NFxFlg=           0 DoJE=F BraDBF=F KetDBF=F FulRan=T
         wScrn=  0.000000 ICntrl=      2127 IOpCl=  1 I1Cent=           0 NGrid=           0
         NMat0=    1 NMatS0=      1 NMatT0=    0 NMatD0=    1 NMtDS0=    0 NMtDT0=    0
 Symmetry not used in FoFCou.
 Leave Link  703 at Thu Dec  7 10:06:35 2023, MaxMem=  1879048192 cpu:              32.6 elap:               2.2
 (Enter /home/sekinelabo/g16/l716.exe)
 Dipole        = 1.32565163D-01-3.01641502D-03 2.73656634D-02
 ***** Axes restored to original set *****
 -------------------------------------------------------------------
 Center     Atomic                   Forces (Hartrees/Bohr)
 Number     Number              X              Y              Z
 -------------------------------------------------------------------
      1       11           0.001432195    0.000680686   -0.000054973
      2       11          -0.002520121    0.000745738    0.004547062
      3       11          -0.001475606    0.005182311   -0.005372054
      4       11          -0.001147212   -0.000598448   -0.001604909
      5       11           0.001116960   -0.001856932   -0.000008563
      6       11           0.003046323    0.000042325    0.003139245
      7       11          -0.000452539   -0.004195679   -0.000645808
 -------------------------------------------------------------------
 Cartesian Forces:  Max     0.005372054 RMS     0.002528893
 Z-matrix is all fixed cartesians, so copy forces.
 Force constants in Cartesian coordinates: 
                1             2             3             4             5 
      1  0.384382D-01
      2  0.923662D-02  0.564773D-01
      3  0.147817D-02 -0.252407D-03  0.389720D-01
      4 -0.161690D-01 -0.814820D-02 -0.308024D-02  0.117886D+00
      5  0.125031D-01 -0.283684D-01 -0.193576D-01  0.751248D-03  0.101726D+00
      6  0.910712D-02  0.255680D-02 -0.222209D-01 -0.221386D-01  0.563264D-02
      7 -0.105613D-02  0.149228D-02 -0.409364D-02 -0.896159D-03  0.801160D-02
      8 -0.521106D-03  0.812774D-03 -0.122750D-02  0.637239D-03 -0.226521D-02
      9 -0.427068D-03  0.699468D-03 -0.125925D-02 -0.242458D-04  0.191230D-02
     10  0.245636D-02 -0.221996D-02 -0.399847D-02 -0.294618D-01 -0.745726D-02
     11 -0.505147D-02  0.126279D-02 -0.452427D-02  0.177057D-02 -0.185970D-01
     12 -0.129747D-02  0.728642D-03  0.145481D-02  0.145344D-01  0.299181D-03
     13 -0.224867D-01  0.130267D-01  0.739879D-02 -0.336014D-01  0.822970D-02
     14 -0.167973D-01 -0.124859D-01  0.521525D-02  0.276405D-02 -0.211388D-01
     15  0.486745D-03 -0.533584D-03 -0.122629D-01  0.148531D-01 -0.631660D-02
     16  0.474883D-02 -0.469757D-02  0.196101D-03 -0.187986D-01 -0.186784D-01
     17 -0.445408D-02 -0.368666D-02  0.895172D-03  0.350121D-02 -0.197526D-01
     18  0.138587D-04  0.557502D-03  0.798823D-02  0.784150D-02  0.141115D-01
     19 -0.593148D-02 -0.868987D-02  0.209930D-02 -0.189592D-01 -0.335993D-02
     20  0.508426D-02 -0.140119D-01  0.192514D-01 -0.127611D-02 -0.116043D-01
     21 -0.936135D-02 -0.375642D-02 -0.126720D-01 -0.119859D-01  0.371857D-02
                6             7             8             9            10 
      6  0.120629D+00
      7 -0.420247D-02  0.195013D-01
      8  0.243212D-02  0.104167D-03  0.274529D-01
      9  0.921611D-03  0.271801D-02 -0.225892D-02  0.234480D-01
     10 -0.164804D-01 -0.606564D-02 -0.179962D-02 -0.609662D-02  0.514447D-01
     11 -0.238802D-03 -0.791882D-02 -0.148945D-01 -0.130598D-01  0.110214D-01
     12 -0.150881D-01 -0.264602D-02  0.641293D-02 -0.999051D-02  0.149457D-01
     13  0.741383D-02 -0.176193D-01  0.327671D-02  0.309854D-02 -0.172114D-01
     14 -0.337908D-03 -0.579408D-02 -0.113686D-01  0.816360D-02  0.108700D-01
     15 -0.268516D-01  0.134473D-01 -0.103165D-01 -0.174654D-01  0.175678D-01
     16  0.896712D-02  0.251301D-02 -0.142642D-02  0.544650D-03 -0.535717D-02
     17 -0.615980D-02  0.184767D-02 -0.915559D-04  0.404496D-02 -0.982244D-02
     18 -0.207255D-01 -0.146110D-02  0.429990D-02  0.429103D-02  0.214075D-03
     19  0.173334D-01  0.362295D-02 -0.270967D-03  0.186738D-03  0.419489D-02
     20 -0.388504D-02  0.225718D-02  0.354218D-03  0.498441D-03 -0.592111D-03
     21 -0.366649D-01 -0.376208D-02  0.657939D-03  0.545083D-04 -0.615206D-02
               11            12            13            14            15 
     11  0.609900D-01
     12  0.101773D-01  0.652991D-01
     13 -0.410148D-02 -0.102276D-01  0.136940D+00
     14 -0.207168D-01 -0.539128D-02 -0.167141D-01  0.108907D+00
     15 -0.752281D-02 -0.252666D-01 -0.272349D-01  0.994050D-02  0.115219D+00
     16  0.465521D-02 -0.931222D-02 -0.179580D-01  0.212482D-01 -0.127887D-02
     17 -0.147005D-01 -0.109917D-01 -0.884937D-02 -0.271394D-01  0.539579D-02
     18  0.161114D-01 -0.145236D-01  0.599372D-02 -0.112521D-01 -0.166160D-01
     19 -0.375377D-03 -0.599677D-02 -0.280632D-01  0.442328D-02 -0.178411D-01
     20  0.665599D-02 -0.123505D-02  0.513188D-02 -0.160576D-01  0.935316D-02
     21 -0.942986D-03 -0.188511D-02  0.135576D-01 -0.633806D-02 -0.167560D-01
               16            17            18            19            20 
     16  0.514424D-01
     17  0.167102D-01  0.941073D-01
     18  0.510381D-02 -0.987812D-02  0.643598D-01
     19 -0.165905D-01  0.106677D-02 -0.177059D-01  0.617266D-01
     20 -0.178112D-01 -0.287367D-01 -0.139501D-01  0.720609D-02  0.634003D-01
     21 -0.422059D-02  0.166937D-01 -0.247740D-01  0.219243D-01 -0.100328D-01
               21 
     21  0.926974D-01
 Leave Link  716 at Thu Dec  7 10:06:35 2023, MaxMem=  1879048192 cpu:               0.4 elap:               0.0
 (Enter /home/sekinelabo/g16/l103.exe)

 GradGradGradGradGradGradGradGradGradGradGradGradGradGradGradGradGradGrad
 Berny optimization.
 Search for a local minimum.
 Step number   1 out of a maximum of    2
 All quantities printed in internal units (Hartrees-Bohrs-Radians)
 Second derivative matrix not updated -- first step.
 ITU=  0
     Eigenvalues ---    0.02582   0.02784   0.03367   0.05315   0.06244
     Eigenvalues ---    0.07298   0.08171   0.10681   0.12333   0.12645
     Eigenvalues ---    0.12990   0.14030   0.15034   0.16423   0.20296
 Quadratic step=3.117D-01 exceeds max=3.000D-01 adjusted using Lamda=-1.098D-03.
 Angle between NR and scaled steps=   0.40 degrees.
 Angle between quadratic step and forces=  32.08 degrees.
 Linear search not attempted -- first point.
 B after Tr=     0.000000   -0.000000    0.000000
         Rot=    1.000000    0.000000    0.000000   -0.000000 Ang=   0.00 deg.
 Variable       Old X    -DE/DX   Delta X   Delta X   Delta X     New X
                                 (Linear)    (Quad)   (Total)
    X1       19.38557   0.00143   0.00000   0.02601   0.02601  19.41157
    Y1       18.32532   0.00068   0.00000  -0.00986  -0.00986  18.31545
    Z1       21.59674  -0.00005   0.00000   0.05262   0.05262  21.64936
    X2       20.36860  -0.00252   0.00000  -0.00707  -0.00707  20.36154
    Y2       24.00746   0.00075   0.00000  -0.00118  -0.00118  24.00628
    Z2       24.07738   0.00455   0.00000   0.04710   0.04710  24.12448
    X3       24.91339  -0.00148   0.00000  -0.06246  -0.06246  24.85094
    Y3       17.90542   0.00518   0.00000   0.15618   0.15618  18.06160
    Z3       27.42352  -0.00537   0.00000  -0.19779  -0.19779  27.22573
    X4       26.01605  -0.00115   0.00000  -0.03180  -0.03180  25.98425
    Y4       25.10388  -0.00060   0.00000  -0.02411  -0.02411  25.07977
    Z4       27.28632  -0.00160   0.00000  -0.02052  -0.02052  27.26581
    X5       25.51584   0.00112   0.00000   0.00445   0.00445  25.52029
    Y5       21.91213  -0.00186   0.00000  -0.01503  -0.01503  21.89710
    Z5       21.35145  -0.00001   0.00000   0.03383   0.03383  21.38527
    X6       23.79430   0.00305   0.00000   0.04654   0.04654  23.84084
    Y6       28.48498   0.00004   0.00000  -0.03143  -0.03143  28.45355
    Z6       20.70989   0.00314   0.00000   0.05794   0.05794  20.76782
    X7       20.22479  -0.00045   0.00000   0.02433   0.02433  20.24912
    Y7       24.47895  -0.00420   0.00000  -0.07457  -0.07457  24.40438
    Z7       17.77304  -0.00065   0.00000   0.02682   0.02682  17.79986
         Item               Value     Threshold  Converged?
 Maximum Force            0.005372     0.000450     NO 
 RMS     Force            0.002529     0.000300     NO 
 Maximum Displacement     0.197788     0.001800     NO 
 RMS     Displacement     0.065469     0.001200     NO 
 Predicted change in Energy=-1.522440D-03
 GradGradGradGradGradGradGradGradGradGradGradGradGradGradGradGradGradGrad

 Leave Link  103 at Thu Dec  7 10:06:35 2023, MaxMem=  1879048192 cpu:               0.2 elap:               0.0
 (Enter /home/sekinelabo/g16/l9999.exe)
 1\1\GINC-SEKINELABO-XA7R-R37\Force\UB3LYP\6-311+G(d)\Na7(2)\SEKINELABO
 \07-Dec-2023\0\\#P B3LYP/6-311+g(d) force\\DPGEN\\0,2\Na,10.2584,9.697
 34,11.4285\Na,10.7786,12.7042,12.7412\Na,13.1836,9.47514,14.5119\Na,13
 .7671,13.2844,14.4393\Na,13.5024,11.5954,11.2987\Na,12.5914,15.0736,10
 .9592\Na,10.7025,12.9537,9.40509\\Version=ES64L-G16RevB.01\State=2-A\H
 F=-1136.1310272\S2=0.761167\S2-1=0.\S2A=0.750092\RMSD=7.435e-09\RMSF=2
 .529e-03\Dipole=0.0599022,-0.0906407,0.0807928\Quadrupole=-5.7055883,3
 .6663677,2.0392206,1.3895386,6.1241599,-5.6845859\PG=C01 [X(Na7)]\\@


 I DON'T EXACTLY UNDERSTAND WHAT YOU ARE SAYING,
 BUT YOU ARE ABSOLUTELY RIGHT.
     M.S.GORDON, IN A NDSU FACULTY MEETING
 Job cpu time:       0 days  0 hours  4 minutes  9.1 seconds.
 Elapsed time:       0 days  0 hours  0 minutes 21.0 seconds.
 File lengths (MBytes):  RWF=     32 Int=      0 D2E=      0 Chk=      4 Scr=      1
 Normal termination of Gaussian 16 at Thu Dec  7 10:06:36 2023.
