 Set GAUSS_MDEF to "14GB".
 Entering Gaussian System, Link 0=g16
 Initial command:
 /home/sekinelabo/g16/l1.exe "/home/sekinelabo/g16temp/Gau-3416415.inp" -scrdir="/home/sekinelabo/g16temp/"
 Entering Link 1 = /home/sekinelabo/g16/l1.exe PID=   3416418.
  
 Copyright (c) 1988-2017, Gaussian, Inc.  All Rights Reserved.
  
 This is part of the Gaussian(R) 16 program.  It is based on
 the Gaussian(R) 09 system (copyright 2009, Gaussian, Inc.),
 the Gaussian(R) 03 system (copyright 2003, Gaussian, Inc.),
 the Gaussian(R) 98 system (copyright 1998, Gaussian, Inc.),
 the Gaussian(R) 94 system (copyright 1995, Gaussian, Inc.),
 the Gaussian 92(TM) system (copyright 1992, Gaussian, Inc.),
 the Gaussian 90(TM) system (copyright 1990, Gaussian, Inc.),
 the Gaussian 88(TM) system (copyright 1988, Gaussian, Inc.),
 the Gaussian 86(TM) system (copyright 1986, Carnegie Mellon
 University), and the Gaussian 82(TM) system (copyright 1983,
 Carnegie Mellon University). Gaussian is a federally registered
 trademark of Gaussian, Inc.
  
 This software contains proprietary and confidential information,
 including trade secrets, belonging to Gaussian, Inc.
  
 This software is provided under written license and may be
 used, copied, transmitted, or stored only in accord with that
 written license.
  
 The following legend is applicable only to US Government
 contracts under FAR:
  
                    RESTRICTED RIGHTS LEGEND
  
 Use, reproduction and disclosure by the US Government is
 subject to restrictions as set forth in subparagraphs (a)
 and (c) of the Commercial Computer Software - Restricted
 Rights clause in FAR 52.227-19.
  
 Gaussian, Inc.
 340 Quinnipiac St., Bldg. 40, Wallingford CT 06492
  
  
 ---------------------------------------------------------------
 Warning -- This program may not be used in any manner that
 competes with the business of Gaussian, Inc. or will provide
 assistance to any competitor of Gaussian, Inc.  The licensee
 of this program is prohibited from giving any competitor of
 Gaussian, Inc. access to this program.  By using this program,
 the user acknowledges that Gaussian, Inc. is engaged in the
 business of creating and licensing software in the field of
 computational chemistry and represents and warrants to the
 licensee that it is not a competitor of Gaussian, Inc. and that
 it will not use this program in any manner prohibited above.
 ---------------------------------------------------------------
  

 Cite this work as:
 Gaussian 16, Revision B.01,
 M. J. Frisch, G. W. Trucks, H. B. Schlegel, G. E. Scuseria, 
 M. A. Robb, J. R. Cheeseman, G. Scalmani, V. Barone, 
 G. A. Petersson, H. Nakatsuji, X. Li, M. Caricato, A. V. Marenich, 
 J. Bloino, B. G. Janesko, R. Gomperts, B. Mennucci, H. P. Hratchian, 
 J. V. Ortiz, A. F. Izmaylov, J. L. Sonnenberg, D. Williams-Young, 
 F. Ding, F. Lipparini, F. Egidi, J. Goings, B. Peng, A. Petrone, 
 T. Henderson, D. Ranasinghe, V. G. Zakrzewski, J. Gao, N. Rega, 
 G. Zheng, W. Liang, M. Hada, M. Ehara, K. Toyota, R. Fukuda, 
 J. Hasegawa, M. Ishida, T. Nakajima, Y. Honda, O. Kitao, H. Nakai, 
 T. Vreven, K. Throssell, J. A. Montgomery, Jr., J. E. Peralta, 
 F. Ogliaro, M. J. Bearpark, J. J. Heyd, E. N. Brothers, K. N. Kudin, 
 V. N. Staroverov, T. A. Keith, R. Kobayashi, J. Normand, 
 K. Raghavachari, A. P. Rendell, J. C. Burant, S. S. Iyengar, 
 J. Tomasi, M. Cossi, J. M. Millam, M. Klene, C. Adamo, R. Cammi, 
 J. W. Ochterski, R. L. Martin, K. Morokuma, O. Farkas, 
 J. B. Foresman, and D. J. Fox, Gaussian, Inc., Wallingford CT, 2016.
 
 ******************************************
 Gaussian 16:  ES64L-G16RevB.01 20-Dec-2017
                 8-Dec-2023 
 ******************************************
 %nproc=15
 Will use up to   15 processors via shared memory.
 -------------------------
 #P B3LYP/6-311+g(d) force
 -------------------------
 1/10=7,30=1,38=1/1,3;
 2/12=2,17=6,18=5,40=1/2;
 3/5=4,6=6,7=11,11=2,25=1,30=1,71=1,74=-5/1,2,3;
 4//1;
 5/5=2,38=5/2;
 6/7=2,8=2,9=2,10=2,28=1/1;
 7/29=1/1,2,3,16;
 1/10=7,30=1/3;
 99//99;
 Leave Link    1 at Fri Dec  8 18:40:17 2023, MaxMem=           0 cpu:               0.3 elap:               0.0
 (Enter /home/sekinelabo/g16/l101.exe)
 -----
 DPGEN
 -----
 Symbolic Z-matrix:
 Charge =  0 Multiplicity = 2
 Na                    12.6276   14.3394   13.434 
 Na                    16.5487   13.6902   14.3179 
 Na                    15.2435   13.4044   10.9108 
 Na                    15.3851   10.2989   12.9776 
 Na                    12.0036   10.5137   12.0982 
 Na                    8.25498   11.7491   12.6257 
 Na                    9.14102   15.2089   12.8403 
 
 ITRead=  0  0  0  0  0  0  0
 MicOpt= -1 -1 -1 -1 -1 -1 -1
 NAtoms=      7 NQM=        7 NQMF=       0 NMMI=      0 NMMIF=      0
                NMic=       0 NMicF=      0.
                    Isotopes and Nuclear Properties:
 (Nuclear quadrupole moments (NQMom) in fm**2, nuclear magnetic moments (NMagM)
  in nuclear magnetons)

  Atom         1           2           3           4           5           6           7
 IAtWgt=          23          23          23          23          23          23          23
 AtmWgt=  22.9897697  22.9897697  22.9897697  22.9897697  22.9897697  22.9897697  22.9897697
 NucSpn=           3           3           3           3           3           3           3
 AtZEff=  -0.0000000  -0.0000000  -0.0000000  -0.0000000  -0.0000000  -0.0000000  -0.0000000
 NQMom=   10.4000000  10.4000000  10.4000000  10.4000000  10.4000000  10.4000000  10.4000000
 NMagM=    2.2175200   2.2175200   2.2175200   2.2175200   2.2175200   2.2175200   2.2175200
 AtZNuc=  11.0000000  11.0000000  11.0000000  11.0000000  11.0000000  11.0000000  11.0000000
 Leave Link  101 at Fri Dec  8 18:40:17 2023, MaxMem=  1879048192 cpu:               2.5 elap:               0.2
 (Enter /home/sekinelabo/g16/l103.exe)

 GradGradGradGradGradGradGradGradGradGradGradGradGradGradGradGradGradGrad
 Berny optimization.
 Initialization pass.
 Trust Radius=3.00D-01 FncErr=1.00D-07 GrdErr=1.00D-07 EigMax=2.50D+02 EigMin=1.00D-04
 Number of steps in this run=      2 maximum allowed number of steps=      2.
 GradGradGradGradGradGradGradGradGradGradGradGradGradGradGradGradGradGrad

 Leave Link  103 at Fri Dec  8 18:40:17 2023, MaxMem=  1879048192 cpu:               0.2 elap:               0.0
 (Enter /home/sekinelabo/g16/l202.exe)
                          Input orientation:                          
 ---------------------------------------------------------------------
 Center     Atomic      Atomic             Coordinates (Angstroms)
 Number     Number       Type             X           Y           Z
 ---------------------------------------------------------------------
      1         11           0       12.627600   14.339400   13.434000
      2         11           0       16.548700   13.690200   14.317900
      3         11           0       15.243500   13.404400   10.910800
      4         11           0       15.385100   10.298900   12.977600
      5         11           0       12.003600   10.513700   12.098200
      6         11           0        8.254980   11.749100   12.625700
      7         11           0        9.141020   15.208900   12.840300
 ---------------------------------------------------------------------
                    Distance matrix (angstroms):
                    1          2          3          4          5
     1  Na   0.000000
     2  Na   4.071580   0.000000
     3  Na   3.752825   3.659721   0.000000
     4  Na   4.913018   3.827700   3.733074   0.000000
     5  Na   4.099966   5.972868   4.501446   3.500575   0.000000
     6  Na   5.146145   8.684308   7.383787   7.284609   3.982037
     7  Na   3.642080   7.704770   6.649771   7.944526   5.548872
                    6          7
     6  Na   0.000000
     7  Na   3.577895   0.000000
 Stoichiometry    Na7(2)
 Framework group  C1[X(Na7)]
 Deg. of freedom    15
 Full point group                 C1      NOp   1
 Largest Abelian subgroup         C1      NOp   1
 Largest concise Abelian subgroup C1      NOp   1
                         Standard orientation:                         
 ---------------------------------------------------------------------
 Center     Atomic      Atomic             Coordinates (Angstroms)
 Number     Number       Type             X           Y           Z
 ---------------------------------------------------------------------
      1         11           0       -0.246379   -1.678149   -0.400234
      2         11           0        3.753921   -1.562189   -1.149843
      3         11           0        2.341303   -0.538529    2.067328
      4         11           0        2.881357    2.109109   -0.508365
      5         11           0       -0.538725    2.368338    0.191540
      6         11           0       -4.366853    1.403990   -0.330082
      7         11           0       -3.824624   -2.102570    0.129655
 ---------------------------------------------------------------------
 Rotational constants (GHZ):           0.7802770           0.3227968           0.2619495
 Leave Link  202 at Fri Dec  8 18:40:17 2023, MaxMem=  1879048192 cpu:               0.0 elap:               0.0
 (Enter /home/sekinelabo/g16/l301.exe)
 Standard basis: 6-311+G(d) (5D, 7F)
 Ernie: Thresh=  0.10000D-02 Tol=  0.10000D-05 Strict=F.
 There are   217 symmetry adapted cartesian basis functions of A   symmetry.
 There are   210 symmetry adapted basis functions of A   symmetry.
   210 basis functions,   350 primitive gaussians,   217 cartesian basis functions
    39 alpha electrons       38 beta electrons
       nuclear repulsion energy       282.4229618476 Hartrees.
 IExCor=  402 DFT=T Ex+Corr=B3LYP ExCW=0 ScaHFX=  0.200000
 ScaDFX=  0.800000  0.720000  1.000000  0.810000 ScalE2=  1.000000  1.000000
 IRadAn=      5 IRanWt=     -1 IRanGd=            0 ICorTp=0 IEmpDi=  4
 NAtoms=    7 NActive=    7 NUniq=    7 SFac= 1.00D+00 NAtFMM=   60 NAOKFM=F Big=F
 Integral buffers will be    131072 words long.
 Raffenetti 2 integral format.
 Two-electron integral symmetry is turned on.
 Leave Link  301 at Fri Dec  8 18:40:17 2023, MaxMem=  1879048192 cpu:               0.5 elap:               0.0
 (Enter /home/sekinelabo/g16/l302.exe)
 NPDir=0 NMtPBC=     1 NCelOv=     1 NCel=       1 NClECP=     1 NCelD=      1
         NCelK=      1 NCelE2=     1 NClLst=     1 CellRange=     0.0.
 One-electron integrals computed using PRISM.
 One-electron integral symmetry used in STVInt
 NBasis=   210 RedAO= T EigKep=  7.67D-06  NBF=   210
 NBsUse=   210 1.00D-06 EigRej= -1.00D+00 NBFU=   210
 Precomputing XC quadrature grid using
 IXCGrd= 4 IRadAn=           5 IRanWt=          -1 IRanGd=           0 AccXCQ= 0.00D+00.
 Generated NRdTot=       0 NPtTot=           0 NUsed=           0 NTot=          32
 NSgBfM=   209   209   209   209   209 MxSgAt=     7 MxSgA2=     7.
 Leave Link  302 at Fri Dec  8 18:40:17 2023, MaxMem=  1879048192 cpu:               2.0 elap:               0.1
 (Enter /home/sekinelabo/g16/l303.exe)
 DipDrv:  MaxL=1.
 Leave Link  303 at Fri Dec  8 18:40:17 2023, MaxMem=  1879048192 cpu:               0.6 elap:               0.0
 (Enter /home/sekinelabo/g16/l401.exe)
 ExpMin= 7.60D-03 ExpMax= 3.62D+04 ExpMxC= 1.21D+03 IAcc=3 IRadAn=         5 AccDes= 0.00D+00
 Harris functional with IExCor=  402 and IRadAn=       5 diagonalized for initial guess.
 HarFok:  IExCor=  402 AccDes= 0.00D+00 IRadAn=         5 IDoV= 1 UseB2=F ITyADJ=14
 ICtDFT=  3500011 ScaDFX=  1.000000  1.000000  1.000000  1.000000
 FoFCou: FMM=F IPFlag=           0 FMFlag=      100000 FMFlg1=           0
         NFxFlg=           0 DoJE=T BraDBF=F KetDBF=T FulRan=T
         wScrn=  0.000000 ICntrl=       500 IOpCl=  0 I1Cent=   200000004 NGrid=           0
         NMat0=    1 NMatS0=      1 NMatT0=    0 NMatD0=    1 NMtDS0=    0 NMtDT0=    0
 Petite list used in FoFCou.
 Harris En= -1135.87912648022    
 JPrj=0 DoOrth=F DoCkMO=F.
 Initial guess <Sx>= 0.0000 <Sy>= 0.0000 <Sz>= 0.5000 <S**2>= 0.7500 S= 0.5000
 Leave Link  401 at Fri Dec  8 18:40:18 2023, MaxMem=  1879048192 cpu:               4.2 elap:               0.3
 (Enter /home/sekinelabo/g16/l502.exe)
 Keep R1 and R2 ints in memory in canonical form, NReq=506573293.
 FoFCou: FMM=F IPFlag=           0 FMFlag=           0 FMFlg1=           0
         NFxFlg=           0 DoJE=F BraDBF=F KetDBF=F FulRan=T
         wScrn=  0.000000 ICntrl=       600 IOpCl=  0 I1Cent=           0 NGrid=           0
         NMat0=    1 NMatS0=  22155 NMatT0=    0 NMatD0=    1 NMtDS0=    0 NMtDT0=    0
 Symmetry not used in FoFCou.
 Two-electron integral symmetry not used.
 UHF open shell SCF:
 Using DIIS extrapolation, IDIIS=  1040.
 NGot=  1879048192 LenX=  1388082607 LenY=  1388035077
 Requested convergence on RMS density matrix=1.00D-08 within 128 cycles.
 Requested convergence on MAX density matrix=1.00D-06.
 Requested convergence on             energy=1.00D-06.
 No special actions if energy rises.

 Cycle   1  Pass 1  IDiag  1:
 E= -1136.08047766166    
 DIIS: error= 1.12D-02 at cycle   1 NSaved=   1.
 NSaved= 1 IEnMin= 1 EnMin= -1136.08047766166     IErMin= 1 ErrMin= 1.12D-02
 ErrMax= 1.12D-02  0.00D+00 EMaxC= 1.00D-01 BMatC= 1.86D-01 BMatP= 1.86D-01
 IDIUse=3 WtCom= 8.88D-01 WtEn= 1.12D-01
 Coeff-Com:  0.100D+01
 Coeff-En:   0.100D+01
 Coeff:      0.100D+01
 Gap=     0.027 Goal=   None    Shift=    0.000
 Gap=     0.035 Goal=   None    Shift=    0.000
 GapD=    0.027 DampG=0.250 DampE=0.500 DampFc=0.2500 IDamp=-1.
 Damping current iteration by 2.50D-01
 RMSDP=1.14D-02 MaxDP=1.03D+00              OVMax= 2.25D-01

 Cycle   2  Pass 1  IDiag  1:
 E= -1136.08954672666     Delta-E=       -0.009069064992 Rises=F Damp=T
 DIIS: error= 7.79D-03 at cycle   2 NSaved=   2.
 NSaved= 2 IEnMin= 2 EnMin= -1136.08954672666     IErMin= 2 ErrMin= 7.79D-03
 ErrMax= 7.79D-03  0.00D+00 EMaxC= 1.00D-01 BMatC= 7.15D-02 BMatP= 1.86D-01
 IDIUse=3 WtCom= 9.22D-01 WtEn= 7.79D-02
 Coeff-Com: -0.128D+01 0.228D+01
 Coeff-En:   0.000D+00 0.100D+01
 Coeff:     -0.118D+01 0.218D+01
 Gap=     0.029 Goal=   None    Shift=    0.000
 Gap=     0.046 Goal=   None    Shift=    0.000
 RMSDP=6.15D-03 MaxDP=5.63D-01 DE=-9.07D-03 OVMax= 1.68D-01

 Cycle   3  Pass 1  IDiag  1:
 E= -1136.10484089198     Delta-E=       -0.015294165325 Rises=F Damp=F
 DIIS: error= 2.92D-03 at cycle   3 NSaved=   3.
 NSaved= 3 IEnMin= 3 EnMin= -1136.10484089198     IErMin= 3 ErrMin= 2.92D-03
 ErrMax= 2.92D-03  0.00D+00 EMaxC= 1.00D-01 BMatC= 2.39D-03 BMatP= 7.15D-02
 IDIUse=3 WtCom= 9.71D-01 WtEn= 2.92D-02
 Coeff-Com: -0.184D+00 0.325D+00 0.858D+00
 Coeff-En:   0.000D+00 0.000D+00 0.100D+01
 Coeff:     -0.178D+00 0.316D+00 0.862D+00
 Gap=     0.031 Goal=   None    Shift=    0.000
 Gap=     0.043 Goal=   None    Shift=    0.000
 RMSDP=3.09D-03 MaxDP=1.16D-01 DE=-1.53D-02 OVMax= 2.24D-01

 Cycle   4  Pass 1  IDiag  1:
 E= -1136.09444848373     Delta-E=        0.010392408250 Rises=F Damp=F
 DIIS: error= 6.65D-03 at cycle   4 NSaved=   4.
 NSaved= 4 IEnMin= 3 EnMin= -1136.10484089198     IErMin= 3 ErrMin= 2.92D-03
 ErrMax= 6.65D-03  0.00D+00 EMaxC= 1.00D-01 BMatC= 8.49D-03 BMatP= 2.39D-03
 IDIUse=3 WtCom= 1.09D-01 WtEn= 8.91D-01
 Coeff-Com: -0.252D-02 0.821D-02 0.656D+00 0.338D+00
 Coeff-En:   0.000D+00 0.000D+00 0.739D+00 0.261D+00
 Coeff:     -0.275D-03 0.897D-03 0.730D+00 0.270D+00
 Gap=     0.030 Goal=   None    Shift=    0.000
 Gap=     0.040 Goal=   None    Shift=    0.000
 RMSDP=1.52D-03 MaxDP=1.00D-01 DE= 1.04D-02 OVMax= 1.24D-01

 Cycle   5  Pass 1  IDiag  1:
 E= -1136.10781374014     Delta-E=       -0.013365256412 Rises=F Damp=F
 DIIS: error= 9.62D-04 at cycle   5 NSaved=   5.
 NSaved= 5 IEnMin= 5 EnMin= -1136.10781374014     IErMin= 5 ErrMin= 9.62D-04
 ErrMax= 9.62D-04  0.00D+00 EMaxC= 1.00D-01 BMatC= 4.67D-04 BMatP= 2.39D-03
 IDIUse=3 WtCom= 9.90D-01 WtEn= 9.62D-03
 Coeff-Com:  0.476D-02-0.741D-02 0.369D+00 0.769D-01 0.557D+00
 Coeff-En:   0.000D+00 0.000D+00 0.158D+00 0.000D+00 0.842D+00
 Coeff:      0.472D-02-0.734D-02 0.367D+00 0.762D-01 0.560D+00
 Gap=     0.030 Goal=   None    Shift=    0.000
 Gap=     0.042 Goal=   None    Shift=    0.000
 RMSDP=5.94D-04 MaxDP=4.44D-02 DE=-1.34D-02 OVMax= 2.81D-02

 Cycle   6  Pass 1  IDiag  1:
 E= -1136.10839001639     Delta-E=       -0.000576276242 Rises=F Damp=F
 DIIS: error= 2.84D-04 at cycle   6 NSaved=   6.
 NSaved= 6 IEnMin= 6 EnMin= -1136.10839001639     IErMin= 6 ErrMin= 2.84D-04
 ErrMax= 2.84D-04  0.00D+00 EMaxC= 1.00D-01 BMatC= 1.76D-05 BMatP= 4.67D-04
 IDIUse=3 WtCom= 9.97D-01 WtEn= 2.84D-03
 Coeff-Com: -0.153D-02 0.138D-02 0.204D-01-0.451D-01 0.222D+00 0.803D+00
 Coeff-En:   0.000D+00 0.000D+00 0.000D+00 0.000D+00 0.000D+00 0.100D+01
 Coeff:     -0.153D-02 0.138D-02 0.204D-01-0.449D-01 0.221D+00 0.804D+00
 Gap=     0.030 Goal=   None    Shift=    0.000
 Gap=     0.042 Goal=   None    Shift=    0.000
 RMSDP=2.49D-04 MaxDP=1.73D-02 DE=-5.76D-04 OVMax= 1.22D-02

 Cycle   7  Pass 1  IDiag  1:
 E= -1136.10843638838     Delta-E=       -0.000046371990 Rises=F Damp=F
 DIIS: error= 1.16D-04 at cycle   7 NSaved=   7.
 NSaved= 7 IEnMin= 7 EnMin= -1136.10843638838     IErMin= 7 ErrMin= 1.16D-04
 ErrMax= 1.16D-04  0.00D+00 EMaxC= 1.00D-01 BMatC= 6.31D-06 BMatP= 1.76D-05
 IDIUse=3 WtCom= 9.99D-01 WtEn= 1.16D-03
 Coeff-Com: -0.149D-02 0.179D-02-0.442D-01-0.424D-01 0.538D-01 0.462D+00
 Coeff-Com:  0.570D+00
 Coeff-En:   0.000D+00 0.000D+00 0.000D+00 0.000D+00 0.000D+00 0.000D+00
 Coeff-En:   0.100D+01
 Coeff:     -0.149D-02 0.179D-02-0.441D-01-0.423D-01 0.537D-01 0.462D+00
 Coeff:      0.571D+00
 Gap=     0.030 Goal=   None    Shift=    0.000
 Gap=     0.042 Goal=   None    Shift=    0.000
 RMSDP=1.28D-04 MaxDP=5.98D-03 DE=-4.64D-05 OVMax= 8.48D-03

 Cycle   8  Pass 1  IDiag  1:
 E= -1136.10845623638     Delta-E=       -0.000019848001 Rises=F Damp=F
 DIIS: error= 7.65D-05 at cycle   8 NSaved=   8.
 NSaved= 8 IEnMin= 8 EnMin= -1136.10845623638     IErMin= 8 ErrMin= 7.65D-05
 ErrMax= 7.65D-05  0.00D+00 EMaxC= 1.00D-01 BMatC= 1.59D-06 BMatP= 6.31D-06
 IDIUse=1 WtCom= 1.00D+00 WtEn= 0.00D+00
 Coeff-Com:  0.109D-02-0.117D-02-0.221D-01 0.239D-02-0.703D-01-0.194D+00
 Coeff-Com:  0.193D+00 0.109D+01
 Coeff:      0.109D-02-0.117D-02-0.221D-01 0.239D-02-0.703D-01-0.194D+00
 Coeff:      0.193D+00 0.109D+01
 Gap=     0.030 Goal=   None    Shift=    0.000
 Gap=     0.042 Goal=   None    Shift=    0.000
 RMSDP=1.46D-04 MaxDP=7.78D-03 DE=-1.98D-05 OVMax= 1.30D-02

 Cycle   9  Pass 1  IDiag  1:
 E= -1136.10847257230     Delta-E=       -0.000016335920 Rises=F Damp=F
 DIIS: error= 3.82D-05 at cycle   9 NSaved=   9.
 NSaved= 9 IEnMin= 9 EnMin= -1136.10847257230     IErMin= 9 ErrMin= 3.82D-05
 ErrMax= 3.82D-05  0.00D+00 EMaxC= 1.00D-01 BMatC= 5.69D-07 BMatP= 1.59D-06
 IDIUse=1 WtCom= 1.00D+00 WtEn= 0.00D+00
 Coeff-Com:  0.139D-02-0.165D-02 0.620D-02 0.127D-01-0.398D-01-0.169D+00
 Coeff-Com: -0.120D+00 0.295D+00 0.102D+01
 Coeff:      0.139D-02-0.165D-02 0.620D-02 0.127D-01-0.398D-01-0.169D+00
 Coeff:     -0.120D+00 0.295D+00 0.102D+01
 Gap=     0.031 Goal=   None    Shift=    0.000
 Gap=     0.042 Goal=   None    Shift=    0.000
 RMSDP=1.06D-04 MaxDP=5.40D-03 DE=-1.63D-05 OVMax= 9.09D-03

 Cycle  10  Pass 1  IDiag  1:
 E= -1136.10847957445     Delta-E=       -0.000007002155 Rises=F Damp=F
 DIIS: error= 2.00D-05 at cycle  10 NSaved=  10.
 NSaved=10 IEnMin=10 EnMin= -1136.10847957445     IErMin=10 ErrMin= 2.00D-05
 ErrMax= 2.00D-05  0.00D+00 EMaxC= 1.00D-01 BMatC= 2.34D-07 BMatP= 5.69D-07
 IDIUse=1 WtCom= 1.00D+00 WtEn= 0.00D+00
 Coeff-Com: -0.192D-03 0.277D-03 0.103D-01 0.117D-02 0.200D-01 0.628D-01
 Coeff-Com: -0.107D+00-0.418D+00 0.322D+00 0.111D+01
 Coeff:     -0.192D-03 0.277D-03 0.103D-01 0.117D-02 0.200D-01 0.628D-01
 Coeff:     -0.107D+00-0.418D+00 0.322D+00 0.111D+01
 Gap=     0.030 Goal=   None    Shift=    0.000
 Gap=     0.042 Goal=   None    Shift=    0.000
 RMSDP=1.02D-04 MaxDP=6.32D-03 DE=-7.00D-06 OVMax= 6.80D-03

 Cycle  11  Pass 1  IDiag  1:
 E= -1136.10848278069     Delta-E=       -0.000003206239 Rises=F Damp=F
 DIIS: error= 1.47D-05 at cycle  11 NSaved=  11.
 NSaved=11 IEnMin=11 EnMin= -1136.10848278069     IErMin=11 ErrMin= 1.47D-05
 ErrMax= 1.47D-05  0.00D+00 EMaxC= 1.00D-01 BMatC= 9.25D-08 BMatP= 2.34D-07
 IDIUse=1 WtCom= 1.00D+00 WtEn= 0.00D+00
 Coeff-Com: -0.661D-03 0.823D-03 0.598D-02-0.359D-02 0.284D-01 0.868D-01
 Coeff-Com: -0.158D-01-0.325D+00-0.247D+00 0.503D+00 0.967D+00
 Coeff:     -0.661D-03 0.823D-03 0.598D-02-0.359D-02 0.284D-01 0.868D-01
 Coeff:     -0.158D-01-0.325D+00-0.247D+00 0.503D+00 0.967D+00
 Gap=     0.031 Goal=   None    Shift=    0.000
 Gap=     0.042 Goal=   None    Shift=    0.000
 RMSDP=7.63D-05 MaxDP=4.71D-03 DE=-3.21D-06 OVMax= 4.40D-03

 Cycle  12  Pass 1  IDiag  1:
 E= -1136.10848394444     Delta-E=       -0.000001163749 Rises=F Damp=F
 DIIS: error= 7.91D-06 at cycle  12 NSaved=  12.
 NSaved=12 IEnMin=12 EnMin= -1136.10848394444     IErMin=12 ErrMin= 7.91D-06
 ErrMax= 7.91D-06  0.00D+00 EMaxC= 1.00D-01 BMatC= 1.75D-08 BMatP= 9.25D-08
 IDIUse=1 WtCom= 1.00D+00 WtEn= 0.00D+00
 Coeff-Com: -0.126D-03 0.144D-03-0.997D-03-0.176D-02 0.349D-02 0.111D-01
 Coeff-Com:  0.223D-01 0.343D-02-0.129D+00-0.130D+00 0.232D+00 0.989D+00
 Coeff:     -0.126D-03 0.144D-03-0.997D-03-0.176D-02 0.349D-02 0.111D-01
 Coeff:      0.223D-01 0.343D-02-0.129D+00-0.130D+00 0.232D+00 0.989D+00
 Gap=     0.031 Goal=   None    Shift=    0.000
 Gap=     0.042 Goal=   None    Shift=    0.000
 RMSDP=3.27D-05 MaxDP=2.36D-03 DE=-1.16D-06 OVMax= 1.53D-03

 Cycle  13  Pass 1  IDiag  1:
 E= -1136.10848418139     Delta-E=       -0.000000236946 Rises=F Damp=F
 DIIS: error= 4.56D-06 at cycle  13 NSaved=  13.
 NSaved=13 IEnMin=13 EnMin= -1136.10848418139     IErMin=13 ErrMin= 4.56D-06
 ErrMax= 4.56D-06  0.00D+00 EMaxC= 1.00D-01 BMatC= 6.58D-09 BMatP= 1.75D-08
 IDIUse=1 WtCom= 1.00D+00 WtEn= 0.00D+00
 Coeff-Com:  0.206D-03-0.268D-03-0.234D-02 0.987D-03-0.916D-02-0.244D-01
 Coeff-Com:  0.121D-01 0.100D+00 0.409D-01-0.177D+00-0.192D+00 0.753D-01
 Coeff-Com:  0.118D+01
 Coeff:      0.206D-03-0.268D-03-0.234D-02 0.987D-03-0.916D-02-0.244D-01
 Coeff:      0.121D-01 0.100D+00 0.409D-01-0.177D+00-0.192D+00 0.753D-01
 Coeff:      0.118D+01
 Gap=     0.031 Goal=   None    Shift=    0.000
 Gap=     0.042 Goal=   None    Shift=    0.000
 RMSDP=1.73D-05 MaxDP=1.06D-03 DE=-2.37D-07 OVMax= 1.00D-03

 Cycle  14  Pass 1  IDiag  1:
 E= -1136.10848429747     Delta-E=       -0.000000116086 Rises=F Damp=F
 DIIS: error= 4.17D-06 at cycle  14 NSaved=  14.
 NSaved=14 IEnMin=14 EnMin= -1136.10848429747     IErMin=14 ErrMin= 4.17D-06
 ErrMax= 4.17D-06  0.00D+00 EMaxC= 1.00D-01 BMatC= 3.40D-09 BMatP= 6.58D-09
 IDIUse=1 WtCom= 1.00D+00 WtEn= 0.00D+00
 Coeff-Com: -0.328D-04 0.471D-04 0.232D-03 0.237D-03 0.374D-03 0.402D-02
 Coeff-Com: -0.460D-02-0.208D-01 0.430D-02 0.699D-01 0.398D-01-0.381D+00
 Coeff-Com: -0.405D+00 0.169D+01
 Coeff:     -0.328D-04 0.471D-04 0.232D-03 0.237D-03 0.374D-03 0.402D-02
 Coeff:     -0.460D-02-0.208D-01 0.430D-02 0.699D-01 0.398D-01-0.381D+00
 Coeff:     -0.405D+00 0.169D+01
 Gap=     0.031 Goal=   None    Shift=    0.000
 Gap=     0.042 Goal=   None    Shift=    0.000
 RMSDP=1.55D-05 MaxDP=8.45D-04 DE=-1.16D-07 OVMax= 1.08D-03

 Cycle  15  Pass 1  IDiag  1:
 E= -1136.10848438984     Delta-E=       -0.000000092374 Rises=F Damp=F
 DIIS: error= 4.38D-06 at cycle  15 NSaved=  15.
 NSaved=15 IEnMin=15 EnMin= -1136.10848438984     IErMin=14 ErrMin= 4.17D-06
 ErrMax= 4.38D-06  0.00D+00 EMaxC= 1.00D-01 BMatC= 1.88D-09 BMatP= 3.40D-09
 IDIUse=1 WtCom= 1.00D+00 WtEn= 0.00D+00
 Coeff-Com: -0.842D-04 0.108D-03 0.633D-03-0.313D-03 0.271D-02 0.113D-01
 Coeff-Com: -0.230D-02-0.407D-01-0.147D-01 0.564D-01 0.969D-01-0.350D-02
 Coeff-Com: -0.603D+00 0.133D+00 0.136D+01
 Coeff:     -0.842D-04 0.108D-03 0.633D-03-0.313D-03 0.271D-02 0.113D-01
 Coeff:     -0.230D-02-0.407D-01-0.147D-01 0.564D-01 0.969D-01-0.350D-02
 Coeff:     -0.603D+00 0.133D+00 0.136D+01
 Gap=     0.031 Goal=   None    Shift=    0.000
 Gap=     0.042 Goal=   None    Shift=    0.000
 RMSDP=1.05D-05 MaxDP=4.70D-04 DE=-9.24D-08 OVMax= 8.68D-04

 Cycle  16  Pass 1  IDiag  1:
 E= -1136.10848444423     Delta-E=       -0.000000054384 Rises=F Damp=F
 DIIS: error= 3.08D-06 at cycle  16 NSaved=  16.
 NSaved=16 IEnMin=16 EnMin= -1136.10848444423     IErMin=16 ErrMin= 3.08D-06
 ErrMax= 3.08D-06  0.00D+00 EMaxC= 1.00D-01 BMatC= 9.38D-10 BMatP= 1.88D-09
 IDIUse=1 WtCom= 1.00D+00 WtEn= 0.00D+00
 Coeff-Com:  0.146D-04-0.230D-04-0.373D-03-0.157D-03-0.629D-03-0.331D-02
 Coeff-Com:  0.337D-02 0.185D-01-0.399D-02-0.577D-01-0.216D-01 0.238D+00
 Coeff-Com:  0.301D+00-0.105D+01-0.559D-01 0.164D+01
 Coeff:      0.146D-04-0.230D-04-0.373D-03-0.157D-03-0.629D-03-0.331D-02
 Coeff:      0.337D-02 0.185D-01-0.399D-02-0.577D-01-0.216D-01 0.238D+00
 Coeff:      0.301D+00-0.105D+01-0.559D-01 0.164D+01
 Gap=     0.031 Goal=   None    Shift=    0.000
 Gap=     0.042 Goal=   None    Shift=    0.000
 RMSDP=9.71D-06 MaxDP=5.01D-04 DE=-5.44D-08 OVMax= 9.03D-04

 Cycle  17  Pass 1  IDiag  1:
 E= -1136.10848448454     Delta-E=       -0.000000040309 Rises=F Damp=F
 DIIS: error= 2.46D-06 at cycle  17 NSaved=  17.
 NSaved=17 IEnMin=17 EnMin= -1136.10848448454     IErMin=17 ErrMin= 2.46D-06
 ErrMax= 2.46D-06  0.00D+00 EMaxC= 1.00D-01 BMatC= 5.15D-10 BMatP= 9.38D-10
 IDIUse=1 WtCom= 1.00D+00 WtEn= 0.00D+00
 Coeff-Com:  0.546D-04-0.711D-04-0.381D-03 0.160D-03-0.146D-02-0.485D-02
 Coeff-Com:  0.902D-03 0.189D-01 0.711D-02-0.218D-01-0.393D-01-0.414D-01
 Coeff-Com:  0.237D+00 0.579D-01-0.474D+00-0.439D+00 0.170D+01
 Coeff:      0.546D-04-0.711D-04-0.381D-03 0.160D-03-0.146D-02-0.485D-02
 Coeff:      0.902D-03 0.189D-01 0.711D-02-0.218D-01-0.393D-01-0.414D-01
 Coeff:      0.237D+00 0.579D-01-0.474D+00-0.439D+00 0.170D+01
 Gap=     0.031 Goal=   None    Shift=    0.000
 Gap=     0.042 Goal=   None    Shift=    0.000
 RMSDP=7.41D-06 MaxDP=3.99D-04 DE=-4.03D-08 OVMax= 7.58D-04

 Cycle  18  Pass 1  IDiag  1:
 E= -1136.10848450876     Delta-E=       -0.000000024219 Rises=F Damp=F
 DIIS: error= 2.29D-06 at cycle  18 NSaved=  18.
 NSaved=18 IEnMin=18 EnMin= -1136.10848450876     IErMin=18 ErrMin= 2.29D-06
 ErrMax= 2.29D-06  0.00D+00 EMaxC= 1.00D-01 BMatC= 3.43D-10 BMatP= 5.15D-10
 IDIUse=1 WtCom= 1.00D+00 WtEn= 0.00D+00
 Coeff-Com: -0.269D-05 0.538D-05 0.249D-04 0.119D-03-0.130D-03 0.147D-02
 Coeff-Com:  0.604D-04-0.672D-02-0.447D-03 0.225D-01 0.798D-02-0.104D+00
 Coeff-Com: -0.135D+00 0.479D+00 0.753D-01-0.892D+00 0.116D+00 0.144D+01
 Coeff:     -0.269D-05 0.538D-05 0.249D-04 0.119D-03-0.130D-03 0.147D-02
 Coeff:      0.604D-04-0.672D-02-0.447D-03 0.225D-01 0.798D-02-0.104D+00
 Coeff:     -0.135D+00 0.479D+00 0.753D-01-0.892D+00 0.116D+00 0.144D+01
 Gap=     0.031 Goal=   None    Shift=    0.000
 Gap=     0.042 Goal=   None    Shift=    0.000
 RMSDP=5.54D-06 MaxDP=2.85D-04 DE=-2.42D-08 OVMax= 6.04D-04

 Cycle  19  Pass 1  IDiag  1:
 E= -1136.10848452315     Delta-E=       -0.000000014390 Rises=F Damp=F
 DIIS: error= 1.75D-06 at cycle  19 NSaved=  19.
 NSaved=19 IEnMin=19 EnMin= -1136.10848452315     IErMin=19 ErrMin= 1.75D-06
 ErrMax= 1.75D-06  0.00D+00 EMaxC= 1.00D-01 BMatC= 2.23D-10 BMatP= 3.43D-10
 IDIUse=1 WtCom= 1.00D+00 WtEn= 0.00D+00
 Coeff-Com: -0.533D-04 0.706D-04 0.396D-03-0.192D-03 0.143D-02 0.410D-02
 Coeff-Com: -0.970D-03-0.160D-01-0.621D-02 0.178D-01 0.313D-01 0.516D-01
 Coeff-Com: -0.246D+00-0.231D-01 0.443D+00 0.491D+00-0.173D+01 0.860D-01
 Coeff-Com:  0.189D+01
 Coeff:     -0.533D-04 0.706D-04 0.396D-03-0.192D-03 0.143D-02 0.410D-02
 Coeff:     -0.970D-03-0.160D-01-0.621D-02 0.178D-01 0.313D-01 0.516D-01
 Coeff:     -0.246D+00-0.231D-01 0.443D+00 0.491D+00-0.173D+01 0.860D-01
 Coeff:      0.189D+01
 Gap=     0.031 Goal=   None    Shift=    0.000
 Gap=     0.042 Goal=   None    Shift=    0.000
 RMSDP=6.52D-06 MaxDP=2.80D-04 DE=-1.44D-08 OVMax= 6.79D-04

 Cycle  20  Pass 1  IDiag  1:
 E= -1136.10848453561     Delta-E=       -0.000000012460 Rises=F Damp=F
 DIIS: error= 9.27D-07 at cycle  20 NSaved=  20.
 NSaved=20 IEnMin=20 EnMin= -1136.10848453561     IErMin=20 ErrMin= 9.27D-07
 ErrMax= 9.27D-07  0.00D+00 EMaxC= 1.00D-01 BMatC= 9.37D-11 BMatP= 2.23D-10
 IDIUse=1 WtCom= 1.00D+00 WtEn= 0.00D+00
 Coeff-Com:  0.144D-04-0.201D-04 0.278D-04-0.295D-04-0.136D-03-0.133D-02
 Coeff-Com: -0.570D-03 0.553D-02 0.305D-02-0.120D-01-0.104D-01 0.435D-01
 Coeff-Com:  0.109D+00-0.305D+00-0.493D-01 0.487D+00 0.492D-01-0.943D+00
 Coeff-Com: -0.128D+00 0.175D+01
 Coeff:      0.144D-04-0.201D-04 0.278D-04-0.295D-04-0.136D-03-0.133D-02
 Coeff:     -0.570D-03 0.553D-02 0.305D-02-0.120D-01-0.104D-01 0.435D-01
 Coeff:      0.109D+00-0.305D+00-0.493D-01 0.487D+00 0.492D-01-0.943D+00
 Coeff:     -0.128D+00 0.175D+01
 Gap=     0.031 Goal=   None    Shift=    0.000
 Gap=     0.042 Goal=   None    Shift=    0.000
 RMSDP=6.58D-06 MaxDP=3.02D-04 DE=-1.25D-08 OVMax= 6.44D-04

 Cycle  21  Pass 1  IDiag  1:
 E= -1136.10848454158     Delta-E=       -0.000000005974 Rises=F Damp=F
 DIIS: error= 2.78D-07 at cycle  21 NSaved=  20.
 NSaved=20 IEnMin=20 EnMin= -1136.10848454158     IErMin=20 ErrMin= 2.78D-07
 ErrMax= 2.78D-07  0.00D+00 EMaxC= 1.00D-01 BMatC= 2.11D-11 BMatP= 9.37D-11
 IDIUse=1 WtCom= 1.00D+00 WtEn= 0.00D+00
 Coeff-Com:  0.145D-05-0.765D-04 0.178D-05-0.102D-03-0.318D-03 0.779D-04
 Coeff-Com:  0.152D-02-0.439D-03 0.586D-03-0.208D-02-0.182D-01 0.515D-01
 Coeff-Com:  0.212D-02-0.865D-01-0.143D+00 0.525D+00-0.178D+00-0.525D+00
 Coeff-Com:  0.945D-01 0.128D+01
 Coeff:      0.145D-05-0.765D-04 0.178D-05-0.102D-03-0.318D-03 0.779D-04
 Coeff:      0.152D-02-0.439D-03 0.586D-03-0.208D-02-0.182D-01 0.515D-01
 Coeff:      0.212D-02-0.865D-01-0.143D+00 0.525D+00-0.178D+00-0.525D+00
 Coeff:      0.945D-01 0.128D+01
 Gap=     0.031 Goal=   None    Shift=    0.000
 Gap=     0.042 Goal=   None    Shift=    0.000
 RMSDP=2.93D-06 MaxDP=1.36D-04 DE=-5.97D-09 OVMax= 2.68D-04

 Cycle  22  Pass 1  IDiag  1:
 E= -1136.10848454242     Delta-E=       -0.000000000838 Rises=F Damp=F
 DIIS: error= 1.07D-07 at cycle  22 NSaved=  20.
 NSaved=20 IEnMin=20 EnMin= -1136.10848454242     IErMin=20 ErrMin= 1.07D-07
 ErrMax= 1.07D-07  0.00D+00 EMaxC= 1.00D-01 BMatC= 4.10D-12 BMatP= 2.11D-11
 IDIUse=1 WtCom= 1.00D+00 WtEn= 0.00D+00
 Coeff-Com: -0.304D-04 0.240D-04-0.996D-04-0.125D-03 0.176D-03 0.420D-03
 Coeff-Com: -0.466D-03 0.870D-03-0.370D-03-0.941D-02-0.125D-01 0.773D-01
 Coeff-Com: -0.196D-01-0.142D+00 0.981D-01 0.220D+00-0.120D+00-0.341D+00
 Coeff-Com:  0.151D+00 0.110D+01
 Coeff:     -0.304D-04 0.240D-04-0.996D-04-0.125D-03 0.176D-03 0.420D-03
 Coeff:     -0.466D-03 0.870D-03-0.370D-03-0.941D-02-0.125D-01 0.773D-01
 Coeff:     -0.196D-01-0.142D+00 0.981D-01 0.220D+00-0.120D+00-0.341D+00
 Coeff:      0.151D+00 0.110D+01
 Gap=     0.031 Goal=   None    Shift=    0.000
 Gap=     0.042 Goal=   None    Shift=    0.000
 RMSDP=6.60D-07 MaxDP=4.29D-05 DE=-8.38D-10 OVMax= 4.50D-05

 Cycle  23  Pass 1  IDiag  1:
 E= -1136.10848454247     Delta-E=       -0.000000000055 Rises=F Damp=F
 DIIS: error= 4.59D-08 at cycle  23 NSaved=  20.
 NSaved=20 IEnMin=20 EnMin= -1136.10848454247     IErMin=20 ErrMin= 4.59D-08
 ErrMax= 4.59D-08  0.00D+00 EMaxC= 1.00D-01 BMatC= 7.08D-13 BMatP= 4.10D-12
 IDIUse=1 WtCom= 1.00D+00 WtEn= 0.00D+00
 Coeff-Com:  0.140D-04 0.194D-04 0.523D-04 0.411D-04-0.324D-03-0.996D-04
 Coeff-Com:  0.257D-03 0.919D-03 0.141D-03-0.109D-01 0.981D-02 0.978D-02
 Coeff-Com:  0.183D-01-0.846D-01 0.506D-01 0.669D-01-0.280D-02-0.267D+00
 Coeff-Com:  0.981D-01 0.111D+01
 Coeff:      0.140D-04 0.194D-04 0.523D-04 0.411D-04-0.324D-03-0.996D-04
 Coeff:      0.257D-03 0.919D-03 0.141D-03-0.109D-01 0.981D-02 0.978D-02
 Coeff:      0.183D-01-0.846D-01 0.506D-01 0.669D-01-0.280D-02-0.267D+00
 Coeff:      0.981D-01 0.111D+01
 Gap=     0.031 Goal=   None    Shift=    0.000
 Gap=     0.042 Goal=   None    Shift=    0.000
 RMSDP=1.78D-07 MaxDP=1.19D-05 DE=-5.46D-11 OVMax= 8.69D-06

 Cycle  24  Pass 1  IDiag  1:
 E= -1136.10848454248     Delta-E=       -0.000000000007 Rises=F Damp=F
 DIIS: error= 1.56D-08 at cycle  24 NSaved=  20.
 NSaved=20 IEnMin=20 EnMin= -1136.10848454248     IErMin=20 ErrMin= 1.56D-08
 ErrMax= 1.56D-08  0.00D+00 EMaxC= 1.00D-01 BMatC= 1.04D-13 BMatP= 7.08D-13
 IDIUse=1 WtCom= 1.00D+00 WtEn= 0.00D+00
 Coeff-Com: -0.517D-05-0.320D-04 0.878D-05 0.582D-04 0.871D-04-0.179D-03
 Coeff-Com:  0.655D-04 0.238D-03 0.158D-02-0.551D-02 0.370D-02-0.930D-03
 Coeff-Com:  0.707D-02-0.216D-01 0.103D-02 0.224D-01 0.466D-01-0.166D+00
 Coeff-Com: -0.172D+00 0.128D+01
 Coeff:     -0.517D-05-0.320D-04 0.878D-05 0.582D-04 0.871D-04-0.179D-03
 Coeff:      0.655D-04 0.238D-03 0.158D-02-0.551D-02 0.370D-02-0.930D-03
 Coeff:      0.707D-02-0.216D-01 0.103D-02 0.224D-01 0.466D-01-0.166D+00
 Coeff:     -0.172D+00 0.128D+01
 Gap=     0.031 Goal=   None    Shift=    0.000
 Gap=     0.042 Goal=   None    Shift=    0.000
 RMSDP=4.96D-08 MaxDP=3.07D-06 DE=-6.82D-12 OVMax= 2.53D-06

 Cycle  25  Pass 1  IDiag  1:
 E= -1136.10848454247     Delta-E=        0.000000000009 Rises=F Damp=F
 DIIS: error= 6.33D-09 at cycle  25 NSaved=  20.
 NSaved=20 IEnMin=19 EnMin= -1136.10848454248     IErMin=20 ErrMin= 6.33D-09
 ErrMax= 6.33D-09  0.00D+00 EMaxC= 1.00D-01 BMatC= 2.93D-14 BMatP= 1.04D-13
 IDIUse=1 WtCom= 1.00D+00 WtEn= 0.00D+00
 Coeff-Com: -0.124D-04-0.116D-04 0.551D-04 0.230D-04-0.361D-04-0.163D-03
 Coeff-Com:  0.394D-04 0.296D-02-0.433D-02-0.262D-02 0.976D-03 0.165D-01
 Coeff-Com: -0.175D-01-0.151D-01 0.177D-01 0.510D-01-0.616D-01-0.254D+00
 Coeff-Com:  0.320D+00 0.946D+00
 Coeff:     -0.124D-04-0.116D-04 0.551D-04 0.230D-04-0.361D-04-0.163D-03
 Coeff:      0.394D-04 0.296D-02-0.433D-02-0.262D-02 0.976D-03 0.165D-01
 Coeff:     -0.175D-01-0.151D-01 0.177D-01 0.510D-01-0.616D-01-0.254D+00
 Coeff:      0.320D+00 0.946D+00
 Gap=     0.031 Goal=   None    Shift=    0.000
 Gap=     0.042 Goal=   None    Shift=    0.000
 RMSDP=2.01D-08 MaxDP=1.02D-06 DE= 8.64D-12 OVMax= 1.47D-06

 Cycle  26  Pass 1  IDiag  1:
 E= -1136.10848454248     Delta-E=       -0.000000000005 Rises=F Damp=F
 DIIS: error= 3.94D-09 at cycle  26 NSaved=  20.
 NSaved=20 IEnMin=18 EnMin= -1136.10848454248     IErMin=20 ErrMin= 3.94D-09
 ErrMax= 3.94D-09  0.00D+00 EMaxC= 1.00D-01 BMatC= 5.96D-15 BMatP= 2.93D-14
 IDIUse=1 WtCom= 1.00D+00 WtEn= 0.00D+00
 Coeff-Com:  0.966D-06-0.752D-05-0.272D-04 0.454D-04 0.461D-05 0.939D-04
 Coeff-Com: -0.731D-03 0.117D-02 0.508D-03-0.925D-03-0.173D-02 0.478D-02
 Coeff-Com: -0.746D-03-0.616D-02-0.424D-03 0.301D-01-0.217D-01-0.173D+00
 Coeff-Com:  0.768D-01 0.109D+01
 Coeff:      0.966D-06-0.752D-05-0.272D-04 0.454D-04 0.461D-05 0.939D-04
 Coeff:     -0.731D-03 0.117D-02 0.508D-03-0.925D-03-0.173D-02 0.478D-02
 Coeff:     -0.746D-03-0.616D-02-0.424D-03 0.301D-01-0.217D-01-0.173D+00
 Coeff:      0.768D-01 0.109D+01
 Gap=     0.031 Goal=   None    Shift=    0.000
 Gap=     0.042 Goal=   None    Shift=    0.000
 RMSDP=1.17D-08 MaxDP=4.95D-07 DE=-4.77D-12 OVMax= 9.39D-07

 Cycle  27  Pass 1  IDiag  1:
 E= -1136.10848454249     Delta-E=       -0.000000000011 Rises=F Damp=F
 DIIS: error= 1.85D-09 at cycle  27 NSaved=  20.
 NSaved=20 IEnMin=20 EnMin= -1136.10848454249     IErMin=20 ErrMin= 1.85D-09
 ErrMax= 1.85D-09  0.00D+00 EMaxC= 1.00D-01 BMatC= 1.31D-15 BMatP= 5.96D-15
 IDIUse=1 WtCom= 1.00D+00 WtEn= 0.00D+00
 Large coefficients: NSaved= 20 BigCof=    0.00 CofMax=   10.00 Det=-2.24D-15
 Inversion failed.  Reducing to 19 matrices.
 Large coefficients: NSaved= 19 BigCof=    0.00 CofMax=   10.00 Det=-2.33D-15
 Inversion failed.  Reducing to 18 matrices.
 Large coefficients: NSaved= 18 BigCof=    0.00 CofMax=   10.00 Det=-2.39D-15
 Inversion failed.  Reducing to 17 matrices.
 Large coefficients: NSaved= 17 BigCof=    0.00 CofMax=   10.00 Det=-2.40D-15
 Inversion failed.  Reducing to 16 matrices.
 Large coefficients: NSaved= 16 BigCof=    0.00 CofMax=   10.00 Det=-2.56D-15
 Inversion failed.  Reducing to 15 matrices.
 Coeff-Com: -0.294D-03 0.753D-03-0.729D-04-0.818D-03-0.613D-03 0.343D-02
 Coeff-Com:  0.204D-03-0.576D-02-0.211D-02 0.190D-01 0.193D-01-0.966D-01
 Coeff-Com: -0.133D+00 0.219D+00 0.978D+00
 Coeff:     -0.294D-03 0.753D-03-0.729D-04-0.818D-03-0.613D-03 0.343D-02
 Coeff:      0.204D-03-0.576D-02-0.211D-02 0.190D-01 0.193D-01-0.966D-01
 Coeff:     -0.133D+00 0.219D+00 0.978D+00
 Gap=     0.031 Goal=   None    Shift=    0.000
 Gap=     0.042 Goal=   None    Shift=    0.000
 RMSDP=5.14D-09 MaxDP=2.26D-07 DE=-1.11D-11 OVMax= 4.74D-07

 SCF Done:  E(UB3LYP) =  -1136.10848454     A.U. after   27 cycles
            NFock= 27  Conv=0.51D-08     -V/T= 2.0030
 <Sx>= 0.0000 <Sy>= 0.0000 <Sz>= 0.5000 <S**2>= 0.7950 S= 0.5222
 <L.S>= 0.000000000000E+00
 KE= 1.132742094750D+03 PE=-3.293662489662D+03 EE= 7.423889485212D+02
 Annihilation of the first spin contaminant:
 S**2 before annihilation     0.7950,   after     0.7509
 Leave Link  502 at Fri Dec  8 18:40:39 2023, MaxMem=  1879048192 cpu:             236.8 elap:              21.4
 (Enter /home/sekinelabo/g16/l601.exe)
 Copying SCF densities to generalized density rwf, IOpCl= 1 IROHF=0.

 **********************************************************************

            Population analysis using the SCF Density.

 **********************************************************************

 Orbital symmetries:
 Alpha Orbitals:
       Occupied  (A) (A) (A) (A) (A) (A) (A) (A) (A) (A) (A) (A)
                 (A) (A) (A) (A) (A) (A) (A) (A) (A) (A) (A) (A)
                 (A) (A) (A) (A) (A) (A) (A) (A) (A) (A) (A) (A)
                 (A) (A) (A)
       Virtual   (A) (A) (A) (A) (A) (A) (A) (A) (A) (A) (A) (A)
                 (A) (A) (A) (A) (A) (A) (A) (A) (A) (A) (A) (A)
                 (A) (A) (A) (A) (A) (A) (A) (A) (A) (A) (A) (A)
                 (A) (A) (A) (A) (A) (A) (A) (A) (A) (A) (A) (A)
                 (A) (A) (A) (A) (A) (A) (A) (A) (A) (A) (A) (A)
                 (A) (A) (A) (A) (A) (A) (A) (A) (A) (A) (A) (A)
                 (A) (A) (A) (A) (A) (A) (A) (A) (A) (A) (A) (A)
                 (A) (A) (A) (A) (A) (A) (A) (A) (A) (A) (A) (A)
                 (A) (A) (A) (A) (A) (A) (A) (A) (A) (A) (A) (A)
                 (A) (A) (A) (A) (A) (A) (A) (A) (A) (A) (A) (A)
                 (A) (A) (A) (A) (A) (A) (A) (A) (A) (A) (A) (A)
                 (A) (A) (A) (A) (A) (A) (A) (A) (A) (A) (A) (A)
                 (A) (A) (A) (A) (A) (A) (A) (A) (A) (A) (A) (A)
                 (A) (A) (A) (A) (A) (A) (A) (A) (A) (A) (A) (A)
                 (A) (A) (A)
 Beta  Orbitals:
       Occupied  (A) (A) (A) (A) (A) (A) (A) (A) (A) (A) (A) (A)
                 (A) (A) (A) (A) (A) (A) (A) (A) (A) (A) (A) (A)
                 (A) (A) (A) (A) (A) (A) (A) (A) (A) (A) (A) (A)
                 (A) (A)
       Virtual   (A) (A) (A) (A) (A) (A) (A) (A) (A) (A) (A) (A)
                 (A) (A) (A) (A) (A) (A) (A) (A) (A) (A) (A) (A)
                 (A) (A) (A) (A) (A) (A) (A) (A) (A) (A) (A) (A)
                 (A) (A) (A) (A) (A) (A) (A) (A) (A) (A) (A) (A)
                 (A) (A) (A) (A) (A) (A) (A) (A) (A) (A) (A) (A)
                 (A) (A) (A) (A) (A) (A) (A) (A) (A) (A) (A) (A)
                 (A) (A) (A) (A) (A) (A) (A) (A) (A) (A) (A) (A)
                 (A) (A) (A) (A) (A) (A) (A) (A) (A) (A) (A) (A)
                 (A) (A) (A) (A) (A) (A) (A) (A) (A) (A) (A) (A)
                 (A) (A) (A) (A) (A) (A) (A) (A) (A) (A) (A) (A)
                 (A) (A) (A) (A) (A) (A) (A) (A) (A) (A) (A) (A)
                 (A) (A) (A) (A) (A) (A) (A) (A) (A) (A) (A) (A)
                 (A) (A) (A) (A) (A) (A) (A) (A) (A) (A) (A) (A)
                 (A) (A) (A) (A) (A) (A) (A) (A) (A) (A) (A) (A)
                 (A) (A) (A) (A)
 The electronic state is 2-A.
 Alpha  occ. eigenvalues --  -38.46059 -38.44766 -38.44729 -38.44586 -38.44219
 Alpha  occ. eigenvalues --  -38.43983 -38.43233  -2.21817  -2.20518  -2.20493
 Alpha  occ. eigenvalues --   -2.20371  -2.19999  -2.19790  -2.18998  -1.15492
 Alpha  occ. eigenvalues --   -1.15468  -1.15461  -1.14200  -1.14177  -1.14176
 Alpha  occ. eigenvalues --   -1.14161  -1.14131  -1.14110  -1.14068  -1.14029
 Alpha  occ. eigenvalues --   -1.13994  -1.13685  -1.13666  -1.13599  -1.13457
 Alpha  occ. eigenvalues --   -1.13427  -1.13406  -1.12697  -1.12671  -1.12622
 Alpha  occ. eigenvalues --   -0.16712  -0.13973  -0.11356  -0.10323
 Alpha virt. eigenvalues --   -0.07271  -0.06836  -0.04034  -0.03232  -0.03026
 Alpha virt. eigenvalues --   -0.02799  -0.01996  -0.01890  -0.01466  -0.00863
 Alpha virt. eigenvalues --   -0.00214  -0.00076   0.00123   0.00282   0.00302
 Alpha virt. eigenvalues --    0.00600   0.00806   0.01117   0.01192   0.01310
 Alpha virt. eigenvalues --    0.01447   0.01491   0.01576   0.01648   0.01762
 Alpha virt. eigenvalues --    0.01878   0.01946   0.01974   0.02267   0.02423
 Alpha virt. eigenvalues --    0.02511   0.02546   0.02698   0.02712   0.02923
 Alpha virt. eigenvalues --    0.03080   0.03189   0.03272   0.03298   0.03402
 Alpha virt. eigenvalues --    0.03639   0.03769   0.03836   0.03913   0.04073
 Alpha virt. eigenvalues --    0.04609   0.04756   0.04845   0.05224   0.05472
 Alpha virt. eigenvalues --    0.05578   0.06132   0.06388   0.06799   0.07019
 Alpha virt. eigenvalues --    0.07276   0.07502   0.07937   0.08140   0.08279
 Alpha virt. eigenvalues --    0.08672   0.09161   0.09499   0.09763   0.10363
 Alpha virt. eigenvalues --    0.10740   0.10787   0.11105   0.11999   0.12064
 Alpha virt. eigenvalues --    0.12271   0.12787   0.12946   0.13442   0.13723
 Alpha virt. eigenvalues --    0.13966   0.14307   0.14777   0.15246   0.16274
 Alpha virt. eigenvalues --    0.26670   0.27767   0.28853   0.29178   0.29445
 Alpha virt. eigenvalues --    0.30100   0.30740   0.31508   0.32127   0.32353
 Alpha virt. eigenvalues --    0.33493   0.33754   0.34745   0.35389   0.36233
 Alpha virt. eigenvalues --    0.37218   0.37540   0.38175   0.39425   0.39725
 Alpha virt. eigenvalues --    0.40482   0.40949   0.41544   0.42088   0.42209
 Alpha virt. eigenvalues --    0.42813   0.43563   0.43725   0.43806   0.43915
 Alpha virt. eigenvalues --    0.44005   0.44177   0.44953   0.45289   0.45667
 Alpha virt. eigenvalues --    0.46592   0.46760   0.47393   0.47728   0.48181
 Alpha virt. eigenvalues --    0.48888   0.49848   0.50297   0.50696   0.51316
 Alpha virt. eigenvalues --    0.51882   0.52292   0.52616   0.53393   0.54461
 Alpha virt. eigenvalues --    0.55386   0.56222   0.57394   0.57831   0.59911
 Alpha virt. eigenvalues --    0.61183   2.01042   2.06596   2.08214   2.10836
 Alpha virt. eigenvalues --    2.13195   2.14144   2.17725   4.44116   4.44371
 Alpha virt. eigenvalues --    4.44478   4.44719   4.44920   4.45099   4.45358
 Alpha virt. eigenvalues --    4.45740   4.46170   4.46227   4.46705   4.46882
 Alpha virt. eigenvalues --    4.47221   4.47999   4.48045   4.48644   4.48759
 Alpha virt. eigenvalues --    4.49702   4.51802   4.53571   4.54796  96.20279
 Alpha virt. eigenvalues --   96.26810  96.28125  96.31349  96.34289  96.35699
 Alpha virt. eigenvalues --   96.39848
  Beta  occ. eigenvalues --  -38.46054 -38.44773 -38.44677 -38.44572 -38.44177
  Beta  occ. eigenvalues --  -38.43907 -38.43231  -2.21810  -2.20533  -2.20396
  Beta  occ. eigenvalues --   -2.20348  -2.19921  -2.19650  -2.18997  -1.15471
  Beta  occ. eigenvalues --   -1.15464  -1.15450  -1.14213  -1.14186  -1.14164
  Beta  occ. eigenvalues --   -1.14095  -1.14066  -1.14055  -1.14051  -1.14016
  Beta  occ. eigenvalues --   -1.13955  -1.13625  -1.13607  -1.13556  -1.13362
  Beta  occ. eigenvalues --   -1.13326  -1.13311  -1.12698  -1.12665  -1.12617
  Beta  occ. eigenvalues --   -0.16128  -0.13460  -0.11231
  Beta virt. eigenvalues --   -0.07042  -0.06823  -0.06674  -0.03601  -0.02966
  Beta virt. eigenvalues --   -0.02722  -0.02448  -0.01857  -0.01581  -0.01173
  Beta virt. eigenvalues --   -0.00394  -0.00138   0.00063   0.00174   0.00337
  Beta virt. eigenvalues --    0.00422   0.00686   0.00861   0.01172   0.01268
  Beta virt. eigenvalues --    0.01445   0.01550   0.01576   0.01635   0.01731
  Beta virt. eigenvalues --    0.01878   0.01984   0.02026   0.02076   0.02373
  Beta virt. eigenvalues --    0.02513   0.02563   0.02577   0.02715   0.02759
  Beta virt. eigenvalues --    0.02946   0.03156   0.03225   0.03307   0.03403
  Beta virt. eigenvalues --    0.03559   0.03773   0.03858   0.03899   0.03998
  Beta virt. eigenvalues --    0.04125   0.04673   0.04860   0.04992   0.05389
  Beta virt. eigenvalues --    0.05476   0.05703   0.06210   0.06438   0.06894
  Beta virt. eigenvalues --    0.07142   0.07407   0.07684   0.08013   0.08185
  Beta virt. eigenvalues --    0.08415   0.08809   0.09278   0.09542   0.09978
  Beta virt. eigenvalues --    0.10584   0.10849   0.10887   0.11381   0.12191
  Beta virt. eigenvalues --    0.12200   0.12485   0.13047   0.13117   0.13656
  Beta virt. eigenvalues --    0.13776   0.14157   0.14446   0.14965   0.15433
  Beta virt. eigenvalues --    0.16421   0.26887   0.28027   0.29099   0.29390
  Beta virt. eigenvalues --    0.29661   0.30372   0.31000   0.31728   0.32291
  Beta virt. eigenvalues --    0.32509   0.33711   0.34103   0.35103   0.35730
  Beta virt. eigenvalues --    0.36485   0.37486   0.37870   0.38444   0.39778
  Beta virt. eigenvalues --    0.39988   0.40785   0.41167   0.41715   0.42261
  Beta virt. eigenvalues --    0.42434   0.42950   0.43600   0.43868   0.43928
  Beta virt. eigenvalues --    0.44040   0.44215   0.44338   0.45041   0.45405
  Beta virt. eigenvalues --    0.45754   0.46737   0.46941   0.47441   0.47900
  Beta virt. eigenvalues --    0.48307   0.48977   0.49931   0.50407   0.50809
  Beta virt. eigenvalues --    0.51456   0.51988   0.52349   0.52769   0.53513
  Beta virt. eigenvalues --    0.54599   0.55645   0.56351   0.57507   0.57894
  Beta virt. eigenvalues --    0.60008   0.61275   2.01145   2.06734   2.08282
  Beta virt. eigenvalues --    2.11027   2.13274   2.14239   2.17810   4.44129
  Beta virt. eigenvalues --    4.44404   4.44499   4.44778   4.44930   4.45141
  Beta virt. eigenvalues --    4.45388   4.45803   4.46191   4.46306   4.46774
  Beta virt. eigenvalues --    4.46953   4.47289   4.48028   4.48071   4.48678
  Beta virt. eigenvalues --    4.48793   4.49747   4.51836   4.53586   4.54847
  Beta virt. eigenvalues --   96.20313  96.26857  96.28145  96.31407  96.34323
  Beta virt. eigenvalues --   96.35730  96.39875
          Condensed to atoms (all electrons):
               1          2          3          4          5          6
     1  Na  12.362819  -0.156505   0.299859  -0.174405  -0.218344   0.247801
     2  Na  -0.156505  11.848747  -0.481157   0.081102  -0.254385   0.214802
     3  Na   0.299859  -0.481157  10.794691  -0.036449  -0.031535  -0.059157
     4  Na  -0.174405   0.081102  -0.036449  10.670815   0.135651  -0.057958
     5  Na  -0.218344  -0.254385  -0.031535   0.135651  11.548396  -0.001324
     6  Na   0.247801   0.214802  -0.059157  -0.057958  -0.001324  10.951730
     7  Na  -0.190552  -0.657994   0.190451   0.058049   0.073847  -0.247615
               7
     1  Na  -0.190552
     2  Na  -0.657994
     3  Na   0.190451
     4  Na   0.058049
     5  Na   0.073847
     6  Na  -0.247615
     7  Na  11.354437
          Atomic-Atomic Spin Densities.
               1          2          3          4          5          6
     1  Na  -0.018770  -0.031192   0.055208  -0.117959   0.025452  -0.129819
     2  Na  -0.031192   0.532463  -0.124002   0.207262  -0.189006   0.035249
     3  Na   0.055208  -0.124002   0.056827  -0.074772   0.243099  -0.039132
     4  Na  -0.117959   0.207262  -0.074772   0.105872  -0.036289   0.026193
     5  Na   0.025452  -0.189006   0.243099  -0.036289  -0.106180  -0.014783
     6  Na  -0.129819   0.035249  -0.039132   0.026193  -0.014783   0.425534
     7  Na   0.164304   0.298033  -0.070843  -0.010229   0.012092   0.037588
               7
     1  Na   0.164304
     2  Na   0.298033
     3  Na  -0.070843
     4  Na  -0.010229
     5  Na   0.012092
     6  Na   0.037588
     7  Na  -0.528656
 Mulliken charges and spin densities:
               1          2
     1  Na  -1.170673  -0.052776
     2  Na   0.405391   0.728808
     3  Na   0.323295   0.046384
     4  Na   0.323196   0.100078
     5  Na  -0.252307  -0.065615
     6  Na  -0.048278   0.340830
     7  Na   0.419375  -0.097710
 Sum of Mulliken charges =  -0.00000   1.00000
 Mulliken charges and spin densities with hydrogens summed into heavy atoms:
               1          2
     1  Na  -1.170673  -0.052776
     2  Na   0.405391   0.728808
     3  Na   0.323295   0.046384
     4  Na   0.323196   0.100078
     5  Na  -0.252307  -0.065615
     6  Na  -0.048278   0.340830
     7  Na   0.419375  -0.097710
 Electronic spatial extent (au):  <R**2>=           3688.4049
 Charge=             -0.0000 electrons
 Dipole moment (field-independent basis, Debye):
    X=              0.1236    Y=             -0.5111    Z=              1.0318  Tot=              1.1581
 Quadrupole moment (field-independent basis, Debye-Ang):
   XX=            -61.8431   YY=            -73.5685   ZZ=            -65.3237
   XY=              3.1030   XZ=              3.8789   YZ=             -0.9044
 Traceless Quadrupole moment (field-independent basis, Debye-Ang):
   XX=              5.0687   YY=             -6.6567   ZZ=              1.5881
   XY=              3.1030   XZ=              3.8789   YZ=             -0.9044
 Octapole moment (field-independent basis, Debye-Ang**2):
  XXX=            -38.5689  YYY=            -12.0327  ZZZ=             30.4704  XYY=            -16.5885
  XXY=              3.4278  XXZ=             19.4373  XZZ=             27.3936  YZZ=             -8.0242
  YYZ=             -6.1036  XYZ=              2.1958
 Hexadecapole moment (field-independent basis, Debye-Ang**3):
 XXXX=          -4062.5549 YYYY=          -1803.8426 ZZZZ=           -567.0971 XXXY=             79.0520
 XXXZ=             58.5760 YYYX=             81.7867 YYYZ=             -2.2430 ZZZX=             91.2513
 ZZZY=            -16.0760 XXYY=           -782.2028 XXZZ=           -743.5167 YYZZ=           -395.8571
 XXYZ=            -35.9723 YYXZ=            -30.1941 ZZXY=            -12.1460
 N-N= 2.824229618476D+02 E-N=-3.293662490097D+03  KE= 1.132742094750D+03
                          Isotropic Fermi Contact Couplings
        Atom                 a.u.       MegaHertz       Gauss      10(-4) cm-1
     1  Na(23)             0.17637     208.65423      74.45302      69.59956
     2  Na(23)             0.31590     373.72228     133.35340     124.66034
     3  Na(23)            -0.01558     -18.43559      -6.57828      -6.14945
     4  Na(23)             0.02712      32.08631      11.44919      10.70284
     5  Na(23)            -0.00677      -8.01272      -2.85914      -2.67275
     6  Na(23)             0.22322     264.08006      94.23033      88.08763
     7  Na(23)            -0.05837     -69.05807     -24.64164     -23.03529
 --------------------------------------------------------
       Center         ----  Spin Dipole Couplings  ----
                      3XX-RR        3YY-RR        3ZZ-RR
 --------------------------------------------------------
     1   Atom       -0.012482      0.001521      0.010961
     2   Atom        0.002785      0.006610     -0.009395
     3   Atom        0.023899     -0.012400     -0.011499
     4   Atom        0.010005     -0.006159     -0.003846
     5   Atom        0.002049      0.002707     -0.004757
     6   Atom        0.000488     -0.000897      0.000409
     7   Atom        0.011139      0.000534     -0.011673
 --------------------------------------------------------
                        XY            XZ            YZ
 --------------------------------------------------------
     1   Atom        0.000948     -0.004810      0.005436
     2   Atom        0.008337      0.000870     -0.003367
     3   Atom        0.000416     -0.009296      0.000202
     4   Atom       -0.011502     -0.017772      0.011522
     5   Atom       -0.007825      0.005086     -0.003834
     6   Atom        0.002281     -0.000121      0.000317
     7   Atom       -0.014789      0.002865     -0.001746
 --------------------------------------------------------


 ---------------------------------------------------------------------------------
              Anisotropic Spin Dipole Couplings in Principal Axis System
 ---------------------------------------------------------------------------------

       Atom             a.u.   MegaHertz   Gauss  10(-4) cm-1        Axes

              Baa    -0.0137    -1.936    -0.691    -0.646  0.9659 -0.1382  0.2188
     1 Na(23) Bbb    -0.0003    -0.048    -0.017    -0.016  0.2099  0.9130 -0.3497
              Bcc     0.0141     1.984     0.708     0.662 -0.1514  0.3837  0.9109
 
              Baa    -0.0107    -1.512    -0.539    -0.504 -0.2428  0.2965  0.9236
     2 Na(23) Bbb    -0.0027    -0.387    -0.138    -0.129  0.7554 -0.5396  0.3718
              Bcc     0.0134     1.899     0.678     0.633  0.6086  0.7880 -0.0930
 
              Baa    -0.0139    -1.956    -0.698    -0.652  0.2363 -0.2001  0.9508
     3 Na(23) Bbb    -0.0123    -1.743    -0.622    -0.581  0.0391  0.9797  0.1965
              Bcc     0.0262     3.699     1.320     1.234  0.9709  0.0092 -0.2394
 
              Baa    -0.0178    -2.507    -0.895    -0.836  0.3146 -0.4936  0.8108
     4 Na(23) Bbb    -0.0116    -1.643    -0.586    -0.548  0.5990  0.7659  0.2338
              Bcc     0.0294     4.151     1.481     1.385  0.7364 -0.4121 -0.5366
 
              Baa    -0.0075    -1.059    -0.378    -0.353 -0.5165 -0.0756  0.8529
     5 Na(23) Bbb    -0.0050    -0.708    -0.253    -0.236  0.5407  0.7436  0.3934
              Bcc     0.0125     1.766     0.630     0.589 -0.6640  0.6644 -0.3431
 
              Baa    -0.0026    -0.371    -0.132    -0.124 -0.5905  0.7999 -0.1071
     6 Na(23) Bbb     0.0004     0.062     0.022     0.021 -0.1055  0.0550  0.9929
              Bcc     0.0022     0.309     0.110     0.103  0.8001  0.5976  0.0519
 
              Baa    -0.0120    -1.699    -0.606    -0.567 -0.1393 -0.0265  0.9899
     7 Na(23) Bbb    -0.0099    -1.391    -0.496    -0.464  0.5637  0.8197  0.1013
              Bcc     0.0219     3.090     1.103     1.031  0.8141 -0.5721  0.0993
 

 ---------------------------------------------------------------------------------

 No NMR shielding tensors so no spin-rotation constants.
 Leave Link  601 at Fri Dec  8 18:40:40 2023, MaxMem=  1879048192 cpu:               2.3 elap:               0.2
 (Enter /home/sekinelabo/g16/l701.exe)
 ... and contract with generalized density number  0.
 Compute integral first derivatives.
 Leave Link  701 at Fri Dec  8 18:40:40 2023, MaxMem=  1879048192 cpu:               1.5 elap:               0.1
 (Enter /home/sekinelabo/g16/l702.exe)
 L702 exits ... SP integral derivatives will be done elsewhere.
 Leave Link  702 at Fri Dec  8 18:40:40 2023, MaxMem=  1879048192 cpu:               0.4 elap:               0.0
 (Enter /home/sekinelabo/g16/l703.exe)
 Integral derivatives from FoFJK, PRISM(SPDF).
 Compute integral first derivatives, UseDBF=F ICtDFT=           0.
 Calling FoFJK, ICntrl=      2127 FMM=F ISym2X=0 I1Cent= 0 IOpClX= 1 NMat=1 NMatS=1 NMatT=0.
 FoFJK:  IHMeth= 1 ICntrl=    2127 DoSepK=F KAlg= 0 I1Cent=           0 FoldK=F
 IRaf=         0 NMat=       1 IRICut=       1 DoRegI=T DoRafI=F ISym2E= 0 IDoP0=0 IntGTp=1.
 FoFCou: FMM=F IPFlag=           0 FMFlag=      100000 FMFlg1=         800
         NFxFlg=           0 DoJE=F BraDBF=F KetDBF=F FulRan=T
         wScrn=  0.000000 ICntrl=      2127 IOpCl=  1 I1Cent=           0 NGrid=           0
         NMat0=    1 NMatS0=      1 NMatT0=    0 NMatD0=    1 NMtDS0=    0 NMtDT0=    0
 Symmetry not used in FoFCou.
 Leave Link  703 at Fri Dec  8 18:40:42 2023, MaxMem=  1879048192 cpu:              29.9 elap:               2.0
 (Enter /home/sekinelabo/g16/l716.exe)
 Dipole        = 4.86231730D-02-2.01082051D-01 4.05943409D-01
 ***** Axes restored to original set *****
 -------------------------------------------------------------------
 Center     Atomic                   Forces (Hartrees/Bohr)
 Number     Number              X              Y              Z
 -------------------------------------------------------------------
      1       11           0.000549593   -0.000030807   -0.003207283
      2       11          -0.000817833   -0.000758845   -0.002102579
      3       11          -0.003657280   -0.000993245    0.006155551
      4       11          -0.002420573    0.002459608   -0.000677949
      5       11           0.000739037    0.000808322   -0.000611459
      6       11           0.003401630    0.002111374    0.000292624
      7       11           0.002205427   -0.003596407    0.000151095
 -------------------------------------------------------------------
 Cartesian Forces:  Max     0.006155551 RMS     0.002354182
 Z-matrix is all fixed cartesians, so copy forces.
 Force constants in Cartesian coordinates: 
                1             2             3             4             5 
      1  0.605020D-01
      2  0.243117D-02  0.735854D-01
      3 -0.734635D-02 -0.963542D-02  0.857406D-01
      4 -0.145861D-01 -0.818564D-02 -0.397321D-02  0.307237D-01
      5  0.150379D-02 -0.233060D-01  0.789186D-02  0.530063D-02  0.311732D-01
      6  0.103773D-01  0.374369D-02 -0.249179D-01  0.104524D-01  0.403884D-02
      7 -0.105595D-01 -0.115456D-02  0.637116D-02 -0.660303D-02  0.134317D-02
      8  0.306239D-02 -0.102911D-01 -0.373744D-02 -0.105118D-02 -0.374053D-02
      9 -0.249776D-02  0.300368D-02 -0.205052D-01  0.187193D-02  0.328168D-02
     10 -0.213871D-03  0.703465D-02 -0.392522D-03 -0.104102D-01 -0.694684D-02
     11  0.449727D-02 -0.440287D-02  0.138202D-02  0.622508D-02 -0.148689D-01
     12  0.194971D-02 -0.221660D-02  0.192127D-02 -0.345624D-02 -0.108916D-01
     13 -0.160242D-01  0.414577D-02  0.304732D-03 -0.198232D-03 -0.379171D-02
     14  0.950968D-03 -0.842527D-02 -0.222830D-02 -0.447675D-02  0.292938D-02
     15 -0.993920D-03 -0.326234D-02 -0.759167D-02 -0.179214D-02 -0.546345D-03
     16 -0.266013D-02 -0.485985D-02 -0.209253D-04  0.160624D-04  0.362839D-04
     17 -0.343921D-02  0.187165D-02  0.257952D-03 -0.156221D-04 -0.147699D-04
     18 -0.136168D-02 -0.435868D-03 -0.109310D-03 -0.117694D-03 -0.235720D-03
     19 -0.164583D-01  0.588452D-03  0.505712D-02  0.105780D-02  0.255467D-02
     20 -0.900638D-02 -0.290319D-01  0.606934D-02  0.220348D-02  0.782763D-02
     21 -0.127321D-03  0.880286D-02 -0.345377D-01 -0.298499D-02 -0.353872D-02
                6             7             8             9            10 
      6  0.387210D-01
      7 -0.127160D-01  0.267631D-01
      8 -0.678389D-02  0.112433D-02  0.254426D-01
      9 -0.205755D-01  0.112658D-02 -0.513494D-02  0.483747D-01
     10 -0.373636D-02 -0.669353D-02 -0.192480D-03  0.583889D-03  0.340258D-01
     11  0.379491D-02  0.260898D-02 -0.115876D-01 -0.757435D-03 -0.980380D-02
     12 -0.469421D-02 -0.202301D-02  0.139016D-01 -0.118395D-01  0.750344D-02
     13 -0.151620D-02 -0.251502D-02 -0.343540D-02 -0.519060D-03 -0.165384D-01
     14 -0.824890D-03 -0.457912D-02 -0.101372D-02 -0.731829D-03  0.100404D-01
     15  0.474038D-03  0.392314D-02  0.296096D-02  0.723993D-03 -0.286475D-02
     16 -0.449302D-04 -0.551700D-05  0.000000D+00  0.175955D-04 -0.220094D-03
     17  0.570792D-04 -0.239857D-04  0.484589D-04  0.557820D-04 -0.241600D-03
     18  0.349891D-03  0.507429D-04  0.131153D-04 -0.177077D-04 -0.998249D-03
     19 -0.281622D-02 -0.386496D-03  0.492413D-03 -0.583165D-03  0.503086D-04
     20 -0.402574D-02  0.681176D-03  0.114189D-02  0.283062D-03  0.109640D-03
     21  0.106427D-01  0.326736D-02 -0.121941D-02  0.383927D-02 -0.954405D-04
               11            12            13            14            15 
     11  0.481246D-01
     12  0.317243D-04  0.238890D-01
     13 -0.446036D-02 -0.490219D-02  0.435559D-01
     14 -0.192003D-01 -0.198770D-02 -0.528020D-03  0.389413D-01
     15 -0.632659D-02 -0.139280D-01  0.319802D-02  0.115530D-01  0.285246D-01
     16  0.875674D-03  0.106020D-02 -0.106182D-01 -0.574720D-02 -0.166450D-02
     17  0.184232D-02  0.137901D-02  0.419977D-02 -0.112660D-01 -0.482252D-02
     18  0.190818D-02  0.430459D-02  0.235790D-02 -0.441277D-02 -0.943801D-02
     19  0.571645D-04 -0.131912D-03  0.233807D-02  0.433968D-02  0.194148D-03
     20  0.928091D-04 -0.216447D-03  0.386995D-02 -0.196540D-02  0.443816D-03
     21 -0.328137D-04  0.346840D-03  0.107679D-02 -0.136752D-02  0.123500D-02
               16            17            18            19            20 
     16  0.248550D-01
     17  0.574350D-02  0.240922D-01
     18  0.620882D-03  0.337455D-02  0.510877D-02
     19 -0.113670D-01 -0.622285D-02 -0.551899D-03  0.247657D-01
     20  0.395167D-02 -0.165739D-01 -0.211490D-03 -0.180953D-02  0.385088D-01
     21  0.316769D-04 -0.301855D-03 -0.198230D-03 -0.116808D-02 -0.234253D-02
               21 
     21  0.186721D-01
 Leave Link  716 at Fri Dec  8 18:40:42 2023, MaxMem=  1879048192 cpu:               0.4 elap:               0.0
 (Enter /home/sekinelabo/g16/l103.exe)

 GradGradGradGradGradGradGradGradGradGradGradGradGradGradGradGradGradGrad
 Berny optimization.
 Search for a local minimum.
 Step number   1 out of a maximum of    2
 All quantities printed in internal units (Hartrees-Bohrs-Radians)
 Second derivative matrix not updated -- first step.
 ITU=  0
     Eigenvalues ---    0.00365   0.01360   0.01864   0.02776   0.03063
     Eigenvalues ---    0.03513   0.03816   0.04574   0.04661   0.05716
     Eigenvalues ---    0.06584   0.08061   0.08535   0.09626   0.12769
 Quadratic step=4.786D-01 exceeds max=3.000D-01 adjusted using Lamda=-9.350D-03.
 Angle between NR and scaled steps=   8.88 degrees.
 Angle between quadratic step and forces=  29.53 degrees.
 Linear search not attempted -- first point.
 B after Tr=     0.000000    0.000000    0.000000
         Rot=    1.000000   -0.000000    0.000000    0.000000 Ang=   0.00 deg.
 Variable       Old X    -DE/DX   Delta X   Delta X   Delta X     New X
                                 (Linear)    (Quad)   (Total)
    X1       23.86271   0.00055   0.00000   0.00677   0.00677  23.86948
    Y1       27.09754  -0.00003   0.00000  -0.02327  -0.02327  27.07427
    Z1       25.38658  -0.00321   0.00000  -0.02706  -0.02706  25.35952
    X2       31.27251  -0.00082   0.00000  -0.06336  -0.06336  31.20915
    Y2       25.87073  -0.00076   0.00000  -0.00849  -0.00849  25.86224
    Z2       27.05691  -0.00210   0.00000  -0.04824  -0.04824  27.00867
    X3       28.80604  -0.00366   0.00000  -0.13369  -0.13369  28.67235
    Y3       25.33064  -0.00099   0.00000  -0.01524  -0.01524  25.31541
    Z3       20.61842   0.00616   0.00000   0.09113   0.09113  20.70956
    X4       29.07363  -0.00242   0.00000  -0.08966  -0.08966  28.98396
    Y4       19.46210   0.00246   0.00000   0.04993   0.04993  19.51203
    Z4       24.52411  -0.00068   0.00000   0.00729   0.00729  24.53140
    X5       22.68352   0.00074   0.00000   0.01592   0.01592  22.69943
    Y5       19.86801   0.00081   0.00000   0.04661   0.04661  19.91462
    Z5       22.86228  -0.00061   0.00000  -0.01383  -0.01383  22.84846
    X6       15.59965   0.00340   0.00000   0.14897   0.14897  15.74862
    Y6       22.20258   0.00211   0.00000   0.02996   0.02996  22.23254
    Z6       23.85912   0.00029   0.00000  -0.00214  -0.00214  23.85698
    X7       17.27402   0.00221   0.00000   0.11505   0.11505  17.38908
    Y7       28.74066  -0.00360   0.00000  -0.07951  -0.07951  28.66114
    Z7       24.26465   0.00015   0.00000  -0.00716  -0.00716  24.25749
         Item               Value     Threshold  Converged?
 Maximum Force            0.006156     0.000450     NO 
 RMS     Force            0.002354     0.000300     NO 
 Maximum Displacement     0.148969     0.001800     NO 
 RMS     Displacement     0.065483     0.001200     NO 
 Predicted change in Energy=-1.829359D-03
 GradGradGradGradGradGradGradGradGradGradGradGradGradGradGradGradGradGrad

 Leave Link  103 at Fri Dec  8 18:40:42 2023, MaxMem=  1879048192 cpu:               0.2 elap:               0.0
 (Enter /home/sekinelabo/g16/l9999.exe)
 1\1\GINC-SEKINELABO-XA7R-R37\Force\UB3LYP\6-311+G(d)\Na7(2)\SEKINELABO
 \08-Dec-2023\0\\#P B3LYP/6-311+g(d) force\\DPGEN\\0,2\Na,12.6276,14.33
 94,13.434\Na,16.5487,13.6902,14.3179\Na,15.2435,13.4044,10.9108\Na,15.
 3851,10.2989,12.9776\Na,12.0036,10.5137,12.0982\Na,8.25498,11.7491,12.
 6257\Na,9.14102,15.2089,12.8403\\Version=ES64L-G16RevB.01\State=2-A\HF
 =-1136.1084845\S2=0.79498\S2-1=0.\S2A=0.750913\RMSD=5.141e-09\RMSF=2.3
 54e-03\Dipole=0.0909222,0.2643909,-0.3597483\Quadrupole=3.6188034,-4.0
 805919,0.4617885,-2.4841099,-3.2843071,-1.4824737\PG=C01 [X(Na7)]\\@


 I take a simple view of life: keep your eyes open and get on with it.
 -- Laurence Olivier
 Job cpu time:       0 days  0 hours  4 minutes 42.7 seconds.
 Elapsed time:       0 days  0 hours  0 minutes 24.5 seconds.
 File lengths (MBytes):  RWF=     32 Int=      0 D2E=      0 Chk=      4 Scr=      1
 Normal termination of Gaussian 16 at Fri Dec  8 18:40:42 2023.
