 Set GAUSS_MDEF to "14GB".
 Entering Gaussian System, Link 0=g16
 Initial command:
 /home/sekinelabo/g16/l1.exe "/home/sekinelabo/g16temp/Gau-811821.inp" -scrdir="/home/sekinelabo/g16temp/"
 Entering Link 1 = /home/sekinelabo/g16/l1.exe PID=    811823.
  
 Copyright (c) 1988-2017, Gaussian, Inc.  All Rights Reserved.
  
 This is part of the Gaussian(R) 16 program.  It is based on
 the Gaussian(R) 09 system (copyright 2009, Gaussian, Inc.),
 the Gaussian(R) 03 system (copyright 2003, Gaussian, Inc.),
 the Gaussian(R) 98 system (copyright 1998, Gaussian, Inc.),
 the Gaussian(R) 94 system (copyright 1995, Gaussian, Inc.),
 the Gaussian 92(TM) system (copyright 1992, Gaussian, Inc.),
 the Gaussian 90(TM) system (copyright 1990, Gaussian, Inc.),
 the Gaussian 88(TM) system (copyright 1988, Gaussian, Inc.),
 the Gaussian 86(TM) system (copyright 1986, Carnegie Mellon
 University), and the Gaussian 82(TM) system (copyright 1983,
 Carnegie Mellon University). Gaussian is a federally registered
 trademark of Gaussian, Inc.
  
 This software contains proprietary and confidential information,
 including trade secrets, belonging to Gaussian, Inc.
  
 This software is provided under written license and may be
 used, copied, transmitted, or stored only in accord with that
 written license.
  
 The following legend is applicable only to US Government
 contracts under FAR:
  
                    RESTRICTED RIGHTS LEGEND
  
 Use, reproduction and disclosure by the US Government is
 subject to restrictions as set forth in subparagraphs (a)
 and (c) of the Commercial Computer Software - Restricted
 Rights clause in FAR 52.227-19.
  
 Gaussian, Inc.
 340 Quinnipiac St., Bldg. 40, Wallingford CT 06492
  
  
 ---------------------------------------------------------------
 Warning -- This program may not be used in any manner that
 competes with the business of Gaussian, Inc. or will provide
 assistance to any competitor of Gaussian, Inc.  The licensee
 of this program is prohibited from giving any competitor of
 Gaussian, Inc. access to this program.  By using this program,
 the user acknowledges that Gaussian, Inc. is engaged in the
 business of creating and licensing software in the field of
 computational chemistry and represents and warrants to the
 licensee that it is not a competitor of Gaussian, Inc. and that
 it will not use this program in any manner prohibited above.
 ---------------------------------------------------------------
  

 Cite this work as:
 Gaussian 16, Revision B.01,
 M. J. Frisch, G. W. Trucks, H. B. Schlegel, G. E. Scuseria, 
 M. A. Robb, J. R. Cheeseman, G. Scalmani, V. Barone, 
 G. A. Petersson, H. Nakatsuji, X. Li, M. Caricato, A. V. Marenich, 
 J. Bloino, B. G. Janesko, R. Gomperts, B. Mennucci, H. P. Hratchian, 
 J. V. Ortiz, A. F. Izmaylov, J. L. Sonnenberg, D. Williams-Young, 
 F. Ding, F. Lipparini, F. Egidi, J. Goings, B. Peng, A. Petrone, 
 T. Henderson, D. Ranasinghe, V. G. Zakrzewski, J. Gao, N. Rega, 
 G. Zheng, W. Liang, M. Hada, M. Ehara, K. Toyota, R. Fukuda, 
 J. Hasegawa, M. Ishida, T. Nakajima, Y. Honda, O. Kitao, H. Nakai, 
 T. Vreven, K. Throssell, J. A. Montgomery, Jr., J. E. Peralta, 
 F. Ogliaro, M. J. Bearpark, J. J. Heyd, E. N. Brothers, K. N. Kudin, 
 V. N. Staroverov, T. A. Keith, R. Kobayashi, J. Normand, 
 K. Raghavachari, A. P. Rendell, J. C. Burant, S. S. Iyengar, 
 J. Tomasi, M. Cossi, J. M. Millam, M. Klene, C. Adamo, R. Cammi, 
 J. W. Ochterski, R. L. Martin, K. Morokuma, O. Farkas, 
 J. B. Foresman, and D. J. Fox, Gaussian, Inc., Wallingford CT, 2016.
 
 ******************************************
 Gaussian 16:  ES64L-G16RevB.01 20-Dec-2017
                 3-Dec-2023 
 ******************************************
 %nproc=15
 Will use up to   15 processors via shared memory.
 -------------------------
 #P B3LYP/6-311+g(d) force
 -------------------------
 1/10=7,30=1,38=1/1,3;
 2/12=2,17=6,18=5,40=1/2;
 3/5=4,6=6,7=11,11=2,25=1,30=1,71=1,74=-5/1,2,3;
 4//1;
 5/5=2,38=5/2;
 6/7=2,8=2,9=2,10=2,28=1/1;
 7/29=1/1,2,3,16;
 1/10=7,30=1/3;
 99//99;
 Leave Link    1 at Sun Dec  3 20:32:33 2023, MaxMem=           0 cpu:               0.3 elap:               0.0
 (Enter /home/sekinelabo/g16/l101.exe)
 -----
 DPGEN
 -----
 Symbolic Z-matrix:
 Charge =  0 Multiplicity = 2
 Na                    12.8375   9.81288   13.2692 
 Na                    10.5825   13.4655   13.7494 
 Na                    12.738    10.7131   9.92266 
 Na                    14.3829   12.7724   12.9541 
 Na                    11.7006   14.6879   10.9048 
 Na                    12.6329   11.6332   16.5317 
 Na                    10.8438   12.6332   8.38629 
 
 ITRead=  0  0  0  0  0  0  0
 MicOpt= -1 -1 -1 -1 -1 -1 -1
 NAtoms=      7 NQM=        7 NQMF=       0 NMMI=      0 NMMIF=      0
                NMic=       0 NMicF=      0.
                    Isotopes and Nuclear Properties:
 (Nuclear quadrupole moments (NQMom) in fm**2, nuclear magnetic moments (NMagM)
  in nuclear magnetons)

  Atom         1           2           3           4           5           6           7
 IAtWgt=          23          23          23          23          23          23          23
 AtmWgt=  22.9897697  22.9897697  22.9897697  22.9897697  22.9897697  22.9897697  22.9897697
 NucSpn=           3           3           3           3           3           3           3
 AtZEff=  -0.0000000  -0.0000000  -0.0000000  -0.0000000  -0.0000000  -0.0000000  -0.0000000
 NQMom=   10.4000000  10.4000000  10.4000000  10.4000000  10.4000000  10.4000000  10.4000000
 NMagM=    2.2175200   2.2175200   2.2175200   2.2175200   2.2175200   2.2175200   2.2175200
 AtZNuc=  11.0000000  11.0000000  11.0000000  11.0000000  11.0000000  11.0000000  11.0000000
 Leave Link  101 at Sun Dec  3 20:32:33 2023, MaxMem=  1879048192 cpu:               2.5 elap:               0.2
 (Enter /home/sekinelabo/g16/l103.exe)

 GradGradGradGradGradGradGradGradGradGradGradGradGradGradGradGradGradGrad
 Berny optimization.
 Initialization pass.
 Trust Radius=3.00D-01 FncErr=1.00D-07 GrdErr=1.00D-07 EigMax=2.50D+02 EigMin=1.00D-04
 Number of steps in this run=      2 maximum allowed number of steps=      2.
 GradGradGradGradGradGradGradGradGradGradGradGradGradGradGradGradGradGrad

 Leave Link  103 at Sun Dec  3 20:32:33 2023, MaxMem=  1879048192 cpu:               0.2 elap:               0.0
 (Enter /home/sekinelabo/g16/l202.exe)
                          Input orientation:                          
 ---------------------------------------------------------------------
 Center     Atomic      Atomic             Coordinates (Angstroms)
 Number     Number       Type             X           Y           Z
 ---------------------------------------------------------------------
      1         11           0       12.837500    9.812880   13.269200
      2         11           0       10.582500   13.465500   13.749400
      3         11           0       12.738000   10.713100    9.922660
      4         11           0       14.382900   12.772400   12.954100
      5         11           0       11.700600   14.687900   10.904800
      6         11           0       12.632900   11.633200   16.531700
      7         11           0       10.843800   12.633200    8.386290
 ---------------------------------------------------------------------
                    Distance matrix (angstroms):
                    1          2          3          4          5
     1  Na   0.000000
     2  Na   4.319404   0.000000
     3  Na   3.466933   5.183225   0.000000
     4  Na   3.353552   3.944101   4.016969   0.000000
     5  Na   5.536131   3.291832   4.223723   3.881173   0.000000
     6  Na   3.741568   3.911861   6.673608   4.142402   6.470114
     7  Na   5.980958   5.433595   3.104064   5.780095   3.361367
                    6          7
     6  Na   0.000000
     7  Na   8.399320   0.000000
 Stoichiometry    Na7(2)
 Framework group  C1[X(Na7)]
 Deg. of freedom    15
 Full point group                 C1      NOp   1
 Largest Abelian subgroup         C1      NOp   1
 Largest concise Abelian subgroup C1      NOp   1
                         Standard orientation:                         
 ---------------------------------------------------------------------
 Center     Atomic      Atomic             Coordinates (Angstroms)
 Number     Number       Type             X           Y           Z
 ---------------------------------------------------------------------
      1         11           0        1.512367    2.143904   -0.657587
      2         11           0        0.927539   -2.113875   -1.089498
      3         11           0       -1.892959    2.098260   -0.008512
      4         11           0        1.009844    0.251848    2.065262
      5         11           0       -1.811238   -2.058537    0.735931
      6         11           0        4.321055   -0.310026   -0.359543
      7         11           0       -4.066608   -0.011574   -0.686053
 ---------------------------------------------------------------------
 Rotational constants (GHZ):           0.8831590           0.4126950           0.3429194
 Leave Link  202 at Sun Dec  3 20:32:33 2023, MaxMem=  1879048192 cpu:               0.0 elap:               0.0
 (Enter /home/sekinelabo/g16/l301.exe)
 Standard basis: 6-311+G(d) (5D, 7F)
 Ernie: Thresh=  0.10000D-02 Tol=  0.10000D-05 Strict=F.
 There are   217 symmetry adapted cartesian basis functions of A   symmetry.
 There are   210 symmetry adapted basis functions of A   symmetry.
   210 basis functions,   350 primitive gaussians,   217 cartesian basis functions
    39 alpha electrons       38 beta electrons
       nuclear repulsion energy       308.8862330448 Hartrees.
 IExCor=  402 DFT=T Ex+Corr=B3LYP ExCW=0 ScaHFX=  0.200000
 ScaDFX=  0.800000  0.720000  1.000000  0.810000 ScalE2=  1.000000  1.000000
 IRadAn=      5 IRanWt=     -1 IRanGd=            0 ICorTp=0 IEmpDi=  4
 NAtoms=    7 NActive=    7 NUniq=    7 SFac= 1.00D+00 NAtFMM=   60 NAOKFM=F Big=F
 Integral buffers will be    131072 words long.
 Raffenetti 2 integral format.
 Two-electron integral symmetry is turned on.
 Leave Link  301 at Sun Dec  3 20:32:33 2023, MaxMem=  1879048192 cpu:               0.5 elap:               0.0
 (Enter /home/sekinelabo/g16/l302.exe)
 NPDir=0 NMtPBC=     1 NCelOv=     1 NCel=       1 NClECP=     1 NCelD=      1
         NCelK=      1 NCelE2=     1 NClLst=     1 CellRange=     0.0.
 One-electron integrals computed using PRISM.
 One-electron integral symmetry used in STVInt
 NBasis=   210 RedAO= T EigKep=  7.21D-06  NBF=   210
 NBsUse=   210 1.00D-06 EigRej= -1.00D+00 NBFU=   210
 Precomputing XC quadrature grid using
 IXCGrd= 4 IRadAn=           5 IRanWt=          -1 IRanGd=           0 AccXCQ= 0.00D+00.
 Generated NRdTot=       0 NPtTot=           0 NUsed=           0 NTot=          32
 NSgBfM=   208   208   208   208   208 MxSgAt=     7 MxSgA2=     7.
 Leave Link  302 at Sun Dec  3 20:32:33 2023, MaxMem=  1879048192 cpu:               2.0 elap:               0.1
 (Enter /home/sekinelabo/g16/l303.exe)
 DipDrv:  MaxL=1.
 Leave Link  303 at Sun Dec  3 20:32:33 2023, MaxMem=  1879048192 cpu:               0.5 elap:               0.0
 (Enter /home/sekinelabo/g16/l401.exe)
 ExpMin= 7.60D-03 ExpMax= 3.62D+04 ExpMxC= 1.21D+03 IAcc=3 IRadAn=         5 AccDes= 0.00D+00
 Harris functional with IExCor=  402 and IRadAn=       5 diagonalized for initial guess.
 HarFok:  IExCor=  402 AccDes= 0.00D+00 IRadAn=         5 IDoV= 1 UseB2=F ITyADJ=14
 ICtDFT=  3500011 ScaDFX=  1.000000  1.000000  1.000000  1.000000
 FoFCou: FMM=F IPFlag=           0 FMFlag=      100000 FMFlg1=           0
         NFxFlg=           0 DoJE=T BraDBF=F KetDBF=T FulRan=T
         wScrn=  0.000000 ICntrl=       500 IOpCl=  0 I1Cent=   200000004 NGrid=           0
         NMat0=    1 NMatS0=      1 NMatT0=    0 NMatD0=    1 NMtDS0=    0 NMtDT0=    0
 Petite list used in FoFCou.
 Harris En= -1135.89039381483    
 JPrj=0 DoOrth=F DoCkMO=F.
 Initial guess <Sx>= 0.0000 <Sy>= 0.0000 <Sz>= 0.5000 <S**2>= 0.7500 S= 0.5000
 Leave Link  401 at Sun Dec  3 20:32:33 2023, MaxMem=  1879048192 cpu:               4.3 elap:               0.3
 (Enter /home/sekinelabo/g16/l502.exe)
 Keep R1 and R2 ints in memory in canonical form, NReq=506573293.
 FoFCou: FMM=F IPFlag=           0 FMFlag=           0 FMFlg1=           0
         NFxFlg=           0 DoJE=F BraDBF=F KetDBF=F FulRan=T
         wScrn=  0.000000 ICntrl=       600 IOpCl=  0 I1Cent=           0 NGrid=           0
         NMat0=    1 NMatS0=  22155 NMatT0=    0 NMatD0=    1 NMtDS0=    0 NMtDT0=    0
 Symmetry not used in FoFCou.
 Two-electron integral symmetry not used.
 UHF open shell SCF:
 Using DIIS extrapolation, IDIIS=  1040.
 NGot=  1879048192 LenX=  1388082607 LenY=  1388035077
 Requested convergence on RMS density matrix=1.00D-08 within 128 cycles.
 Requested convergence on MAX density matrix=1.00D-06.
 Requested convergence on             energy=1.00D-06.
 No special actions if energy rises.

 Cycle   1  Pass 1  IDiag  1:
 E= -1136.09089105182    
 DIIS: error= 1.03D-02 at cycle   1 NSaved=   1.
 NSaved= 1 IEnMin= 1 EnMin= -1136.09089105182     IErMin= 1 ErrMin= 1.03D-02
 ErrMax= 1.03D-02  0.00D+00 EMaxC= 1.00D-01 BMatC= 1.87D-01 BMatP= 1.87D-01
 IDIUse=3 WtCom= 8.97D-01 WtEn= 1.03D-01
 Coeff-Com:  0.100D+01
 Coeff-En:   0.100D+01
 Coeff:      0.100D+01
 Gap=     0.039 Goal=   None    Shift=    0.000
 Gap=     0.030 Goal=   None    Shift=    0.000
 GapD=    0.030 DampG=0.250 DampE=0.500 DampFc=0.2500 IDamp=-1.
 Damping current iteration by 2.50D-01
 RMSDP=7.54D-03 MaxDP=3.54D-01              OVMax= 2.08D-01

 Cycle   2  Pass 1  IDiag  1:
 E= -1136.10096415605     Delta-E=       -0.010073104225 Rises=F Damp=T
 DIIS: error= 7.22D-03 at cycle   2 NSaved=   2.
 NSaved= 2 IEnMin= 2 EnMin= -1136.10096415605     IErMin= 2 ErrMin= 7.22D-03
 ErrMax= 7.22D-03  0.00D+00 EMaxC= 1.00D-01 BMatC= 7.15D-02 BMatP= 1.87D-01
 IDIUse=3 WtCom= 9.28D-01 WtEn= 7.22D-02
 Coeff-Com: -0.127D+01 0.227D+01
 Coeff-En:   0.000D+00 0.100D+01
 Coeff:     -0.118D+01 0.218D+01
 Gap=     0.044 Goal=   None    Shift=    0.000
 Gap=     0.046 Goal=   None    Shift=    0.000
 RMSDP=4.97D-03 MaxDP=4.79D-01 DE=-1.01D-02 OVMax= 2.34D-01

 Cycle   3  Pass 1  IDiag  1:
 E= -1136.11507505732     Delta-E=       -0.014110901275 Rises=F Damp=F
 DIIS: error= 4.06D-03 at cycle   3 NSaved=   3.
 NSaved= 3 IEnMin= 3 EnMin= -1136.11507505732     IErMin= 3 ErrMin= 4.06D-03
 ErrMax= 4.06D-03  0.00D+00 EMaxC= 1.00D-01 BMatC= 4.32D-03 BMatP= 7.15D-02
 IDIUse=3 WtCom= 9.59D-01 WtEn= 4.06D-02
 Coeff-Com: -0.307D+00 0.534D+00 0.774D+00
 Coeff-En:   0.000D+00 0.000D+00 0.100D+01
 Coeff:     -0.295D+00 0.512D+00 0.783D+00
 Gap=     0.042 Goal=   None    Shift=    0.000
 Gap=     0.039 Goal=   None    Shift=    0.000
 RMSDP=2.85D-03 MaxDP=1.47D-01 DE=-1.41D-02 OVMax= 1.94D-01

 Cycle   4  Pass 1  IDiag  1:
 E= -1136.10935558838     Delta-E=        0.005719468939 Rises=F Damp=F
 DIIS: error= 6.21D-03 at cycle   4 NSaved=   4.
 NSaved= 4 IEnMin= 3 EnMin= -1136.11507505732     IErMin= 3 ErrMin= 4.06D-03
 ErrMax= 6.21D-03  0.00D+00 EMaxC= 1.00D-01 BMatC= 8.22D-03 BMatP= 4.32D-03
 IDIUse=3 WtCom= 1.13D-01 WtEn= 8.87D-01
 Coeff-Com: -0.153D-01 0.244D-01 0.579D+00 0.412D+00
 Coeff-En:   0.000D+00 0.000D+00 0.625D+00 0.375D+00
 Coeff:     -0.173D-02 0.275D-02 0.620D+00 0.379D+00
 Gap=     0.040 Goal=   None    Shift=    0.000
 Gap=     0.040 Goal=   None    Shift=    0.000
 RMSDP=1.42D-03 MaxDP=6.97D-02 DE= 5.72D-03 OVMax= 1.19D-01

 Cycle   5  Pass 1  IDiag  1:
 E= -1136.12086545122     Delta-E=       -0.011509862835 Rises=F Damp=F
 DIIS: error= 9.25D-04 at cycle   5 NSaved=   5.
 NSaved= 5 IEnMin= 5 EnMin= -1136.12086545122     IErMin= 5 ErrMin= 9.25D-04
 ErrMax= 9.25D-04  0.00D+00 EMaxC= 1.00D-01 BMatC= 2.33D-04 BMatP= 4.32D-03
 IDIUse=3 WtCom= 9.91D-01 WtEn= 9.25D-03
 Coeff-Com:  0.199D-02-0.354D-02 0.297D+00 0.151D+00 0.554D+00
 Coeff-En:   0.000D+00 0.000D+00 0.000D+00 0.000D+00 0.100D+01
 Coeff:      0.198D-02-0.350D-02 0.294D+00 0.150D+00 0.558D+00
 Gap=     0.038 Goal=   None    Shift=    0.000
 Gap=     0.042 Goal=   None    Shift=    0.000
 RMSDP=3.44D-04 MaxDP=1.46D-02 DE=-1.15D-02 OVMax= 1.90D-02

 Cycle   6  Pass 1  IDiag  1:
 E= -1136.12108942648     Delta-E=       -0.000223975258 Rises=F Damp=F
 DIIS: error= 2.74D-04 at cycle   6 NSaved=   6.
 NSaved= 6 IEnMin= 6 EnMin= -1136.12108942648     IErMin= 6 ErrMin= 2.74D-04
 ErrMax= 2.74D-04  0.00D+00 EMaxC= 1.00D-01 BMatC= 1.92D-05 BMatP= 2.33D-04
 IDIUse=3 WtCom= 9.97D-01 WtEn= 2.74D-03
 Coeff-Com:  0.703D-03-0.146D-02-0.185D-01-0.499D-01 0.235D+00 0.834D+00
 Coeff-En:   0.000D+00 0.000D+00 0.000D+00 0.000D+00 0.000D+00 0.100D+01
 Coeff:      0.701D-03-0.146D-02-0.184D-01-0.497D-01 0.235D+00 0.834D+00
 Gap=     0.038 Goal=   None    Shift=    0.000
 Gap=     0.042 Goal=   None    Shift=    0.000
 RMSDP=1.56D-04 MaxDP=6.26D-03 DE=-2.24D-04 OVMax= 6.87D-03

 Cycle   7  Pass 1  IDiag  1:
 E= -1136.12112025178     Delta-E=       -0.000030825305 Rises=F Damp=F
 DIIS: error= 8.68D-05 at cycle   7 NSaved=   7.
 NSaved= 7 IEnMin= 7 EnMin= -1136.12112025178     IErMin= 7 ErrMin= 8.68D-05
 ErrMax= 8.68D-05  0.00D+00 EMaxC= 1.00D-01 BMatC= 2.60D-06 BMatP= 1.92D-05
 IDIUse=1 WtCom= 1.00D+00 WtEn= 0.00D+00
 Coeff-Com:  0.359D-03-0.706D-03-0.285D-01-0.346D-01 0.793D-01 0.399D+00
 Coeff-Com:  0.585D+00
 Coeff:      0.359D-03-0.706D-03-0.285D-01-0.346D-01 0.793D-01 0.399D+00
 Coeff:      0.585D+00
 Gap=     0.038 Goal=   None    Shift=    0.000
 Gap=     0.042 Goal=   None    Shift=    0.000
 RMSDP=4.73D-05 MaxDP=2.11D-03 DE=-3.08D-05 OVMax= 3.23D-03

 Cycle   8  Pass 1  IDiag  1:
 E= -1136.12112419320     Delta-E=       -0.000003941419 Rises=F Damp=F
 DIIS: error= 4.64D-05 at cycle   8 NSaved=   8.
 NSaved= 8 IEnMin= 8 EnMin= -1136.12112419320     IErMin= 8 ErrMin= 4.64D-05
 ErrMax= 4.64D-05  0.00D+00 EMaxC= 1.00D-01 BMatC= 5.81D-07 BMatP= 2.60D-06
 IDIUse=1 WtCom= 1.00D+00 WtEn= 0.00D+00
 Coeff-Com:  0.930D-04-0.932D-04-0.927D-02 0.163D-02-0.547D-01-0.131D+00
 Coeff-Com:  0.268D+00 0.925D+00
 Coeff:      0.930D-04-0.932D-04-0.927D-02 0.163D-02-0.547D-01-0.131D+00
 Coeff:      0.268D+00 0.925D+00
 Gap=     0.038 Goal=   None    Shift=    0.000
 Gap=     0.042 Goal=   None    Shift=    0.000
 RMSDP=4.89D-05 MaxDP=2.26D-03 DE=-3.94D-06 OVMax= 2.14D-03

 Cycle   9  Pass 1  IDiag  1:
 E= -1136.12112584595     Delta-E=       -0.000001652755 Rises=F Damp=F
 DIIS: error= 2.53D-05 at cycle   9 NSaved=   9.
 NSaved= 9 IEnMin= 9 EnMin= -1136.12112584595     IErMin= 9 ErrMin= 2.53D-05
 ErrMax= 2.53D-05  0.00D+00 EMaxC= 1.00D-01 BMatC= 2.07D-07 BMatP= 5.81D-07
 IDIUse=1 WtCom= 1.00D+00 WtEn= 0.00D+00
 Coeff-Com:  0.641D-04-0.422D-04-0.158D-02 0.637D-02-0.460D-01-0.134D+00
 Coeff-Com:  0.728D-01 0.544D+00 0.558D+00
 Coeff:      0.641D-04-0.422D-04-0.158D-02 0.637D-02-0.460D-01-0.134D+00
 Coeff:      0.728D-01 0.544D+00 0.558D+00
 Gap=     0.038 Goal=   None    Shift=    0.000
 Gap=     0.042 Goal=   None    Shift=    0.000
 RMSDP=1.34D-05 MaxDP=5.23D-04 DE=-1.65D-06 OVMax= 1.00D-03

 Cycle  10  Pass 1  IDiag  1:
 E= -1136.12112626743     Delta-E=       -0.000000421475 Rises=F Damp=F
 DIIS: error= 1.11D-05 at cycle  10 NSaved=  10.
 NSaved=10 IEnMin=10 EnMin= -1136.12112626743     IErMin=10 ErrMin= 1.11D-05
 ErrMax= 1.11D-05  0.00D+00 EMaxC= 1.00D-01 BMatC= 3.15D-08 BMatP= 2.07D-07
 IDIUse=1 WtCom= 1.00D+00 WtEn= 0.00D+00
 Coeff-Com:  0.217D-04-0.184D-04 0.156D-02 0.153D-02-0.175D-02-0.172D-02
 Coeff-Com: -0.432D-01-0.838D-01 0.218D+00 0.910D+00
 Coeff:      0.217D-04-0.184D-04 0.156D-02 0.153D-02-0.175D-02-0.172D-02
 Coeff:     -0.432D-01-0.838D-01 0.218D+00 0.910D+00
 Gap=     0.038 Goal=   None    Shift=    0.000
 Gap=     0.042 Goal=   None    Shift=    0.000
 RMSDP=8.83D-06 MaxDP=3.85D-04 DE=-4.21D-07 OVMax= 7.23D-04

 Cycle  11  Pass 1  IDiag  1:
 E= -1136.12112640615     Delta-E=       -0.000000138722 Rises=F Damp=F
 DIIS: error= 3.96D-06 at cycle  11 NSaved=  11.
 NSaved=11 IEnMin=11 EnMin= -1136.12112640615     IErMin=11 ErrMin= 3.96D-06
 ErrMax= 3.96D-06  0.00D+00 EMaxC= 1.00D-01 BMatC= 5.35D-09 BMatP= 3.15D-08
 IDIUse=1 WtCom= 1.00D+00 WtEn= 0.00D+00
 Coeff-Com: -0.404D-04 0.463D-04 0.112D-02-0.119D-02 0.104D-01 0.299D-01
 Coeff-Com: -0.223D-01-0.139D+00-0.991D-01 0.522D-01 0.117D+01
 Coeff:     -0.404D-04 0.463D-04 0.112D-02-0.119D-02 0.104D-01 0.299D-01
 Coeff:     -0.223D-01-0.139D+00-0.991D-01 0.522D-01 0.117D+01
 Gap=     0.038 Goal=   None    Shift=    0.000
 Gap=     0.042 Goal=   None    Shift=    0.000
 RMSDP=7.80D-06 MaxDP=4.15D-04 DE=-1.39D-07 OVMax= 5.86D-04

 Cycle  12  Pass 1  IDiag  1:
 E= -1136.12112645972     Delta-E=       -0.000000053572 Rises=F Damp=F
 DIIS: error= 2.00D-06 at cycle  12 NSaved=  12.
 NSaved=12 IEnMin=12 EnMin= -1136.12112645972     IErMin=12 ErrMin= 2.00D-06
 ErrMax= 2.00D-06  0.00D+00 EMaxC= 1.00D-01 BMatC= 1.21D-09 BMatP= 5.35D-09
 IDIUse=1 WtCom= 1.00D+00 WtEn= 0.00D+00
 Coeff-Com:  0.615D-05-0.139D-04-0.286D-03-0.540D-03 0.175D-02 0.468D-02
 Coeff-Com:  0.331D-02 0.377D-03-0.399D-01-0.182D+00 0.902D-03 0.121D+01
 Coeff:      0.615D-05-0.139D-04-0.286D-03-0.540D-03 0.175D-02 0.468D-02
 Coeff:      0.331D-02 0.377D-03-0.399D-01-0.182D+00 0.902D-03 0.121D+01
 Gap=     0.038 Goal=   None    Shift=    0.000
 Gap=     0.042 Goal=   None    Shift=    0.000
 RMSDP=5.18D-06 MaxDP=2.04D-04 DE=-5.36D-08 OVMax= 3.75D-04

 Cycle  13  Pass 1  IDiag  1:
 E= -1136.12112647500     Delta-E=       -0.000000015274 Rises=F Damp=F
 DIIS: error= 1.10D-06 at cycle  13 NSaved=  13.
 NSaved=13 IEnMin=13 EnMin= -1136.12112647500     IErMin=13 ErrMin= 1.10D-06
 ErrMax= 1.10D-06  0.00D+00 EMaxC= 1.00D-01 BMatC= 3.72D-10 BMatP= 1.21D-09
 IDIUse=1 WtCom= 1.00D+00 WtEn= 0.00D+00
 Coeff-Com:  0.804D-05-0.104D-04-0.381D-03 0.115D-03-0.200D-02-0.537D-02
 Coeff-Com:  0.735D-02 0.288D-01 0.125D-01-0.646D-01-0.256D+00 0.330D+00
 Coeff-Com:  0.949D+00
 Coeff:      0.804D-05-0.104D-04-0.381D-03 0.115D-03-0.200D-02-0.537D-02
 Coeff:      0.735D-02 0.288D-01 0.125D-01-0.646D-01-0.256D+00 0.330D+00
 Coeff:      0.949D+00
 Gap=     0.038 Goal=   None    Shift=    0.000
 Gap=     0.042 Goal=   None    Shift=    0.000
 RMSDP=2.56D-06 MaxDP=1.19D-04 DE=-1.53D-08 OVMax= 1.89D-04

 Cycle  14  Pass 1  IDiag  1:
 E= -1136.12112647858     Delta-E=       -0.000000003579 Rises=F Damp=F
 DIIS: error= 6.29D-07 at cycle  14 NSaved=  14.
 NSaved=14 IEnMin=14 EnMin= -1136.12112647858     IErMin=14 ErrMin= 6.29D-07
 ErrMax= 6.29D-07  0.00D+00 EMaxC= 1.00D-01 BMatC= 1.05D-10 BMatP= 3.72D-10
 IDIUse=1 WtCom= 1.00D+00 WtEn= 0.00D+00
 Coeff-Com:  0.552D-06 0.950D-06 0.335D-04 0.121D-03-0.350D-03-0.901D-03
 Coeff-Com: -0.121D-02-0.169D-02 0.140D-01 0.519D-01 0.264D-02-0.361D+00
 Coeff-Com:  0.166D-01 0.128D+01
 Coeff:      0.552D-06 0.950D-06 0.335D-04 0.121D-03-0.350D-03-0.901D-03
 Coeff:     -0.121D-02-0.169D-02 0.140D-01 0.519D-01 0.264D-02-0.361D+00
 Coeff:      0.166D-01 0.128D+01
 Gap=     0.038 Goal=   None    Shift=    0.000
 Gap=     0.042 Goal=   None    Shift=    0.000
 RMSDP=1.85D-06 MaxDP=8.58D-05 DE=-3.58D-09 OVMax= 1.33D-04

 Cycle  15  Pass 1  IDiag  1:
 E= -1136.12112648004     Delta-E=       -0.000000001459 Rises=F Damp=F
 DIIS: error= 3.17D-07 at cycle  15 NSaved=  15.
 NSaved=15 IEnMin=15 EnMin= -1136.12112648004     IErMin=15 ErrMin= 3.17D-07
 ErrMax= 3.17D-07  0.00D+00 EMaxC= 1.00D-01 BMatC= 3.22D-11 BMatP= 1.05D-10
 IDIUse=1 WtCom= 1.00D+00 WtEn= 0.00D+00
 Coeff-Com: -0.253D-05 0.364D-05 0.102D-03-0.128D-04 0.393D-03 0.104D-02
 Coeff-Com: -0.137D-02-0.611D-02-0.274D-02 0.168D-01 0.543D-01-0.775D-01
 Coeff-Com: -0.201D+00-0.814D-01 0.130D+01
 Coeff:     -0.253D-05 0.364D-05 0.102D-03-0.128D-04 0.393D-03 0.104D-02
 Coeff:     -0.137D-02-0.611D-02-0.274D-02 0.168D-01 0.543D-01-0.775D-01
 Coeff:     -0.201D+00-0.814D-01 0.130D+01
 Gap=     0.038 Goal=   None    Shift=    0.000
 Gap=     0.042 Goal=   None    Shift=    0.000
 RMSDP=1.02D-06 MaxDP=4.81D-05 DE=-1.46D-09 OVMax= 7.73D-05

 Cycle  16  Pass 1  IDiag  1:
 E= -1136.12112648062     Delta-E=       -0.000000000584 Rises=F Damp=F
 DIIS: error= 2.33D-07 at cycle  16 NSaved=  16.
 NSaved=16 IEnMin=16 EnMin= -1136.12112648062     IErMin=16 ErrMin= 2.33D-07
 ErrMax= 2.33D-07  0.00D+00 EMaxC= 1.00D-01 BMatC= 1.43D-11 BMatP= 3.22D-11
 IDIUse=1 WtCom= 1.00D+00 WtEn= 0.00D+00
 Coeff-Com: -0.249D-05 0.278D-05-0.455D-05-0.511D-04 0.227D-03 0.506D-03
 Coeff-Com:  0.306D-03-0.274D-03-0.531D-02-0.163D-01-0.889D-03 0.139D+00
 Coeff-Com: -0.207D-01-0.430D+00-0.797D-01 0.141D+01
 Coeff:     -0.249D-05 0.278D-05-0.455D-05-0.511D-04 0.227D-03 0.506D-03
 Coeff:      0.306D-03-0.274D-03-0.531D-02-0.163D-01-0.889D-03 0.139D+00
 Coeff:     -0.207D-01-0.430D+00-0.797D-01 0.141D+01
 Gap=     0.038 Goal=   None    Shift=    0.000
 Gap=     0.042 Goal=   None    Shift=    0.000
 RMSDP=6.72D-07 MaxDP=2.99D-05 DE=-5.84D-10 OVMax= 5.96D-05

 Cycle  17  Pass 1  IDiag  1:
 E= -1136.12112648092     Delta-E=       -0.000000000296 Rises=F Damp=F
 DIIS: error= 1.57D-07 at cycle  17 NSaved=  17.
 NSaved=17 IEnMin=17 EnMin= -1136.12112648092     IErMin=17 ErrMin= 1.57D-07
 ErrMax= 1.57D-07  0.00D+00 EMaxC= 1.00D-01 BMatC= 5.75D-12 BMatP= 1.43D-11
 IDIUse=1 WtCom= 1.00D+00 WtEn= 0.00D+00
 Coeff-Com:  0.174D-05-0.249D-05-0.551D-04 0.354D-05-0.189D-03-0.456D-03
 Coeff-Com:  0.524D-03 0.274D-02 0.106D-02-0.725D-02-0.199D-01 0.239D-01
 Coeff-Com:  0.866D-01 0.628D-01-0.590D+00-0.774D-01 0.152D+01
 Coeff:      0.174D-05-0.249D-05-0.551D-04 0.354D-05-0.189D-03-0.456D-03
 Coeff:      0.524D-03 0.274D-02 0.106D-02-0.725D-02-0.199D-01 0.239D-01
 Coeff:      0.866D-01 0.628D-01-0.590D+00-0.774D-01 0.152D+01
 Gap=     0.038 Goal=   None    Shift=    0.000
 Gap=     0.042 Goal=   None    Shift=    0.000
 RMSDP=5.17D-07 MaxDP=2.18D-05 DE=-2.96D-10 OVMax= 5.07D-05

 Cycle  18  Pass 1  IDiag  1:
 E= -1136.12112648105     Delta-E=       -0.000000000130 Rises=F Damp=F
 DIIS: error= 8.44D-08 at cycle  18 NSaved=  18.
 NSaved=18 IEnMin=18 EnMin= -1136.12112648105     IErMin=18 ErrMin= 8.44D-08
 ErrMax= 8.44D-08  0.00D+00 EMaxC= 1.00D-01 BMatC= 1.74D-12 BMatP= 5.75D-12
 IDIUse=1 WtCom= 1.00D+00 WtEn= 0.00D+00
 Coeff-Com:  0.154D-05-0.186D-05-0.832D-05 0.205D-04-0.140D-03-0.267D-03
 Coeff-Com:  0.483D-04 0.742D-03 0.158D-02 0.400D-02-0.200D-03-0.469D-01
 Coeff-Com:  0.121D-01 0.135D+00 0.700D-01-0.562D+00-0.271D-01 0.141D+01
 Coeff:      0.154D-05-0.186D-05-0.832D-05 0.205D-04-0.140D-03-0.267D-03
 Coeff:      0.483D-04 0.742D-03 0.158D-02 0.400D-02-0.200D-03-0.469D-01
 Coeff:      0.121D-01 0.135D+00 0.700D-01-0.562D+00-0.271D-01 0.141D+01
 Gap=     0.038 Goal=   None    Shift=    0.000
 Gap=     0.042 Goal=   None    Shift=    0.000
 RMSDP=2.99D-07 MaxDP=1.32D-05 DE=-1.30D-10 OVMax= 3.03D-05

 Cycle  19  Pass 1  IDiag  1:
 E= -1136.12112648110     Delta-E=       -0.000000000055 Rises=F Damp=F
 DIIS: error= 3.47D-08 at cycle  19 NSaved=  19.
 NSaved=19 IEnMin=19 EnMin= -1136.12112648110     IErMin=19 ErrMin= 3.47D-08
 ErrMax= 3.47D-08  0.00D+00 EMaxC= 1.00D-01 BMatC= 3.86D-13 BMatP= 1.74D-12
 IDIUse=1 WtCom= 1.00D+00 WtEn= 0.00D+00
 Coeff-Com: -0.114D-05 0.153D-05 0.181D-04-0.663D-05 0.910D-04 0.243D-03
 Coeff-Com: -0.171D-03-0.925D-03-0.101D-02 0.390D-03 0.957D-02-0.128D-03
 Coeff-Com: -0.342D-01-0.373D-01 0.210D+00 0.320D-01-0.506D+00 0.568D-01
 Coeff-Com:  0.127D+01
 Coeff:     -0.114D-05 0.153D-05 0.181D-04-0.663D-05 0.910D-04 0.243D-03
 Coeff:     -0.171D-03-0.925D-03-0.101D-02 0.390D-03 0.957D-02-0.128D-03
 Coeff:     -0.342D-01-0.373D-01 0.210D+00 0.320D-01-0.506D+00 0.568D-01
 Coeff:      0.127D+01
 Gap=     0.038 Goal=   None    Shift=    0.000
 Gap=     0.042 Goal=   None    Shift=    0.000
 RMSDP=1.14D-07 MaxDP=5.28D-06 DE=-5.46D-11 OVMax= 1.14D-05

 Cycle  20  Pass 1  IDiag  1:
 E= -1136.12112648110     Delta-E=        0.000000000006 Rises=F Damp=F
 DIIS: error= 1.51D-08 at cycle  20 NSaved=  20.
 NSaved=20 IEnMin=19 EnMin= -1136.12112648110     IErMin=20 ErrMin= 1.51D-08
 ErrMax= 1.51D-08  0.00D+00 EMaxC= 1.00D-01 BMatC= 6.75D-14 BMatP= 3.86D-13
 IDIUse=1 WtCom= 1.00D+00 WtEn= 0.00D+00
 Coeff-Com: -0.293D-06 0.348D-06 0.902D-06-0.172D-05 0.807D-05 0.161D-04
 Coeff-Com:  0.221D-04 0.605D-04-0.245D-03-0.128D-02-0.128D-02 0.120D-01
 Coeff-Com: -0.477D-03-0.316D-01-0.180D-01 0.120D+00 0.236D-01-0.327D+00
 Coeff-Com:  0.741D-01 0.115D+01
 Coeff:     -0.293D-06 0.348D-06 0.902D-06-0.172D-05 0.807D-05 0.161D-04
 Coeff:      0.221D-04 0.605D-04-0.245D-03-0.128D-02-0.128D-02 0.120D-01
 Coeff:     -0.477D-03-0.316D-01-0.180D-01 0.120D+00 0.236D-01-0.327D+00
 Coeff:      0.741D-01 0.115D+01
 Gap=     0.038 Goal=   None    Shift=    0.000
 Gap=     0.042 Goal=   None    Shift=    0.000
 RMSDP=3.27D-08 MaxDP=1.28D-06 DE= 6.37D-12 OVMax= 2.73D-06

 Cycle  21  Pass 1  IDiag  1:
 E= -1136.12112648111     Delta-E=       -0.000000000010 Rises=F Damp=F
 DIIS: error= 5.58D-09 at cycle  21 NSaved=  20.
 NSaved=20 IEnMin=20 EnMin= -1136.12112648111     IErMin=20 ErrMin= 5.58D-09
 ErrMax= 5.58D-09  0.00D+00 EMaxC= 1.00D-01 BMatC= 8.90D-15 BMatP= 6.75D-14
 IDIUse=1 WtCom= 1.00D+00 WtEn= 0.00D+00
 Coeff-Com:  0.354D-07-0.183D-05 0.254D-06-0.730D-05-0.164D-04 0.233D-05
 Coeff-Com:  0.555D-04 0.696D-04 0.127D-03-0.261D-03-0.203D-02 0.297D-02
 Coeff-Com:  0.972D-02-0.249D-01-0.119D-01 0.440D-01 0.533D-01-0.170D+00
 Coeff-Com: -0.192D+00 0.129D+01
 Coeff:      0.354D-07-0.183D-05 0.254D-06-0.730D-05-0.164D-04 0.233D-05
 Coeff:      0.555D-04 0.696D-04 0.127D-03-0.261D-03-0.203D-02 0.297D-02
 Coeff:      0.972D-02-0.249D-01-0.119D-01 0.440D-01 0.533D-01-0.170D+00
 Coeff:     -0.192D+00 0.129D+01
 Gap=     0.038 Goal=   None    Shift=    0.000
 Gap=     0.042 Goal=   None    Shift=    0.000
 RMSDP=1.13D-08 MaxDP=7.39D-07 DE=-1.05D-11 OVMax= 9.29D-07

 Cycle  22  Pass 1  IDiag  1:
 E= -1136.12112648111     Delta-E=       -0.000000000007 Rises=F Damp=F
 DIIS: error= 2.31D-09 at cycle  22 NSaved=  20.
 NSaved=20 IEnMin=20 EnMin= -1136.12112648111     IErMin=20 ErrMin= 2.31D-09
 ErrMax= 2.31D-09  0.00D+00 EMaxC= 1.00D-01 BMatC= 2.34D-15 BMatP= 8.90D-15
 IDIUse=1 WtCom= 1.00D+00 WtEn= 0.00D+00
 Large coefficients: NSaved= 20 BigCof=    0.00 CofMax=   10.00 Det=-2.69D-15
 Inversion failed.  Reducing to 19 matrices.
 Large coefficients: NSaved= 19 BigCof=    0.00 CofMax=   10.00 Det=-2.69D-15
 Inversion failed.  Reducing to 18 matrices.
 Large coefficients: NSaved= 18 BigCof=    0.00 CofMax=   10.00 Det=-2.85D-15
 Inversion failed.  Reducing to 17 matrices.
 Large coefficients: NSaved= 17 BigCof=    0.00 CofMax=   10.00 Det=-2.88D-15
 Inversion failed.  Reducing to 16 matrices.
 Large coefficients: NSaved= 16 BigCof=    0.00 CofMax=   10.00 Det=-2.88D-15
 Inversion failed.  Reducing to 15 matrices.
 Coeff-Com: -0.792D-05-0.273D-04 0.409D-04 0.534D-03-0.133D-02-0.268D-03
 Coeff-Com:  0.186D-02 0.767D-02-0.194D-01-0.740D-02 0.502D-01 0.658D-02
 Coeff-Com: -0.249D+00 0.952D-01 0.112D+01
 Coeff:     -0.792D-05-0.273D-04 0.409D-04 0.534D-03-0.133D-02-0.268D-03
 Coeff:      0.186D-02 0.767D-02-0.194D-01-0.740D-02 0.502D-01 0.658D-02
 Coeff:     -0.249D+00 0.952D-01 0.112D+01
 Gap=     0.038 Goal=   None    Shift=    0.000
 Gap=     0.042 Goal=   None    Shift=    0.000
 RMSDP=5.25D-09 MaxDP=3.19D-07 DE=-7.28D-12 OVMax= 3.80D-07

 SCF Done:  E(UB3LYP) =  -1136.12112648     A.U. after   22 cycles
            NFock= 22  Conv=0.53D-08     -V/T= 2.0029
 <Sx>= 0.0000 <Sy>= 0.0000 <Sz>= 0.5000 <S**2>= 0.7724 S= 0.5112
 <L.S>= 0.000000000000E+00
 KE= 1.132852124304D+03 PE=-3.346938183883D+03 EE= 7.690787000527D+02
 Annihilation of the first spin contaminant:
 S**2 before annihilation     0.7724,   after     0.7503
 Leave Link  502 at Sun Dec  3 20:32:51 2023, MaxMem=  1879048192 cpu:             201.5 elap:              18.0
 (Enter /home/sekinelabo/g16/l601.exe)
 Copying SCF densities to generalized density rwf, IOpCl= 1 IROHF=0.

 **********************************************************************

            Population analysis using the SCF Density.

 **********************************************************************

 Orbital symmetries:
 Alpha Orbitals:
       Occupied  (A) (A) (A) (A) (A) (A) (A) (A) (A) (A) (A) (A)
                 (A) (A) (A) (A) (A) (A) (A) (A) (A) (A) (A) (A)
                 (A) (A) (A) (A) (A) (A) (A) (A) (A) (A) (A) (A)
                 (A) (A) (A)
       Virtual   (A) (A) (A) (A) (A) (A) (A) (A) (A) (A) (A) (A)
                 (A) (A) (A) (A) (A) (A) (A) (A) (A) (A) (A) (A)
                 (A) (A) (A) (A) (A) (A) (A) (A) (A) (A) (A) (A)
                 (A) (A) (A) (A) (A) (A) (A) (A) (A) (A) (A) (A)
                 (A) (A) (A) (A) (A) (A) (A) (A) (A) (A) (A) (A)
                 (A) (A) (A) (A) (A) (A) (A) (A) (A) (A) (A) (A)
                 (A) (A) (A) (A) (A) (A) (A) (A) (A) (A) (A) (A)
                 (A) (A) (A) (A) (A) (A) (A) (A) (A) (A) (A) (A)
                 (A) (A) (A) (A) (A) (A) (A) (A) (A) (A) (A) (A)
                 (A) (A) (A) (A) (A) (A) (A) (A) (A) (A) (A) (A)
                 (A) (A) (A) (A) (A) (A) (A) (A) (A) (A) (A) (A)
                 (A) (A) (A) (A) (A) (A) (A) (A) (A) (A) (A) (A)
                 (A) (A) (A) (A) (A) (A) (A) (A) (A) (A) (A) (A)
                 (A) (A) (A) (A) (A) (A) (A) (A) (A) (A) (A) (A)
                 (A) (A) (A)
 Beta  Orbitals:
       Occupied  (A) (A) (A) (A) (A) (A) (A) (A) (A) (A) (A) (A)
                 (A) (A) (A) (A) (A) (A) (A) (A) (A) (A) (A) (A)
                 (A) (A) (A) (A) (A) (A) (A) (A) (A) (A) (A) (A)
                 (A) (A)
       Virtual   (A) (A) (A) (A) (A) (A) (A) (A) (A) (A) (A) (A)
                 (A) (A) (A) (A) (A) (A) (A) (A) (A) (A) (A) (A)
                 (A) (A) (A) (A) (A) (A) (A) (A) (A) (A) (A) (A)
                 (A) (A) (A) (A) (A) (A) (A) (A) (A) (A) (A) (A)
                 (A) (A) (A) (A) (A) (A) (A) (A) (A) (A) (A) (A)
                 (A) (A) (A) (A) (A) (A) (A) (A) (A) (A) (A) (A)
                 (A) (A) (A) (A) (A) (A) (A) (A) (A) (A) (A) (A)
                 (A) (A) (A) (A) (A) (A) (A) (A) (A) (A) (A) (A)
                 (A) (A) (A) (A) (A) (A) (A) (A) (A) (A) (A) (A)
                 (A) (A) (A) (A) (A) (A) (A) (A) (A) (A) (A) (A)
                 (A) (A) (A) (A) (A) (A) (A) (A) (A) (A) (A) (A)
                 (A) (A) (A) (A) (A) (A) (A) (A) (A) (A) (A) (A)
                 (A) (A) (A) (A) (A) (A) (A) (A) (A) (A) (A) (A)
                 (A) (A) (A) (A) (A) (A) (A) (A) (A) (A) (A) (A)
                 (A) (A) (A) (A)
 The electronic state is 2-A.
 Alpha  occ. eigenvalues --  -38.44929 -38.44705 -38.44403 -38.44014 -38.43967
 Alpha  occ. eigenvalues --  -38.43366 -38.43311  -2.20754  -2.20493  -2.20181
 Alpha  occ. eigenvalues --   -2.19866  -2.19786  -2.19204  -2.19146  -1.14415
 Alpha  occ. eigenvalues --   -1.14403  -1.14369  -1.14155  -1.14133  -1.14105
 Alpha  occ. eigenvalues --   -1.13875  -1.13850  -1.13810  -1.13544  -1.13508
 Alpha  occ. eigenvalues --   -1.13494  -1.13479  -1.13464  -1.13404  -1.12885
 Alpha  occ. eigenvalues --   -1.12869  -1.12840  -1.12834  -1.12805  -1.12791
 Alpha  occ. eigenvalues --   -0.17428  -0.13986  -0.11770  -0.10835
 Alpha virt. eigenvalues --   -0.06988  -0.05433  -0.04386  -0.03415  -0.02847
 Alpha virt. eigenvalues --   -0.02680  -0.02114  -0.01584  -0.00841  -0.00432
 Alpha virt. eigenvalues --   -0.00111  -0.00073   0.00349   0.00624   0.00752
 Alpha virt. eigenvalues --    0.00773   0.00964   0.01121   0.01277   0.01353
 Alpha virt. eigenvalues --    0.01414   0.01543   0.01600   0.01730   0.01856
 Alpha virt. eigenvalues --    0.02076   0.02195   0.02246   0.02336   0.02572
 Alpha virt. eigenvalues --    0.02654   0.02762   0.02859   0.02902   0.02970
 Alpha virt. eigenvalues --    0.03009   0.03148   0.03401   0.03435   0.03478
 Alpha virt. eigenvalues --    0.03755   0.03880   0.03994   0.04489   0.04681
 Alpha virt. eigenvalues --    0.04744   0.04842   0.05099   0.05357   0.05628
 Alpha virt. eigenvalues --    0.05841   0.05920   0.06200   0.06859   0.06989
 Alpha virt. eigenvalues --    0.07181   0.07654   0.07782   0.08216   0.08317
 Alpha virt. eigenvalues --    0.08802   0.09088   0.09489   0.09929   0.10509
 Alpha virt. eigenvalues --    0.11177   0.11279   0.11733   0.12140   0.12507
 Alpha virt. eigenvalues --    0.12826   0.12976   0.13652   0.13960   0.14157
 Alpha virt. eigenvalues --    0.14613   0.14736   0.15472   0.15798   0.16506
 Alpha virt. eigenvalues --    0.26258   0.27393   0.28571   0.29134   0.29469
 Alpha virt. eigenvalues --    0.30545   0.30756   0.31303   0.31919   0.32369
 Alpha virt. eigenvalues --    0.33768   0.34374   0.34875   0.35507   0.36009
 Alpha virt. eigenvalues --    0.37717   0.38183   0.39201   0.40226   0.41177
 Alpha virt. eigenvalues --    0.41891   0.42317   0.42580   0.43285   0.43355
 Alpha virt. eigenvalues --    0.43673   0.44163   0.44310   0.44539   0.44984
 Alpha virt. eigenvalues --    0.45453   0.45726   0.45965   0.46778   0.47197
 Alpha virt. eigenvalues --    0.47886   0.48123   0.48797   0.49549   0.50251
 Alpha virt. eigenvalues --    0.50534   0.51433   0.52034   0.53121   0.53730
 Alpha virt. eigenvalues --    0.53941   0.54497   0.54979   0.56167   0.56630
 Alpha virt. eigenvalues --    0.58296   0.59979   0.61922   0.62883   0.66557
 Alpha virt. eigenvalues --    0.69732   2.02790   2.09239   2.11073   2.12070
 Alpha virt. eigenvalues --    2.16025   2.19828   2.20168   4.42678   4.43515
 Alpha virt. eigenvalues --    4.43762   4.44278   4.44610   4.44943   4.45572
 Alpha virt. eigenvalues --    4.45707   4.45837   4.46186   4.46671   4.46877
 Alpha virt. eigenvalues --    4.48404   4.48672   4.51031   4.51762   4.53955
 Alpha virt. eigenvalues --    4.54909   4.56802   4.57686   4.63456  96.22483
 Alpha virt. eigenvalues --   96.30007  96.31535  96.33149  96.37943  96.42723
 Alpha virt. eigenvalues --   96.43397
  Beta  occ. eigenvalues --  -38.44859 -38.44633 -38.44407 -38.43967 -38.43964
  Beta  occ. eigenvalues --  -38.43355 -38.43308  -2.20626  -2.20358  -2.20191
  Beta  occ. eigenvalues --   -2.19789  -2.19772  -2.19187  -2.19145  -1.14328
  Beta  occ. eigenvalues --   -1.14312  -1.14275  -1.14058  -1.14040  -1.14019
  Beta  occ. eigenvalues --   -1.13884  -1.13846  -1.13814  -1.13485  -1.13482
  Beta  occ. eigenvalues --   -1.13459  -1.13445  -1.13432  -1.13395  -1.12878
  Beta  occ. eigenvalues --   -1.12849  -1.12838  -1.12814  -1.12809  -1.12757
  Beta  occ. eigenvalues --   -0.16875  -0.13319  -0.11609
  Beta virt. eigenvalues --   -0.07371  -0.06690  -0.05275  -0.03808  -0.03297
  Beta virt. eigenvalues --   -0.02546  -0.02228  -0.01597  -0.01298  -0.00445
  Beta virt. eigenvalues --   -0.00353  -0.00076   0.00066   0.00470   0.00761
  Beta virt. eigenvalues --    0.00798   0.00849   0.01012   0.01198   0.01357
  Beta virt. eigenvalues --    0.01465   0.01556   0.01606   0.01697   0.01826
  Beta virt. eigenvalues --    0.01941   0.02115   0.02273   0.02350   0.02384
  Beta virt. eigenvalues --    0.02625   0.02734   0.02827   0.02902   0.03037
  Beta virt. eigenvalues --    0.03047   0.03078   0.03165   0.03472   0.03528
  Beta virt. eigenvalues --    0.03599   0.03821   0.03968   0.04071   0.04592
  Beta virt. eigenvalues --    0.04765   0.04830   0.04972   0.05195   0.05413
  Beta virt. eigenvalues --    0.05754   0.05877   0.06035   0.06216   0.07018
  Beta virt. eigenvalues --    0.07141   0.07315   0.07681   0.07834   0.08272
  Beta virt. eigenvalues --    0.08500   0.08898   0.09360   0.09698   0.10069
  Beta virt. eigenvalues --    0.10668   0.11353   0.11443   0.12041   0.12304
  Beta virt. eigenvalues --    0.12707   0.12980   0.13136   0.13838   0.14168
  Beta virt. eigenvalues --    0.14305   0.14709   0.14956   0.15531   0.15893
  Beta virt. eigenvalues --    0.16668   0.26480   0.27749   0.28738   0.29412
  Beta virt. eigenvalues --    0.29659   0.30870   0.31018   0.31583   0.32205
  Beta virt. eigenvalues --    0.32632   0.34067   0.34696   0.35319   0.35876
  Beta virt. eigenvalues --    0.36348   0.38116   0.38427   0.39438   0.40268
  Beta virt. eigenvalues --    0.41546   0.41944   0.42507   0.42903   0.43474
  Beta virt. eigenvalues --    0.43666   0.43820   0.44323   0.44474   0.44758
  Beta virt. eigenvalues --    0.45119   0.45630   0.45859   0.46108   0.46803
  Beta virt. eigenvalues --    0.47283   0.47960   0.48325   0.48874   0.49751
  Beta virt. eigenvalues --    0.50306   0.50623   0.51524   0.52237   0.53167
  Beta virt. eigenvalues --    0.53814   0.54082   0.54680   0.55117   0.56257
  Beta virt. eigenvalues --    0.56754   0.58414   0.60009   0.61918   0.63089
  Beta virt. eigenvalues --    0.66571   0.69876   2.02933   2.09437   2.11075
  Beta virt. eigenvalues --    2.12319   2.16139   2.19851   2.20251   4.42734
  Beta virt. eigenvalues --    4.43564   4.43802   4.44330   4.44657   4.45023
  Beta virt. eigenvalues --    4.45675   4.45769   4.45883   4.46212   4.46717
  Beta virt. eigenvalues --    4.46917   4.48427   4.48712   4.51037   4.51823
  Beta virt. eigenvalues --    4.53998   4.54930   4.56833   4.57711   4.63493
  Beta virt. eigenvalues --   96.22531  96.30071  96.31544  96.33229  96.37975
  Beta virt. eigenvalues --   96.42727  96.43436
          Condensed to atoms (all electrons):
               1          2          3          4          5          6
     1  Na  10.689547  -0.035417   0.201276   0.031201  -0.024153   0.109350
     2  Na  -0.035417  10.838535  -0.029763   0.110517   0.235947   0.136637
     3  Na   0.201276  -0.029763  11.693942  -0.396353   0.184567   0.040714
     4  Na   0.031201   0.110517  -0.396353  11.543683  -0.190871  -0.289664
     5  Na  -0.024153   0.235947   0.184567  -0.190871  10.968184  -0.004859
     6  Na   0.109350   0.136637   0.040714  -0.289664  -0.004859  10.770467
     7  Na   0.015644  -0.047272  -0.257447   0.227970  -0.166089   0.001250
               7
     1  Na   0.015644
     2  Na  -0.047272
     3  Na  -0.257447
     4  Na   0.227970
     5  Na  -0.166089
     6  Na   0.001250
     7  Na  10.789273
          Atomic-Atomic Spin Densities.
               1          2          3          4          5          6
     1  Na   0.008624   0.005262  -0.047205  -0.031331  -0.002428   0.076380
     2  Na   0.005262  -0.124374   0.036829  -0.115110   0.067447   0.051205
     3  Na  -0.047205   0.036829  -0.144882   0.078081  -0.064460   0.003949
     4  Na  -0.031331  -0.115110   0.078081   0.706249  -0.082812  -0.225747
     5  Na  -0.002428   0.067447  -0.064460  -0.082812   0.168133   0.049116
     6  Na   0.076380   0.051205   0.003949  -0.225747   0.049116   0.462966
     7  Na   0.007550  -0.028407   0.147861  -0.041604   0.000879   0.001851
               7
     1  Na   0.007550
     2  Na  -0.028407
     3  Na   0.147861
     4  Na  -0.041604
     5  Na   0.000879
     6  Na   0.001851
     7  Na   0.148669
 Mulliken charges and spin densities:
               1          2
     1  Na   0.012552   0.016851
     2  Na  -0.209184  -0.107148
     3  Na  -0.436935   0.010173
     4  Na  -0.036483   0.287726
     5  Na  -0.002727   0.135876
     6  Na   0.236105   0.419720
     7  Na   0.436672   0.236800
 Sum of Mulliken charges =  -0.00000   1.00000
 Mulliken charges and spin densities with hydrogens summed into heavy atoms:
               1          2
     1  Na   0.012552   0.016851
     2  Na  -0.209184  -0.107148
     3  Na  -0.436935   0.010173
     4  Na  -0.036483   0.287726
     5  Na  -0.002727   0.135876
     6  Na   0.236105   0.419720
     7  Na   0.436672   0.236800
 Electronic spatial extent (au):  <R**2>=           2943.6601
 Charge=             -0.0000 electrons
 Dipole moment (field-independent basis, Debye):
    X=              0.7831    Y=             -0.1853    Z=              0.3883  Tot=              0.8935
 Quadrupole moment (field-independent basis, Debye-Ang):
   XX=            -60.6775   YY=            -75.5077   ZZ=            -64.9067
   XY=              2.2186   XZ=              2.0751   YZ=             -0.6102
 Traceless Quadrupole moment (field-independent basis, Debye-Ang):
   XX=              6.3531   YY=             -8.4771   ZZ=              2.1240
   XY=              2.2186   XZ=              2.0751   YZ=             -0.6102
 Octapole moment (field-independent basis, Debye-Ang**2):
  XXX=              8.7288  YYY=              5.9692  ZZZ=             17.6676  XYY=             -1.1837
  XXY=             -9.9237  XXZ=              7.9017  XZZ=              5.6122  YZZ=             -4.0026
  YYZ=             -7.9505  XYZ=             -0.1177
 Hexadecapole moment (field-independent basis, Debye-Ang**3):
 XXXX=          -2715.1016 YYYY=          -1482.3789 ZZZZ=           -626.3182 XXXY=             28.8077
 XXXZ=             94.7144 YYYX=             24.0589 YYYZ=            -12.1243 ZZZX=             38.2983
 ZZZY=              6.5918 XXYY=           -769.8029 XXZZ=           -630.9211 YYZZ=           -349.9836
 XXYZ=            -11.1071 YYXZ=            -38.2429 ZZXY=             14.3856
 N-N= 3.088862330448D+02 E-N=-3.346938184028D+03  KE= 1.132852124304D+03
                          Isotropic Fermi Contact Couplings
        Atom                 a.u.       MegaHertz       Gauss      10(-4) cm-1
     1  Na(23)            -0.03186     -37.69150     -13.44926     -12.57253
     2  Na(23)            -0.04400     -52.04864     -18.57225     -17.36156
     3  Na(23)            -0.03433     -40.60776     -14.48986     -13.54529
     4  Na(23)             0.28034     331.64443     118.33898     110.62467
     5  Na(23)             0.01210      14.31983       5.10967       4.77658
     6  Na(23)             0.31147     368.47722     131.48183     122.91077
     7  Na(23)             0.22043     260.77847      93.05224      86.98633
 --------------------------------------------------------
       Center         ----  Spin Dipole Couplings  ----
                      3XX-RR        3YY-RR        3ZZ-RR
 --------------------------------------------------------
     1   Atom        0.005622     -0.014149      0.008528
     2   Atom        0.004631     -0.011249      0.006618
     3   Atom        0.022919     -0.017935     -0.004984
     4   Atom        0.005880      0.005133     -0.011012
     5   Atom        0.019498     -0.013502     -0.005997
     6   Atom       -0.005920      0.000507      0.005412
     7   Atom       -0.003770      0.003829     -0.000059
 --------------------------------------------------------
                        XY            XZ            YZ
 --------------------------------------------------------
     1   Atom       -0.000503     -0.021645      0.002402
     2   Atom        0.000322     -0.016646     -0.000481
     3   Atom        0.003454      0.025354      0.002259
     4   Atom        0.003166      0.001750     -0.000957
     5   Atom        0.005545      0.019752      0.001520
     6   Atom        0.000535      0.000385     -0.000129
     7   Atom        0.000385     -0.003054     -0.000719
 --------------------------------------------------------


 ---------------------------------------------------------------------------------
              Anisotropic Spin Dipole Couplings in Principal Axis System
 ---------------------------------------------------------------------------------

       Atom             a.u.   MegaHertz   Gauss  10(-4) cm-1        Axes

              Baa    -0.0157    -2.220    -0.792    -0.740 -0.5311  0.6539 -0.5389
     1 Na(23) Bbb    -0.0132    -1.857    -0.663    -0.619  0.5039  0.7550  0.4195
              Bcc     0.0289     4.077     1.455     1.360 -0.6812  0.0488  0.7305
 
              Baa    -0.0113    -1.595    -0.569    -0.532  0.2539  0.9314  0.2609
     2 Na(23) Bbb    -0.0110    -1.555    -0.555    -0.519  0.6823 -0.3637  0.6342
              Bcc     0.0223     3.150     1.124     1.051 -0.6856 -0.0170  0.7278
 
              Baa    -0.0200    -2.823    -1.007    -0.942 -0.4995 -0.1055  0.8598
     3 Na(23) Bbb    -0.0182    -2.573    -0.918    -0.858 -0.1165  0.9917  0.0540
              Bcc     0.0382     5.396     1.925     1.800  0.8584  0.0732  0.5077
 
              Baa    -0.0113    -1.595    -0.569    -0.532 -0.1156  0.0800  0.9901
     4 Na(23) Bbb     0.0026     0.364     0.130     0.121 -0.6470  0.7503 -0.1362
              Bcc     0.0087     1.231     0.439     0.411  0.7537  0.6563  0.0350
 
              Baa    -0.0173    -2.444    -0.872    -0.815 -0.4807  0.3857  0.7875
     5 Na(23) Bbb    -0.0137    -1.928    -0.688    -0.643  0.0835  0.9141 -0.3967
              Bcc     0.0310     4.373     1.560     1.459  0.8729  0.1250  0.4716
 
              Baa    -0.0060    -0.844    -0.301    -0.282  0.9960 -0.0828 -0.0346
     6 Na(23) Bbb     0.0005     0.078     0.028     0.026  0.0835  0.9963  0.0199
              Bcc     0.0054     0.766     0.273     0.256  0.0328 -0.0227  0.9992
 
              Baa    -0.0055    -0.775    -0.277    -0.258  0.8715  0.0018  0.4905
     7 Na(23) Bbb     0.0014     0.196     0.070     0.065 -0.4657  0.3167  0.8263
              Bcc     0.0041     0.579     0.207     0.193  0.1538  0.9485 -0.2768
 

 ---------------------------------------------------------------------------------

 No NMR shielding tensors so no spin-rotation constants.
 Leave Link  601 at Sun Dec  3 20:32:52 2023, MaxMem=  1879048192 cpu:               2.3 elap:               0.2
 (Enter /home/sekinelabo/g16/l701.exe)
 ... and contract with generalized density number  0.
 Compute integral first derivatives.
 Leave Link  701 at Sun Dec  3 20:32:52 2023, MaxMem=  1879048192 cpu:               1.6 elap:               0.1
 (Enter /home/sekinelabo/g16/l702.exe)
 L702 exits ... SP integral derivatives will be done elsewhere.
 Leave Link  702 at Sun Dec  3 20:32:52 2023, MaxMem=  1879048192 cpu:               0.5 elap:               0.0
 (Enter /home/sekinelabo/g16/l703.exe)
 Integral derivatives from FoFJK, PRISM(SPDF).
 Compute integral first derivatives, UseDBF=F ICtDFT=           0.
 Calling FoFJK, ICntrl=      2127 FMM=F ISym2X=0 I1Cent= 0 IOpClX= 1 NMat=1 NMatS=1 NMatT=0.
 FoFJK:  IHMeth= 1 ICntrl=    2127 DoSepK=F KAlg= 0 I1Cent=           0 FoldK=F
 IRaf=         0 NMat=       1 IRICut=       1 DoRegI=T DoRafI=F ISym2E= 0 IDoP0=0 IntGTp=1.
 FoFCou: FMM=F IPFlag=           0 FMFlag=      100000 FMFlg1=         800
         NFxFlg=           0 DoJE=F BraDBF=F KetDBF=F FulRan=T
         wScrn=  0.000000 ICntrl=      2127 IOpCl=  1 I1Cent=           0 NGrid=           0
         NMat0=    1 NMatS0=      1 NMatT0=    0 NMatD0=    1 NMtDS0=    0 NMtDT0=    0
 Symmetry not used in FoFCou.
 Leave Link  703 at Sun Dec  3 20:32:54 2023, MaxMem=  1879048192 cpu:              31.7 elap:               2.1
 (Enter /home/sekinelabo/g16/l716.exe)
 Dipole        = 3.08109371D-01-7.28873175D-02 1.52753805D-01
 ***** Axes restored to original set *****
 -------------------------------------------------------------------
 Center     Atomic                   Forces (Hartrees/Bohr)
 Number     Number              X              Y              Z
 -------------------------------------------------------------------
      1       11           0.001039668    0.000386666    0.000802251
      2       11           0.003731907   -0.000027616    0.001778619
      3       11           0.003157652   -0.000979689    0.002962511
      4       11          -0.004408573   -0.000576440   -0.000951433
      5       11           0.000956482   -0.000088587    0.001109901
      6       11          -0.001830416    0.000273191   -0.003926432
      7       11          -0.002646721    0.001012475   -0.001775418
 -------------------------------------------------------------------
 Cartesian Forces:  Max     0.004408573 RMS     0.002087654
 Z-matrix is all fixed cartesians, so copy forces.
 Force constants in Cartesian coordinates: 
                1             2             3             4             5 
      1  0.285375D-01
      2  0.180554D-02  0.653463D-01
      3  0.406135D-03 -0.416757D-02  0.510011D-01
      4  0.199782D-03  0.415404D-03 -0.689609D-03  0.527173D-01
      5  0.691797D-02 -0.493102D-02  0.516894D-03 -0.293935D-02  0.300582D-01
      6  0.181072D-02 -0.213977D-02  0.138513D-02 -0.653980D-02 -0.549194D-02
      7 -0.950538D-02  0.272267D-02  0.419992D-02  0.102072D-02  0.233778D-02
      8  0.400041D-02 -0.200786D-01  0.123973D-01 -0.336135D-03 -0.600617D-03
      9  0.192500D-02 -0.689091D-02 -0.221272D-01 -0.368201D-03 -0.880555D-03
     10 -0.213592D-01 -0.831510D-03 -0.215548D-02 -0.195738D-01 -0.586772D-02
     11 -0.175502D-01 -0.226396D-01  0.176887D-03  0.236086D-03 -0.795035D-02
     12  0.753913D-03  0.244767D-02 -0.158216D-01  0.339031D-02 -0.500134D-03
     13  0.261998D-02 -0.126671D-02  0.164242D-02 -0.214653D-01 -0.778164D-02
     14  0.355837D-02 -0.168342D-02  0.246177D-02  0.133511D-02 -0.145613D-01
     15 -0.102698D-03  0.805057D-04  0.146579D-03 -0.133204D-02  0.111469D-01
     16 -0.337446D-02 -0.998186D-03 -0.285337D-02 -0.141332D-01  0.504953D-02
     17  0.198423D-02 -0.169101D-01 -0.116657D-01 -0.201070D-03 -0.498735D-02
     18 -0.349535D-03  0.727567D-02 -0.156035D-01  0.717469D-02 -0.159463D-02
     19  0.288178D-02 -0.184721D-02 -0.550010D-03  0.123451D-02  0.228344D-02
     20 -0.716281D-03  0.896457D-03  0.280468D-03  0.148996D-02  0.297245D-02
     21 -0.444353D-02  0.339441D-02  0.101943D-02 -0.163535D-02 -0.319654D-02
                6             7             8             9            10 
      6  0.442361D-01
      7  0.333528D-02  0.363126D-01
      8 -0.953513D-03 -0.159369D-01  0.544406D-01
      9 -0.115191D-02  0.210531D-02  0.261888D-02  0.528018D-01
     10 -0.157891D-02 -0.143647D-01  0.112334D-02  0.543244D-02  0.873589D-01
     11 -0.878177D-03 -0.548722D-02 -0.124796D-01  0.241875D-02  0.185489D-01
     12 -0.840482D-02 -0.112564D-01 -0.543495D-02 -0.823180D-02  0.387521D-02
     13  0.107184D-01  0.124801D-02  0.243810D-02  0.266114D-02 -0.166401D-01
     14  0.206589D-02  0.139480D-02 -0.630111D-02 -0.248086D-02 -0.888823D-02
     15 -0.210428D-01  0.183204D-02 -0.350541D-03  0.244355D-02  0.426478D-02
     16 -0.925176D-02  0.278720D-02  0.438635D-03 -0.196607D-02 -0.146416D-01
     17  0.552035D-02  0.891240D-03  0.613935D-02 -0.529808D-03 -0.221367D-02
     18 -0.129741D-01  0.189400D-02 -0.170546D-02 -0.218012D-02 -0.765943D-02
     19  0.150612D-02 -0.174985D-01  0.827253D-02 -0.978963D-02 -0.779601D-03
     20  0.187716D-02  0.140776D-01 -0.211200D-01  0.574450D-02 -0.187112D-02
     21 -0.204757D-02 -0.211019D-02 -0.657168D-02 -0.215544D-01 -0.217860D-02
               11            12            13            14            15 
     11  0.572070D-01
     12 -0.141114D-02  0.576404D-01
     13  0.957573D-02 -0.892298D-02  0.368115D-01
     14 -0.128766D-01 -0.364867D-02  0.168243D-02  0.533977D-01
     15  0.693584D-03 -0.121509D-01  0.140132D-02 -0.371015D-02  0.472162D-01
     16 -0.376344D-02  0.149829D-01  0.680794D-02 -0.440982D-03 -0.148002D-02
     17 -0.756836D-02  0.745635D-02 -0.176756D-03  0.122790D-02  0.252940D-02
     18 -0.246376D-02 -0.111264D-01 -0.167503D-02  0.176402D-02 -0.118102D-02
     19 -0.155986D-02 -0.282297D-02 -0.938202D-02  0.135851D-02 -0.458339D-02
     20  0.630746D-02  0.109088D-02 -0.447115D-02 -0.192031D-01 -0.103897D-01
     21  0.146386D-02 -0.190484D-02 -0.582523D-02  0.354799D-02 -0.154316D-01
               16            17            18            19            20 
     16  0.225889D-01
     17 -0.228411D-03  0.220721D-01
     18  0.620603D-03 -0.330062D-02  0.430843D-01
     19 -0.347740D-04 -0.555610D-04 -0.528698D-05  0.235786D-01
     20 -0.571527D-04  0.265110D-04  0.247781D-04 -0.845186D-02  0.301203D-01
     21 -0.522449D-04 -0.995774D-05 -0.191700D-04  0.162452D-01  0.137192D-02
               21 
     21  0.399381D-01
 Leave Link  716 at Sun Dec  3 20:32:54 2023, MaxMem=  1879048192 cpu:               0.4 elap:               0.0
 (Enter /home/sekinelabo/g16/l103.exe)

 GradGradGradGradGradGradGradGradGradGradGradGradGradGradGradGradGradGrad
 Berny optimization.
 Search for a local minimum.
 Step number   1 out of a maximum of    2
 All quantities printed in internal units (Hartrees-Bohrs-Radians)
 Second derivative matrix not updated -- first step.
 ITU=  0
     Eigenvalues ---    0.01152   0.02225   0.02766   0.03409   0.04041
     Eigenvalues ---    0.04638   0.05569   0.06233   0.07028   0.07651
     Eigenvalues ---    0.08083   0.08750   0.09316   0.10019   0.12188
 Angle between quadratic step and forces=  36.31 degrees.
 Linear search not attempted -- first point.
 B after Tr=     0.000000    0.000000    0.000000
         Rot=    1.000000   -0.000000   -0.000000    0.000000 Ang=   0.00 deg.
 Variable       Old X    -DE/DX   Delta X   Delta X   Delta X     New X
                                 (Linear)    (Quad)   (Total)
    X1       24.25936   0.00104   0.00000   0.01786   0.01786  24.27722
    Y1       18.54366   0.00039   0.00000   0.01714   0.01714  18.56080
    Z1       25.07515   0.00080   0.00000  -0.00852  -0.00852  25.06663
    X2       19.99803   0.00373   0.00000   0.07185   0.07185  20.06987
    Y2       25.44611  -0.00003   0.00000   0.01047   0.01047  25.45657
    Z2       25.98260   0.00178   0.00000   0.01038   0.01038  25.99298
    X3       24.07133   0.00316   0.00000   0.05679   0.05679  24.12813
    Y3       20.24482  -0.00098   0.00000   0.00746   0.00746  20.25229
    Z3       18.75111   0.00296   0.00000   0.04925   0.04925  18.80036
    X4       27.17974  -0.00441   0.00000  -0.04019  -0.04019  27.13955
    Y4       24.13634  -0.00058   0.00000   0.00236   0.00236  24.13870
    Z4       24.47970  -0.00095   0.00000   0.00340   0.00340  24.48310
    X5       22.11093   0.00096   0.00000   0.03494   0.03494  22.14587
    Y5       27.75611  -0.00009   0.00000  -0.01003  -0.01003  27.74607
    Z5       20.60709   0.00111   0.00000   0.02024   0.02024  20.62733
    X6       23.87272  -0.00183   0.00000  -0.06816  -0.06816  23.80456
    Y6       21.98356   0.00027   0.00000  -0.00592  -0.00592  21.97764
    Z6       31.24039  -0.00393   0.00000  -0.10841  -0.10841  31.13197
    X7       20.49181  -0.00265   0.00000  -0.07309  -0.07309  20.41872
    Y7       23.87329   0.00101   0.00000  -0.02148  -0.02148  23.85181
    Z7       15.84779  -0.00178   0.00000   0.03366   0.03366  15.88145
         Item               Value     Threshold  Converged?
 Maximum Force            0.004409     0.000450     NO 
 RMS     Force            0.002088     0.000300     NO 
 Maximum Displacement     0.108413     0.001800     NO 
 RMS     Displacement     0.042821     0.001200     NO 
 Predicted change in Energy=-7.563569D-04
 GradGradGradGradGradGradGradGradGradGradGradGradGradGradGradGradGradGrad

 Leave Link  103 at Sun Dec  3 20:32:54 2023, MaxMem=  1879048192 cpu:               0.2 elap:               0.0
 (Enter /home/sekinelabo/g16/l9999.exe)
 1\1\GINC-SEKINELABO-XA7R-R37\Force\UB3LYP\6-311+G(d)\Na7(2)\SEKINELABO
 \03-Dec-2023\0\\#P B3LYP/6-311+g(d) force\\DPGEN\\0,2\Na,12.8375,9.812
 88,13.2692\Na,10.5825,13.4655,13.7494\Na,12.738,10.7131,9.92266\Na,14.
 3829,12.7724,12.9541\Na,11.7006,14.6879,10.9048\Na,12.6329,11.6332,16.
 5317\Na,10.8438,12.6332,8.38629\\Version=ES64L-G16RevB.01\State=2-A\HF
 =-1136.1211265\S2=0.772433\S2-1=0.\S2A=0.750309\RMSD=5.254e-09\RMSF=2.
 088e-03\Dipole=0.1654468,0.0803235,0.2995883\Quadrupole=0.8146861,-3.8
 226864,3.0080002,2.5398927,3.3476199,-2.783786\PG=C01 [X(Na7)]\\@


 IF YOU DON'T HAVE THE LAW - ARGUE THE FACTS.
 IF YOU DON'T HAVE THE FACTS - ARGUE THE LAW.
 IF YOU DON'T HAVE EITHER - POUND THE TABLE.
 Job cpu time:       0 days  0 hours  4 minutes  9.4 seconds.
 Elapsed time:       0 days  0 hours  0 minutes 21.2 seconds.
 File lengths (MBytes):  RWF=     32 Int=      0 D2E=      0 Chk=      4 Scr=      1
 Normal termination of Gaussian 16 at Sun Dec  3 20:32:54 2023.
