 Set GAUSS_MDEF to "14GB".
 Entering Gaussian System, Link 0=g16
 Initial command:
 /home/sekinelabo/g16/l1.exe "/home/sekinelabo/g16temp/Gau-3323841.inp" -scrdir="/home/sekinelabo/g16temp/"
 Entering Link 1 = /home/sekinelabo/g16/l1.exe PID=   3323843.
  
 Copyright (c) 1988-2017, Gaussian, Inc.  All Rights Reserved.
  
 This is part of the Gaussian(R) 16 program.  It is based on
 the Gaussian(R) 09 system (copyright 2009, Gaussian, Inc.),
 the Gaussian(R) 03 system (copyright 2003, Gaussian, Inc.),
 the Gaussian(R) 98 system (copyright 1998, Gaussian, Inc.),
 the Gaussian(R) 94 system (copyright 1995, Gaussian, Inc.),
 the Gaussian 92(TM) system (copyright 1992, Gaussian, Inc.),
 the Gaussian 90(TM) system (copyright 1990, Gaussian, Inc.),
 the Gaussian 88(TM) system (copyright 1988, Gaussian, Inc.),
 the Gaussian 86(TM) system (copyright 1986, Carnegie Mellon
 University), and the Gaussian 82(TM) system (copyright 1983,
 Carnegie Mellon University). Gaussian is a federally registered
 trademark of Gaussian, Inc.
  
 This software contains proprietary and confidential information,
 including trade secrets, belonging to Gaussian, Inc.
  
 This software is provided under written license and may be
 used, copied, transmitted, or stored only in accord with that
 written license.
  
 The following legend is applicable only to US Government
 contracts under FAR:
  
                    RESTRICTED RIGHTS LEGEND
  
 Use, reproduction and disclosure by the US Government is
 subject to restrictions as set forth in subparagraphs (a)
 and (c) of the Commercial Computer Software - Restricted
 Rights clause in FAR 52.227-19.
  
 Gaussian, Inc.
 340 Quinnipiac St., Bldg. 40, Wallingford CT 06492
  
  
 ---------------------------------------------------------------
 Warning -- This program may not be used in any manner that
 competes with the business of Gaussian, Inc. or will provide
 assistance to any competitor of Gaussian, Inc.  The licensee
 of this program is prohibited from giving any competitor of
 Gaussian, Inc. access to this program.  By using this program,
 the user acknowledges that Gaussian, Inc. is engaged in the
 business of creating and licensing software in the field of
 computational chemistry and represents and warrants to the
 licensee that it is not a competitor of Gaussian, Inc. and that
 it will not use this program in any manner prohibited above.
 ---------------------------------------------------------------
  

 Cite this work as:
 Gaussian 16, Revision B.01,
 M. J. Frisch, G. W. Trucks, H. B. Schlegel, G. E. Scuseria, 
 M. A. Robb, J. R. Cheeseman, G. Scalmani, V. Barone, 
 G. A. Petersson, H. Nakatsuji, X. Li, M. Caricato, A. V. Marenich, 
 J. Bloino, B. G. Janesko, R. Gomperts, B. Mennucci, H. P. Hratchian, 
 J. V. Ortiz, A. F. Izmaylov, J. L. Sonnenberg, D. Williams-Young, 
 F. Ding, F. Lipparini, F. Egidi, J. Goings, B. Peng, A. Petrone, 
 T. Henderson, D. Ranasinghe, V. G. Zakrzewski, J. Gao, N. Rega, 
 G. Zheng, W. Liang, M. Hada, M. Ehara, K. Toyota, R. Fukuda, 
 J. Hasegawa, M. Ishida, T. Nakajima, Y. Honda, O. Kitao, H. Nakai, 
 T. Vreven, K. Throssell, J. A. Montgomery, Jr., J. E. Peralta, 
 F. Ogliaro, M. J. Bearpark, J. J. Heyd, E. N. Brothers, K. N. Kudin, 
 V. N. Staroverov, T. A. Keith, R. Kobayashi, J. Normand, 
 K. Raghavachari, A. P. Rendell, J. C. Burant, S. S. Iyengar, 
 J. Tomasi, M. Cossi, J. M. Millam, M. Klene, C. Adamo, R. Cammi, 
 J. W. Ochterski, R. L. Martin, K. Morokuma, O. Farkas, 
 J. B. Foresman, and D. J. Fox, Gaussian, Inc., Wallingford CT, 2016.
 
 ******************************************
 Gaussian 16:  ES64L-G16RevB.01 20-Dec-2017
                 8-Dec-2023 
 ******************************************
 %nproc=15
 Will use up to   15 processors via shared memory.
 -------------------------
 #P B3LYP/6-311+g(d) force
 -------------------------
 1/10=7,30=1,38=1/1,3;
 2/12=2,17=6,18=5,40=1/2;
 3/5=4,6=6,7=11,11=2,25=1,30=1,71=1,74=-5/1,2,3;
 4//1;
 5/5=2,38=5/2;
 6/7=2,8=2,9=2,10=2,28=1/1;
 7/29=1/1,2,3,16;
 1/10=7,30=1/3;
 99//99;
 Leave Link    1 at Fri Dec  8 17:17:39 2023, MaxMem=           0 cpu:               0.3 elap:               0.0
 (Enter /home/sekinelabo/g16/l101.exe)
 -----
 DPGEN
 -----
 Symbolic Z-matrix:
 Charge =  0 Multiplicity = 2
 Na                    13.2975   13.7843   12.7242 
 Na                    12.0129   12.4301   10.779 
 Na                    15.9926   12.7671   12.4094 
 Na                    13.7341   10.9648   12.6633 
 Na                    10.3421   10.9283   12.281 
 Na                    11.6242   12.2961   14.2249 
 Na                    10.5102   14.3428   12.4318 
 
 ITRead=  0  0  0  0  0  0  0
 MicOpt= -1 -1 -1 -1 -1 -1 -1
 NAtoms=      7 NQM=        7 NQMF=       0 NMMI=      0 NMMIF=      0
                NMic=       0 NMicF=      0.
                    Isotopes and Nuclear Properties:
 (Nuclear quadrupole moments (NQMom) in fm**2, nuclear magnetic moments (NMagM)
  in nuclear magnetons)

  Atom         1           2           3           4           5           6           7
 IAtWgt=          23          23          23          23          23          23          23
 AtmWgt=  22.9897697  22.9897697  22.9897697  22.9897697  22.9897697  22.9897697  22.9897697
 NucSpn=           3           3           3           3           3           3           3
 AtZEff=  -0.0000000  -0.0000000  -0.0000000  -0.0000000  -0.0000000  -0.0000000  -0.0000000
 NQMom=   10.4000000  10.4000000  10.4000000  10.4000000  10.4000000  10.4000000  10.4000000
 NMagM=    2.2175200   2.2175200   2.2175200   2.2175200   2.2175200   2.2175200   2.2175200
 AtZNuc=  11.0000000  11.0000000  11.0000000  11.0000000  11.0000000  11.0000000  11.0000000
 Leave Link  101 at Fri Dec  8 17:17:39 2023, MaxMem=  1879048192 cpu:               2.5 elap:               0.2
 (Enter /home/sekinelabo/g16/l103.exe)

 GradGradGradGradGradGradGradGradGradGradGradGradGradGradGradGradGradGrad
 Berny optimization.
 Initialization pass.
 Trust Radius=3.00D-01 FncErr=1.00D-07 GrdErr=1.00D-07 EigMax=2.50D+02 EigMin=1.00D-04
 Number of steps in this run=      2 maximum allowed number of steps=      2.
 GradGradGradGradGradGradGradGradGradGradGradGradGradGradGradGradGradGrad

 Leave Link  103 at Fri Dec  8 17:17:39 2023, MaxMem=  1879048192 cpu:               0.2 elap:               0.0
 (Enter /home/sekinelabo/g16/l202.exe)
                          Input orientation:                          
 ---------------------------------------------------------------------
 Center     Atomic      Atomic             Coordinates (Angstroms)
 Number     Number       Type             X           Y           Z
 ---------------------------------------------------------------------
      1         11           0       13.297500   13.784300   12.724200
      2         11           0       12.012900   12.430100   10.779000
      3         11           0       15.992600   12.767100   12.409400
      4         11           0       13.734100   10.964800   12.663300
      5         11           0       10.342100   10.928300   12.281000
      6         11           0       11.624200   12.296100   14.224900
      7         11           0       10.510200   14.342800   12.431800
 ---------------------------------------------------------------------
                    Distance matrix (angstroms):
                    1          2          3          4          5
     1  Na   0.000000
     2  Na   2.695896   0.000000
     3  Na   2.897820   4.313906   0.000000
     4  Na   2.853753   2.942825   2.900616   0.000000
     5  Na   4.133709   2.702403   5.943553   3.413671   0.000000
     6  Na   2.695695   3.470342   4.754030   2.943235   2.700630
     7  Na   2.857702   2.940795   5.704388   4.675255   3.421960
                    6          7
     6  Na   0.000000
     7  Na   2.940269   0.000000
 Stoichiometry    Na7(2)
 Framework group  C1[X(Na7)]
 Deg. of freedom    15
 Full point group                 C1      NOp   1
 Largest Abelian subgroup         C1      NOp   1
 Largest concise Abelian subgroup C1      NOp   1
                         Standard orientation:                         
 ---------------------------------------------------------------------
 Center     Atomic      Atomic             Coordinates (Angstroms)
 Number     Number       Type             X           Y           Z
 ---------------------------------------------------------------------
      1         11           0        0.795546    1.282378    0.222257
      2         11           0       -0.489042   -0.071833   -1.722943
      3         11           0        3.490655    0.265202   -0.092543
      4         11           0        1.232171   -1.537118    0.161357
      5         11           0       -2.159829   -1.573647   -0.220943
      6         11           0       -0.877741   -0.205836    1.722957
      7         11           0       -1.991759    1.840854   -0.070143
 ---------------------------------------------------------------------
 Rotational constants (GHZ):           1.3683609           0.7314862           0.6471697
 Leave Link  202 at Fri Dec  8 17:17:39 2023, MaxMem=  1879048192 cpu:               0.0 elap:               0.0
 (Enter /home/sekinelabo/g16/l301.exe)
 Standard basis: 6-311+G(d) (5D, 7F)
 Ernie: Thresh=  0.10000D-02 Tol=  0.10000D-05 Strict=F.
 There are   217 symmetry adapted cartesian basis functions of A   symmetry.
 There are   210 symmetry adapted basis functions of A   symmetry.
   210 basis functions,   350 primitive gaussians,   217 cartesian basis functions
    39 alpha electrons       38 beta electrons
       nuclear repulsion energy       406.3993857256 Hartrees.
 IExCor=  402 DFT=T Ex+Corr=B3LYP ExCW=0 ScaHFX=  0.200000
 ScaDFX=  0.800000  0.720000  1.000000  0.810000 ScalE2=  1.000000  1.000000
 IRadAn=      5 IRanWt=     -1 IRanGd=            0 ICorTp=0 IEmpDi=  4
 NAtoms=    7 NActive=    7 NUniq=    7 SFac= 1.00D+00 NAtFMM=   60 NAOKFM=F Big=F
 Integral buffers will be    131072 words long.
 Raffenetti 2 integral format.
 Two-electron integral symmetry is turned on.
 Leave Link  301 at Fri Dec  8 17:17:39 2023, MaxMem=  1879048192 cpu:               0.5 elap:               0.0
 (Enter /home/sekinelabo/g16/l302.exe)
 NPDir=0 NMtPBC=     1 NCelOv=     1 NCel=       1 NClECP=     1 NCelD=      1
         NCelK=      1 NCelE2=     1 NClLst=     1 CellRange=     0.0.
 One-electron integrals computed using PRISM.
 One-electron integral symmetry used in STVInt
 NBasis=   210 RedAO= T EigKep=  2.68D-06  NBF=   210
 NBsUse=   209 1.00D-06 EigRej=  5.17D-07 NBFU=   209
 Precomputing XC quadrature grid using
 IXCGrd= 4 IRadAn=           5 IRanWt=          -1 IRanGd=           0 AccXCQ= 0.00D+00.
 Generated NRdTot=       0 NPtTot=           0 NUsed=           0 NTot=          32
 NSgBfM=   210   210   210   210   210 MxSgAt=     7 MxSgA2=     7.
 Leave Link  302 at Fri Dec  8 17:17:40 2023, MaxMem=  1879048192 cpu:               2.2 elap:               0.2
 (Enter /home/sekinelabo/g16/l303.exe)
 DipDrv:  MaxL=1.
 Leave Link  303 at Fri Dec  8 17:17:40 2023, MaxMem=  1879048192 cpu:               0.5 elap:               0.0
 (Enter /home/sekinelabo/g16/l401.exe)
 ExpMin= 7.60D-03 ExpMax= 3.62D+04 ExpMxC= 1.21D+03 IAcc=3 IRadAn=         5 AccDes= 0.00D+00
 Harris functional with IExCor=  402 and IRadAn=       5 diagonalized for initial guess.
 HarFok:  IExCor=  402 AccDes= 0.00D+00 IRadAn=         5 IDoV= 1 UseB2=F ITyADJ=14
 ICtDFT=  3500011 ScaDFX=  1.000000  1.000000  1.000000  1.000000
 FoFCou: FMM=F IPFlag=           0 FMFlag=      100000 FMFlg1=           0
         NFxFlg=           0 DoJE=T BraDBF=F KetDBF=T FulRan=T
         wScrn=  0.000000 ICntrl=       500 IOpCl=  0 I1Cent=   200000004 NGrid=           0
         NMat0=    1 NMatS0=      1 NMatT0=    0 NMatD0=    1 NMtDS0=    0 NMtDT0=    0
 Petite list used in FoFCou.
 Harris En= -1135.84579235988    
 JPrj=0 DoOrth=F DoCkMO=F.
 Initial guess <Sx>= 0.0000 <Sy>= 0.0000 <Sz>= 0.5000 <S**2>= 0.7500 S= 0.5000
 Leave Link  401 at Fri Dec  8 17:17:40 2023, MaxMem=  1879048192 cpu:               4.4 elap:               0.3
 (Enter /home/sekinelabo/g16/l502.exe)
 Keep R1 and R2 ints in memory in canonical form, NReq=506573321.
 FoFCou: FMM=F IPFlag=           0 FMFlag=           0 FMFlg1=           0
         NFxFlg=           0 DoJE=F BraDBF=F KetDBF=F FulRan=T
         wScrn=  0.000000 ICntrl=       600 IOpCl=  0 I1Cent=           0 NGrid=           0
         NMat0=    1 NMatS0=  22155 NMatT0=    0 NMatD0=    1 NMtDS0=    0 NMtDT0=    0
 Symmetry not used in FoFCou.
 Two-electron integral symmetry not used.
 UHF open shell SCF:
 Using DIIS extrapolation, IDIIS=  1040.
 NGot=  1879048192 LenX=  1388082579 LenY=  1388035049
 Requested convergence on RMS density matrix=1.00D-08 within 128 cycles.
 Requested convergence on MAX density matrix=1.00D-06.
 Requested convergence on             energy=1.00D-06.
 No special actions if energy rises.

 Cycle   1  Pass 1  IDiag  1:
 E= -1136.02056396572    
 DIIS: error= 1.59D-02 at cycle   1 NSaved=   1.
 NSaved= 1 IEnMin= 1 EnMin= -1136.02056396572     IErMin= 1 ErrMin= 1.59D-02
 ErrMax= 1.59D-02  0.00D+00 EMaxC= 1.00D-01 BMatC= 2.15D-01 BMatP= 2.15D-01
 IDIUse=3 WtCom= 8.41D-01 WtEn= 1.59D-01
 Coeff-Com:  0.100D+01
 Coeff-En:   0.100D+01
 Coeff:      0.100D+01
 Gap=     0.040 Goal=   None    Shift=    0.000
 Gap=     0.036 Goal=   None    Shift=    0.000
 GapD=    0.036 DampG=0.250 DampE=0.500 DampFc=0.2500 IDamp=-1.
 Damping current iteration by 2.50D-01
 RMSDP=9.46D-02 MaxDP=1.07D+01              OVMax= 2.91D-01

 Cycle   2  Pass 1  IDiag  1:
 E= -1136.03826156646     Delta-E=       -0.017697600742 Rises=F Damp=T
 DIIS: error= 9.23D-03 at cycle   2 NSaved=   2.
 NSaved= 2 IEnMin= 2 EnMin= -1136.03826156646     IErMin= 2 ErrMin= 9.23D-03
 ErrMax= 9.23D-03  0.00D+00 EMaxC= 1.00D-01 BMatC= 8.00D-02 BMatP= 2.15D-01
 IDIUse=3 WtCom= 9.08D-01 WtEn= 9.23D-02
 Coeff-Com: -0.122D+01 0.222D+01
 Coeff-En:   0.000D+00 0.100D+01
 Coeff:     -0.111D+01 0.211D+01
 Gap=     0.058 Goal=   None    Shift=    0.000
 Gap=     0.040 Goal=   None    Shift=    0.000
 RMSDP=3.99D-02 MaxDP=4.23D+00 DE=-1.77D-02 OVMax= 2.16D-01

 Cycle   3  Pass 1  IDiag  1:
 E= -1136.06583663763     Delta-E=       -0.027575071171 Rises=F Damp=F
 DIIS: error= 4.93D-03 at cycle   3 NSaved=   3.
 NSaved= 3 IEnMin= 3 EnMin= -1136.06583663763     IErMin= 3 ErrMin= 4.93D-03
 ErrMax= 4.93D-03  0.00D+00 EMaxC= 1.00D-01 BMatC= 7.39D-03 BMatP= 8.00D-02
 IDIUse=3 WtCom= 9.51D-01 WtEn= 4.93D-02
 Coeff-Com: -0.373D+00 0.676D+00 0.697D+00
 Coeff-En:   0.000D+00 0.000D+00 0.100D+01
 Coeff:     -0.355D+00 0.643D+00 0.712D+00
 Gap=     0.050 Goal=   None    Shift=    0.000
 Gap=     0.038 Goal=   None    Shift=    0.000
 RMSDP=1.87D-02 MaxDP=2.05D+00 DE=-2.76D-02 OVMax= 9.49D-02

 Cycle   4  Pass 1  IDiag  1:
 E= -1136.06774096548     Delta-E=       -0.001904327854 Rises=F Damp=F
 DIIS: error= 3.18D-03 at cycle   4 NSaved=   4.
 NSaved= 4 IEnMin= 4 EnMin= -1136.06774096548     IErMin= 4 ErrMin= 3.18D-03
 ErrMax= 3.18D-03  0.00D+00 EMaxC= 1.00D-01 BMatC= 3.67D-03 BMatP= 7.39D-03
 IDIUse=3 WtCom= 9.68D-01 WtEn= 3.18D-02
 Coeff-Com: -0.794D-02 0.140D-01 0.411D+00 0.583D+00
 Coeff-En:   0.000D+00 0.000D+00 0.374D+00 0.626D+00
 Coeff:     -0.769D-02 0.136D-01 0.410D+00 0.584D+00
 Gap=     0.054 Goal=   None    Shift=    0.000
 Gap=     0.039 Goal=   None    Shift=    0.000
 RMSDP=5.24D-03 MaxDP=5.27D-01 DE=-1.90D-03 OVMax= 5.49D-02

 Cycle   5  Pass 1  IDiag  1:
 E= -1136.06979296227     Delta-E=       -0.002051996781 Rises=F Damp=F
 DIIS: error= 1.13D-03 at cycle   5 NSaved=   5.
 NSaved= 5 IEnMin= 5 EnMin= -1136.06979296227     IErMin= 5 ErrMin= 1.13D-03
 ErrMax= 1.13D-03  0.00D+00 EMaxC= 1.00D-01 BMatC= 2.75D-04 BMatP= 3.67D-03
 IDIUse=3 WtCom= 9.89D-01 WtEn= 1.13D-02
 Coeff-Com: -0.118D-02 0.125D-02 0.264D+00 0.387D+00 0.349D+00
 Coeff-En:   0.000D+00 0.000D+00 0.000D+00 0.351D-01 0.965D+00
 Coeff:     -0.116D-02 0.123D-02 0.261D+00 0.383D+00 0.356D+00
 Gap=     0.054 Goal=   None    Shift=    0.000
 Gap=     0.039 Goal=   None    Shift=    0.000
 RMSDP=1.41D-03 MaxDP=1.03D-01 DE=-2.05D-03 OVMax= 1.74D-02

 Cycle   6  Pass 1  IDiag  1:
 E= -1136.07008427598     Delta-E=       -0.000291313713 Rises=F Damp=F
 DIIS: error= 1.31D-04 at cycle   6 NSaved=   6.
 NSaved= 6 IEnMin= 6 EnMin= -1136.07008427598     IErMin= 6 ErrMin= 1.31D-04
 ErrMax= 1.31D-04  0.00D+00 EMaxC= 1.00D-01 BMatC= 4.06D-06 BMatP= 2.75D-04
 IDIUse=3 WtCom= 9.99D-01 WtEn= 1.31D-03
 Coeff-Com: -0.873D-03 0.825D-03-0.257D-01-0.451D-01 0.642D-01 0.101D+01
 Coeff-En:   0.000D+00 0.000D+00 0.000D+00 0.000D+00 0.000D+00 0.100D+01
 Coeff:     -0.872D-03 0.824D-03-0.257D-01-0.450D-01 0.641D-01 0.101D+01
 Gap=     0.054 Goal=   None    Shift=    0.000
 Gap=     0.039 Goal=   None    Shift=    0.000
 RMSDP=5.19D-04 MaxDP=6.02D-02 DE=-2.91D-04 OVMax= 3.84D-03

 Cycle   7  Pass 1  IDiag  1:
 E= -1136.07009162094     Delta-E=       -0.000007344964 Rises=F Damp=F
 DIIS: error= 3.70D-05 at cycle   7 NSaved=   7.
 NSaved= 7 IEnMin= 7 EnMin= -1136.07009162094     IErMin= 7 ErrMin= 3.70D-05
 ErrMax= 3.70D-05  0.00D+00 EMaxC= 1.00D-01 BMatC= 5.71D-07 BMatP= 4.06D-06
 IDIUse=1 WtCom= 1.00D+00 WtEn= 0.00D+00
 Coeff-Com: -0.256D-03 0.205D-03-0.209D-01-0.325D-01 0.750D-02 0.360D+00
 Coeff-Com:  0.686D+00
 Coeff:     -0.256D-03 0.205D-03-0.209D-01-0.325D-01 0.750D-02 0.360D+00
 Coeff:      0.686D+00
 Gap=     0.054 Goal=   None    Shift=    0.000
 Gap=     0.039 Goal=   None    Shift=    0.000
 RMSDP=1.16D-04 MaxDP=1.10D-02 DE=-7.34D-06 OVMax= 1.61D-03

 Cycle   8  Pass 1  IDiag  1:
 E= -1136.07009275167     Delta-E=       -0.000001130732 Rises=F Damp=F
 DIIS: error= 3.13D-05 at cycle   8 NSaved=   8.
 NSaved= 8 IEnMin= 8 EnMin= -1136.07009275167     IErMin= 8 ErrMin= 3.13D-05
 ErrMax= 3.13D-05  0.00D+00 EMaxC= 1.00D-01 BMatC= 3.08D-07 BMatP= 5.71D-07
 IDIUse=1 WtCom= 1.00D+00 WtEn= 0.00D+00
 Coeff-Com:  0.291D-03-0.328D-03-0.273D-02-0.548D-03-0.278D-01-0.239D+00
 Coeff-Com:  0.434D+00 0.836D+00
 Coeff:      0.291D-03-0.328D-03-0.273D-02-0.548D-03-0.278D-01-0.239D+00
 Coeff:      0.434D+00 0.836D+00
 Gap=     0.054 Goal=   None    Shift=    0.000
 Gap=     0.039 Goal=   None    Shift=    0.000
 RMSDP=1.35D-04 MaxDP=1.37D-02 DE=-1.13D-06 OVMax= 1.74D-03

 Cycle   9  Pass 1  IDiag  1:
 E= -1136.07009375807     Delta-E=       -0.000001006398 Rises=F Damp=F
 DIIS: error= 1.24D-05 at cycle   9 NSaved=   9.
 NSaved= 9 IEnMin= 9 EnMin= -1136.07009375807     IErMin= 9 ErrMin= 1.24D-05
 ErrMax= 1.24D-05  0.00D+00 EMaxC= 1.00D-01 BMatC= 4.65D-08 BMatP= 3.08D-07
 IDIUse=1 WtCom= 1.00D+00 WtEn= 0.00D+00
 Coeff-Com:  0.187D-03-0.211D-03 0.260D-02 0.532D-02-0.101D-01-0.125D+00
 Coeff-Com: -0.566D-01 0.208D+00 0.976D+00
 Coeff:      0.187D-03-0.211D-03 0.260D-02 0.532D-02-0.101D-01-0.125D+00
 Coeff:     -0.566D-01 0.208D+00 0.976D+00
 Gap=     0.054 Goal=   None    Shift=    0.000
 Gap=     0.039 Goal=   None    Shift=    0.000
 RMSDP=6.77D-05 MaxDP=4.76D-03 DE=-1.01D-06 OVMax= 1.10D-03

 Cycle  10  Pass 1  IDiag  1:
 E= -1136.07009403395     Delta-E=       -0.000000275880 Rises=F Damp=F
 DIIS: error= 6.32D-06 at cycle  10 NSaved=  10.
 NSaved=10 IEnMin=10 EnMin= -1136.07009403395     IErMin=10 ErrMin= 6.32D-06
 ErrMax= 6.32D-06  0.00D+00 EMaxC= 1.00D-01 BMatC= 1.34D-08 BMatP= 4.65D-08
 IDIUse=1 WtCom= 1.00D+00 WtEn= 0.00D+00
 Coeff-Com: -0.499D-04 0.742D-04 0.211D-02 0.227D-02 0.510D-02 0.170D-01
 Coeff-Com: -0.142D+00-0.181D+00 0.318D+00 0.978D+00
 Coeff:     -0.499D-04 0.742D-04 0.211D-02 0.227D-02 0.510D-02 0.170D-01
 Coeff:     -0.142D+00-0.181D+00 0.318D+00 0.978D+00
 Gap=     0.054 Goal=   None    Shift=    0.000
 Gap=     0.039 Goal=   None    Shift=    0.000
 RMSDP=4.21D-05 MaxDP=3.98D-03 DE=-2.76D-07 OVMax= 6.83D-04

 Cycle  11  Pass 1  IDiag  1:
 E= -1136.07009412027     Delta-E=       -0.000000086313 Rises=F Damp=F
 DIIS: error= 1.98D-06 at cycle  11 NSaved=  11.
 NSaved=11 IEnMin=11 EnMin= -1136.07009412027     IErMin=11 ErrMin= 1.98D-06
 ErrMax= 1.98D-06  0.00D+00 EMaxC= 1.00D-01 BMatC= 1.67D-09 BMatP= 1.34D-08
 IDIUse=1 WtCom= 1.00D+00 WtEn= 0.00D+00
 Coeff-Com: -0.792D-04 0.974D-04-0.251D-03-0.684D-03 0.255D-02 0.261D-01
 Coeff-Com:  0.155D-03-0.457D-01-0.166D+00-0.432D-01 0.123D+01
 Coeff:     -0.792D-04 0.974D-04-0.251D-03-0.684D-03 0.255D-02 0.261D-01
 Coeff:      0.155D-03-0.457D-01-0.166D+00-0.432D-01 0.123D+01
 Gap=     0.054 Goal=   None    Shift=    0.000
 Gap=     0.039 Goal=   None    Shift=    0.000
 RMSDP=1.65D-05 MaxDP=1.36D-03 DE=-8.63D-08 OVMax= 4.35D-04

 Cycle  12  Pass 1  IDiag  1:
 E= -1136.07009413789     Delta-E=       -0.000000017622 Rises=F Damp=F
 DIIS: error= 1.05D-06 at cycle  12 NSaved=  12.
 NSaved=12 IEnMin=12 EnMin= -1136.07009413789     IErMin=12 ErrMin= 1.05D-06
 ErrMax= 1.05D-06  0.00D+00 EMaxC= 1.00D-01 BMatC= 3.63D-10 BMatP= 1.67D-09
 IDIUse=1 WtCom= 1.00D+00 WtEn= 0.00D+00
 Coeff-Com:  0.330D-04-0.439D-04-0.197D-03-0.116D-03-0.115D-02-0.697D-02
 Coeff-Com:  0.196D-01 0.337D-01-0.207D-01-0.125D+00-0.191D+00 0.129D+01
 Coeff:      0.330D-04-0.439D-04-0.197D-03-0.116D-03-0.115D-02-0.697D-02
 Coeff:      0.196D-01 0.337D-01-0.207D-01-0.125D+00-0.191D+00 0.129D+01
 Gap=     0.054 Goal=   None    Shift=    0.000
 Gap=     0.039 Goal=   None    Shift=    0.000
 RMSDP=7.26D-06 MaxDP=4.28D-04 DE=-1.76D-08 OVMax= 2.24D-04

 Cycle  13  Pass 1  IDiag  1:
 E= -1136.07009414187     Delta-E=       -0.000000003985 Rises=F Damp=F
 DIIS: error= 6.54D-07 at cycle  13 NSaved=  13.
 NSaved=13 IEnMin=13 EnMin= -1136.07009414187     IErMin=13 ErrMin= 6.54D-07
 ErrMax= 6.54D-07  0.00D+00 EMaxC= 1.00D-01 BMatC= 1.49D-10 BMatP= 3.63D-10
 IDIUse=1 WtCom= 1.00D+00 WtEn= 0.00D+00
 Coeff-Com:  0.239D-04-0.300D-04-0.309D-04 0.899D-04-0.889D-03-0.784D-02
 Coeff-Com:  0.386D-02 0.191D-01 0.380D-01-0.104D-01-0.362D+00 0.253D+00
 Coeff-Com:  0.107D+01
 Coeff:      0.239D-04-0.300D-04-0.309D-04 0.899D-04-0.889D-03-0.784D-02
 Coeff:      0.386D-02 0.191D-01 0.380D-01-0.104D-01-0.362D+00 0.253D+00
 Coeff:      0.107D+01
 Gap=     0.054 Goal=   None    Shift=    0.000
 Gap=     0.039 Goal=   None    Shift=    0.000
 RMSDP=5.04D-06 MaxDP=2.98D-04 DE=-3.98D-09 OVMax= 1.39D-04

 Cycle  14  Pass 1  IDiag  1:
 E= -1136.07009414319     Delta-E=       -0.000000001321 Rises=F Damp=F
 DIIS: error= 5.66D-07 at cycle  14 NSaved=  14.
 NSaved=14 IEnMin=14 EnMin= -1136.07009414319     IErMin=14 ErrMin= 5.66D-07
 ErrMax= 5.66D-07  0.00D+00 EMaxC= 1.00D-01 BMatC= 1.04D-10 BMatP= 1.49D-10
 IDIUse=1 WtCom= 1.00D+00 WtEn= 0.00D+00
 Coeff-Com:  0.526D-06 0.573D-06 0.569D-04 0.986D-04-0.106D-03-0.214D-02
 Coeff-Com: -0.660D-02-0.231D-02 0.361D-01 0.519D-01-0.172D+00-0.394D+00
 Coeff-Com:  0.759D+00 0.730D+00
 Coeff:      0.526D-06 0.573D-06 0.569D-04 0.986D-04-0.106D-03-0.214D-02
 Coeff:     -0.660D-02-0.231D-02 0.361D-01 0.519D-01-0.172D+00-0.394D+00
 Coeff:      0.759D+00 0.730D+00
 Gap=     0.054 Goal=   None    Shift=    0.000
 Gap=     0.039 Goal=   None    Shift=    0.000
 RMSDP=3.29D-06 MaxDP=2.14D-04 DE=-1.32D-09 OVMax= 9.19D-05

 Cycle  15  Pass 1  IDiag  1:
 E= -1136.07009414372     Delta-E=       -0.000000000522 Rises=F Damp=F
 DIIS: error= 2.33D-07 at cycle  15 NSaved=  15.
 NSaved=15 IEnMin=15 EnMin= -1136.07009414372     IErMin=15 ErrMin= 2.33D-07
 ErrMax= 2.33D-07  0.00D+00 EMaxC= 1.00D-01 BMatC= 1.63D-11 BMatP= 1.04D-10
 IDIUse=1 WtCom= 1.00D+00 WtEn= 0.00D+00
 Coeff-Com: -0.748D-05 0.989D-05 0.374D-04 0.354D-05 0.266D-03 0.200D-02
 Coeff-Com: -0.353D-02-0.729D-02-0.697D-03 0.205D-01 0.671D-01-0.212D+00
 Coeff-Com: -0.120D+00 0.231D+00 0.102D+01
 Coeff:     -0.748D-05 0.989D-05 0.374D-04 0.354D-05 0.266D-03 0.200D-02
 Coeff:     -0.353D-02-0.729D-02-0.697D-03 0.205D-01 0.671D-01-0.212D+00
 Coeff:     -0.120D+00 0.231D+00 0.102D+01
 Gap=     0.054 Goal=   None    Shift=    0.000
 Gap=     0.039 Goal=   None    Shift=    0.000
 RMSDP=1.99D-06 MaxDP=1.38D-04 DE=-5.22D-10 OVMax= 5.43D-05

 Cycle  16  Pass 1  IDiag  1:
 E= -1136.07009414384     Delta-E=       -0.000000000124 Rises=F Damp=F
 DIIS: error= 1.25D-07 at cycle  16 NSaved=  16.
 NSaved=16 IEnMin=16 EnMin= -1136.07009414384     IErMin=16 ErrMin= 1.25D-07
 ErrMax= 1.25D-07  0.00D+00 EMaxC= 1.00D-01 BMatC= 3.72D-12 BMatP= 1.63D-11
 IDIUse=1 WtCom= 1.00D+00 WtEn= 0.00D+00
 Coeff-Com: -0.103D-05 0.106D-05 0.156D-05-0.150D-04 0.991D-04 0.816D-03
 Coeff-Com:  0.108D-02-0.684D-03-0.916D-02-0.104D-01 0.594D-01 0.497D-01
 Coeff-Com: -0.207D+00-0.130D+00 0.225D+00 0.102D+01
 Coeff:     -0.103D-05 0.106D-05 0.156D-05-0.150D-04 0.991D-04 0.816D-03
 Coeff:      0.108D-02-0.684D-03-0.916D-02-0.104D-01 0.594D-01 0.497D-01
 Coeff:     -0.207D+00-0.130D+00 0.225D+00 0.102D+01
 Gap=     0.054 Goal=   None    Shift=    0.000
 Gap=     0.039 Goal=   None    Shift=    0.000
 RMSDP=7.45D-07 MaxDP=5.29D-05 DE=-1.24D-10 OVMax= 2.42D-05

 Cycle  17  Pass 1  IDiag  1:
 E= -1136.07009414388     Delta-E=       -0.000000000040 Rises=F Damp=F
 DIIS: error= 7.35D-08 at cycle  17 NSaved=  17.
 NSaved=17 IEnMin=17 EnMin= -1136.07009414388     IErMin=17 ErrMin= 7.35D-08
 ErrMax= 7.35D-08  0.00D+00 EMaxC= 1.00D-01 BMatC= 9.56D-13 BMatP= 3.72D-12
 IDIUse=1 WtCom= 1.00D+00 WtEn= 0.00D+00
 Coeff-Com:  0.182D-05-0.243D-05-0.115D-04-0.889D-06-0.781D-04-0.473D-03
 Coeff-Com:  0.730D-03 0.163D-02 0.103D-02-0.423D-02-0.206D-01 0.501D-01
 Coeff-Com:  0.478D-01-0.668D-01-0.279D+00 0.115D-01 0.126D+01
 Coeff:      0.182D-05-0.243D-05-0.115D-04-0.889D-06-0.781D-04-0.473D-03
 Coeff:      0.730D-03 0.163D-02 0.103D-02-0.423D-02-0.206D-01 0.501D-01
 Coeff:      0.478D-01-0.668D-01-0.279D+00 0.115D-01 0.126D+01
 Gap=     0.054 Goal=   None    Shift=    0.000
 Gap=     0.039 Goal=   None    Shift=    0.000
 RMSDP=3.27D-07 MaxDP=2.19D-05 DE=-4.02D-11 OVMax= 1.51D-05

 Cycle  18  Pass 1  IDiag  1:
 E= -1136.07009414388     Delta-E=        0.000000000003 Rises=F Damp=F
 DIIS: error= 4.02D-08 at cycle  18 NSaved=  18.
 NSaved=18 IEnMin=17 EnMin= -1136.07009414388     IErMin=18 ErrMin= 4.02D-08
 ErrMax= 4.02D-08  0.00D+00 EMaxC= 1.00D-01 BMatC= 2.49D-13 BMatP= 9.56D-13
 IDIUse=1 WtCom= 1.00D+00 WtEn= 0.00D+00
 Coeff-Com: -0.302D-06 0.522D-06 0.313D-05 0.488D-05-0.437D-05-0.137D-03
 Coeff-Com: -0.494D-03-0.214D-03 0.209D-02 0.469D-02-0.114D-01-0.287D-01
 Coeff-Com:  0.395D-01 0.566D-01 0.485D-01-0.290D+00-0.533D+00 0.171D+01
 Coeff:     -0.302D-06 0.522D-06 0.313D-05 0.488D-05-0.437D-05-0.137D-03
 Coeff:     -0.494D-03-0.214D-03 0.209D-02 0.469D-02-0.114D-01-0.287D-01
 Coeff:      0.395D-01 0.566D-01 0.485D-01-0.290D+00-0.533D+00 0.171D+01
 Gap=     0.054 Goal=   None    Shift=    0.000
 Gap=     0.039 Goal=   None    Shift=    0.000
 RMSDP=2.48D-07 MaxDP=2.11D-05 DE= 2.96D-12 OVMax= 1.15D-05

 Cycle  19  Pass 1  IDiag  1:
 E= -1136.07009414390     Delta-E=       -0.000000000023 Rises=F Damp=F
 DIIS: error= 1.56D-08 at cycle  19 NSaved=  19.
 NSaved=19 IEnMin=19 EnMin= -1136.07009414390     IErMin=19 ErrMin= 1.56D-08
 ErrMax= 1.56D-08  0.00D+00 EMaxC= 1.00D-01 BMatC= 5.25D-14 BMatP= 2.49D-13
 IDIUse=1 WtCom= 1.00D+00 WtEn= 0.00D+00
 Coeff-Com: -0.500D-06 0.640D-06 0.216D-05-0.134D-05 0.253D-04 0.180D-03
 Coeff-Com: -0.186D-03-0.467D-03-0.346D-03 0.581D-03 0.616D-02-0.875D-02
 Coeff-Com: -0.146D-01 0.868D-02 0.570D-01 0.264D-01-0.198D+00-0.200D+00
 Coeff-Com:  0.132D+01
 Coeff:     -0.500D-06 0.640D-06 0.216D-05-0.134D-05 0.253D-04 0.180D-03
 Coeff:     -0.186D-03-0.467D-03-0.346D-03 0.581D-03 0.616D-02-0.875D-02
 Coeff:     -0.146D-01 0.868D-02 0.570D-01 0.264D-01-0.198D+00-0.200D+00
 Coeff:      0.132D+01
 Gap=     0.054 Goal=   None    Shift=    0.000
 Gap=     0.039 Goal=   None    Shift=    0.000
 RMSDP=1.17D-07 MaxDP=6.57D-06 DE=-2.34D-11 OVMax= 4.46D-06

 Cycle  20  Pass 1  IDiag  1:
 E= -1136.07009414388     Delta-E=        0.000000000020 Rises=F Damp=F
 DIIS: error= 6.63D-09 at cycle  20 NSaved=  20.
 NSaved=20 IEnMin=19 EnMin= -1136.07009414390     IErMin=20 ErrMin= 6.63D-09
 ErrMax= 6.63D-09  0.00D+00 EMaxC= 1.00D-01 BMatC= 1.77D-14 BMatP= 5.25D-14
 IDIUse=1 WtCom= 1.00D+00 WtEn= 0.00D+00
 Coeff-Com:  0.935D-07-0.154D-06 0.128D-06-0.457D-06 0.231D-05 0.407D-04
 Coeff-Com:  0.135D-03 0.566D-04-0.591D-03-0.154D-02 0.405D-02 0.765D-02
 Coeff-Com: -0.134D-01-0.149D-01-0.910D-02 0.877D-01 0.134D+00-0.530D+00
 Coeff-Com:  0.213D+00 0.112D+01
 Coeff:      0.935D-07-0.154D-06 0.128D-06-0.457D-06 0.231D-05 0.407D-04
 Coeff:      0.135D-03 0.566D-04-0.591D-03-0.154D-02 0.405D-02 0.765D-02
 Coeff:     -0.134D-01-0.149D-01-0.910D-02 0.877D-01 0.134D+00-0.530D+00
 Coeff:      0.213D+00 0.112D+01
 Gap=     0.054 Goal=   None    Shift=    0.000
 Gap=     0.039 Goal=   None    Shift=    0.000
 RMSDP=6.72D-08 MaxDP=4.22D-06 DE= 1.98D-11 OVMax= 2.08D-06

 Cycle  21  Pass 1  IDiag  1:
 E= -1136.07009414390     Delta-E=       -0.000000000024 Rises=F Damp=F
 DIIS: error= 2.94D-09 at cycle  21 NSaved=  20.
 NSaved=20 IEnMin=20 EnMin= -1136.07009414390     IErMin=20 ErrMin= 2.94D-09
 ErrMax= 2.94D-09  0.00D+00 EMaxC= 1.00D-01 BMatC= 4.51D-15 BMatP= 1.77D-14
 IDIUse=1 WtCom= 1.00D+00 WtEn= 0.00D+00
 Large coefficients: NSaved= 20 BigCof=    0.00 CofMax=   10.00 Det=-4.89D-15
 Inversion failed.  Reducing to 19 matrices.
 Large coefficients: NSaved= 19 BigCof=    0.00 CofMax=   10.00 Det=-4.90D-15
 Inversion failed.  Reducing to 18 matrices.
 Large coefficients: NSaved= 18 BigCof=    0.00 CofMax=   10.00 Det=-4.92D-15
 Inversion failed.  Reducing to 17 matrices.
 Large coefficients: NSaved= 17 BigCof=    0.00 CofMax=   10.00 Det=-5.18D-15
 Inversion failed.  Reducing to 16 matrices.
 Large coefficients: NSaved= 16 BigCof=    0.00 CofMax=   10.00 Det=-5.31D-15
 Inversion failed.  Reducing to 15 matrices.
 Coeff-Com: -0.438D-05-0.181D-04-0.198D-04 0.152D-03-0.232D-03 0.194D-03
 Coeff-Com:  0.218D-03 0.168D-03-0.408D-02-0.148D-02 0.198D-01 0.456D-01
 Coeff-Com: -0.340D+00 0.696D-01 0.121D+01
 Coeff:     -0.438D-05-0.181D-04-0.198D-04 0.152D-03-0.232D-03 0.194D-03
 Coeff:      0.218D-03 0.168D-03-0.408D-02-0.148D-02 0.198D-01 0.456D-01
 Coeff:     -0.340D+00 0.696D-01 0.121D+01
 Gap=     0.054 Goal=   None    Shift=    0.000
 Gap=     0.039 Goal=   None    Shift=    0.000
 RMSDP=3.83D-08 MaxDP=2.15D-06 DE=-2.36D-11 OVMax= 1.12D-06

 Cycle  22  Pass 1  IDiag  1:
 E= -1136.07009414388     Delta-E=        0.000000000020 Rises=F Damp=F
 DIIS: error= 2.00D-09 at cycle  22 NSaved=  16.
 NSaved=16 IEnMin=15 EnMin= -1136.07009414390     IErMin=16 ErrMin= 2.00D-09
 ErrMax= 2.00D-09  0.00D+00 EMaxC= 1.00D-01 BMatC= 1.24D-15 BMatP= 4.51D-15
 IDIUse=1 WtCom= 1.00D+00 WtEn= 0.00D+00
 Large coefficients: NSaved= 16 BigCof=    0.00 CofMax=   10.00 Det=-1.86D-15
 Inversion failed.  Reducing to 15 matrices.
 Coeff-Com: -0.105D-04-0.234D-04 0.184D-03-0.270D-03-0.638D-03 0.949D-03
 Coeff-Com:  0.165D-02 0.134D-02-0.105D-01-0.258D-01 0.112D+00-0.107D+00
 Coeff-Com: -0.261D+00 0.314D+00 0.974D+00
 Coeff:     -0.105D-04-0.234D-04 0.184D-03-0.270D-03-0.638D-03 0.949D-03
 Coeff:      0.165D-02 0.134D-02-0.105D-01-0.258D-01 0.112D+00-0.107D+00
 Coeff:     -0.261D+00 0.314D+00 0.974D+00
 Gap=     0.054 Goal=   None    Shift=    0.000
 Gap=     0.039 Goal=   None    Shift=    0.000
 RMSDP=1.39D-08 MaxDP=8.21D-07 DE= 1.96D-11 OVMax= 3.01D-07

 Cycle  23  Pass 1  IDiag  1:
 E= -1136.07009414388     Delta-E=        0.000000000004 Rises=F Damp=F
 DIIS: error= 1.36D-09 at cycle  23 NSaved=  16.
 NSaved=16 IEnMin=14 EnMin= -1136.07009414390     IErMin=16 ErrMin= 1.36D-09
 ErrMax= 1.36D-09  0.00D+00 EMaxC= 1.00D-01 BMatC= 4.70D-16 BMatP= 1.24D-15
 IDIUse=1 WtCom= 1.00D+00 WtEn= 0.00D+00
 Large coefficients: NSaved= 16 BigCof=    0.00 CofMax=   10.00 Det=-1.18D-15
 Inversion failed.  Reducing to 15 matrices.
 Coeff-Com:  0.420D-05 0.497D-04-0.168D-03-0.189D-03 0.622D-03 0.593D-03
 Coeff-Com:  0.148D-03-0.443D-02-0.100D-01 0.396D-01 0.816D-02-0.153D+00
 Coeff-Com: -0.703D-01 0.546D+00 0.643D+00
 Coeff:      0.420D-05 0.497D-04-0.168D-03-0.189D-03 0.622D-03 0.593D-03
 Coeff:      0.148D-03-0.443D-02-0.100D-01 0.396D-01 0.816D-02-0.153D+00
 Coeff:     -0.703D-01 0.546D+00 0.643D+00
 Gap=     0.054 Goal=   None    Shift=    0.000
 Gap=     0.039 Goal=   None    Shift=    0.000
 RMSDP=4.80D-09 MaxDP=2.91D-07 DE= 4.09D-12 OVMax= 9.34D-08

 SCF Done:  E(UB3LYP) =  -1136.07009414     A.U. after   23 cycles
            NFock= 23  Conv=0.48D-08     -V/T= 2.0023
 <Sx>= 0.0000 <Sy>= 0.0000 <Sz>= 0.5000 <S**2>= 0.7607 S= 0.5053
 <L.S>= 0.000000000000E+00
 KE= 1.133502855051D+03 PE=-3.542182011983D+03 EE= 8.662096770622D+02
 Annihilation of the first spin contaminant:
 S**2 before annihilation     0.7607,   after     0.7501
 Leave Link  502 at Fri Dec  8 17:17:59 2023, MaxMem=  1879048192 cpu:             212.8 elap:              19.0
 (Enter /home/sekinelabo/g16/l601.exe)
 Copying SCF densities to generalized density rwf, IOpCl= 1 IROHF=0.

 **********************************************************************

            Population analysis using the SCF Density.

 **********************************************************************

 Orbital symmetries:
 Alpha Orbitals:
       Occupied  (A) (A) (A) (A) (A) (A) (A) (A) (A) (A) (A) (A)
                 (A) (A) (A) (A) (A) (A) (A) (A) (A) (A) (A) (A)
                 (A) (A) (A) (A) (A) (A) (A) (A) (A) (A) (A) (A)
                 (A) (A) (A)
       Virtual   (A) (A) (A) (A) (A) (A) (A) (A) (A) (A) (A) (A)
                 (A) (A) (A) (A) (A) (A) (A) (A) (A) (A) (A) (A)
                 (A) (A) (A) (A) (A) (A) (A) (A) (A) (A) (A) (A)
                 (A) (A) (A) (A) (A) (A) (A) (A) (A) (A) (A) (A)
                 (A) (A) (A) (A) (A) (A) (A) (A) (A) (A) (A) (A)
                 (A) (A) (A) (A) (A) (A) (A) (A) (A) (A) (A) (A)
                 (A) (A) (A) (A) (A) (A) (A) (A) (A) (A) (A) (A)
                 (A) (A) (A) (A) (A) (A) (A) (A) (A) (A) (A) (A)
                 (A) (A) (A) (A) (A) (A) (A) (A) (A) (A) (A) (A)
                 (A) (A) (A) (A) (A) (A) (A) (A) (A) (A) (A) (A)
                 (A) (A) (A) (A) (A) (A) (A) (A) (A) (A) (A) (A)
                 (A) (A) (A) (A) (A) (A) (A) (A) (A) (A) (A) (A)
                 (A) (A) (A) (A) (A) (A) (A) (A) (A) (A) (A) (A)
                 (A) (A) (A) (A) (A) (A) (A) (A) (A) (A) (A) (A)
                 (A) (A)
 Beta  Orbitals:
       Occupied  (A) (A) (A) (A) (A) (A) (A) (A) (A) (A) (A) (A)
                 (A) (A) (A) (A) (A) (A) (A) (A) (A) (A) (A) (A)
                 (A) (A) (A) (A) (A) (A) (A) (A) (A) (A) (A) (A)
                 (A) (A)
       Virtual   (A) (A) (A) (A) (A) (A) (A) (A) (A) (A) (A) (A)
                 (A) (A) (A) (A) (A) (A) (A) (A) (A) (A) (A) (A)
                 (A) (A) (A) (A) (A) (A) (A) (A) (A) (A) (A) (A)
                 (A) (A) (A) (A) (A) (A) (A) (A) (A) (A) (A) (A)
                 (A) (A) (A) (A) (A) (A) (A) (A) (A) (A) (A) (A)
                 (A) (A) (A) (A) (A) (A) (A) (A) (A) (A) (A) (A)
                 (A) (A) (A) (A) (A) (A) (A) (A) (A) (A) (A) (A)
                 (A) (A) (A) (A) (A) (A) (A) (A) (A) (A) (A) (A)
                 (A) (A) (A) (A) (A) (A) (A) (A) (A) (A) (A) (A)
                 (A) (A) (A) (A) (A) (A) (A) (A) (A) (A) (A) (A)
                 (A) (A) (A) (A) (A) (A) (A) (A) (A) (A) (A) (A)
                 (A) (A) (A) (A) (A) (A) (A) (A) (A) (A) (A) (A)
                 (A) (A) (A) (A) (A) (A) (A) (A) (A) (A) (A) (A)
                 (A) (A) (A) (A) (A) (A) (A) (A) (A) (A) (A) (A)
                 (A) (A) (A)
 The electronic state is 2-A.
 Alpha  occ. eigenvalues --  -38.45301 -38.44521 -38.44400 -38.43995 -38.43558
 Alpha  occ. eigenvalues --  -38.43160 -38.43107  -2.21208  -2.20778  -2.20660
 Alpha  occ. eigenvalues --   -2.20074  -2.19886  -2.19323  -2.19183  -1.14949
 Alpha  occ. eigenvalues --   -1.14884  -1.14816  -1.14669  -1.14591  -1.14525
 Alpha  occ. eigenvalues --   -1.14415  -1.14368  -1.14246  -1.13703  -1.13651
 Alpha  occ. eigenvalues --   -1.13599  -1.13570  -1.13520  -1.13469  -1.13040
 Alpha  occ. eigenvalues --   -1.12969  -1.12881  -1.12858  -1.12823  -1.12768
 Alpha  occ. eigenvalues --   -0.21342  -0.14531  -0.11975  -0.11926
 Alpha virt. eigenvalues --   -0.06554  -0.04190  -0.03816  -0.03397  -0.02539
 Alpha virt. eigenvalues --   -0.02427  -0.02017  -0.00681  -0.00172   0.00194
 Alpha virt. eigenvalues --    0.00532   0.00622   0.00828   0.00937   0.01027
 Alpha virt. eigenvalues --    0.01260   0.01327   0.01474   0.01482   0.01646
 Alpha virt. eigenvalues --    0.01675   0.01771   0.01916   0.01974   0.02119
 Alpha virt. eigenvalues --    0.02318   0.02577   0.02757   0.02814   0.02928
 Alpha virt. eigenvalues --    0.03026   0.03047   0.03102   0.03278   0.03429
 Alpha virt. eigenvalues --    0.03566   0.03677   0.03909   0.04143   0.04196
 Alpha virt. eigenvalues --    0.04518   0.04767   0.04938   0.05290   0.05516
 Alpha virt. eigenvalues --    0.05756   0.05873   0.06021   0.06146   0.06254
 Alpha virt. eigenvalues --    0.06858   0.06968   0.07114   0.07382   0.07422
 Alpha virt. eigenvalues --    0.08631   0.08788   0.09236   0.09782   0.09918
 Alpha virt. eigenvalues --    0.10407   0.10653   0.11467   0.12647   0.13018
 Alpha virt. eigenvalues --    0.13392   0.13588   0.14080   0.14301   0.14418
 Alpha virt. eigenvalues --    0.14753   0.14986   0.15449   0.15658   0.16343
 Alpha virt. eigenvalues --    0.17740   0.17870   0.18270   0.19750   0.22487
 Alpha virt. eigenvalues --    0.23597   0.27559   0.28421   0.28804   0.29777
 Alpha virt. eigenvalues --    0.31088   0.32227   0.34042   0.34623   0.35752
 Alpha virt. eigenvalues --    0.36197   0.37357   0.38430   0.38655   0.39482
 Alpha virt. eigenvalues --    0.40837   0.41593   0.43399   0.43957   0.44711
 Alpha virt. eigenvalues --    0.44795   0.45406   0.45640   0.47072   0.47177
 Alpha virt. eigenvalues --    0.47668   0.48030   0.48224   0.48382   0.48985
 Alpha virt. eigenvalues --    0.49810   0.50292   0.50683   0.51953   0.53807
 Alpha virt. eigenvalues --    0.54431   0.54940   0.55167   0.55776   0.56773
 Alpha virt. eigenvalues --    0.58681   0.60961   0.61705   0.65270   0.68241
 Alpha virt. eigenvalues --    0.69878   0.72497   0.76595   0.77462   0.78983
 Alpha virt. eigenvalues --    0.79938   0.84022   0.85277   0.88108   0.89586
 Alpha virt. eigenvalues --    2.13082   2.18955   2.24635   2.27638   2.31915
 Alpha virt. eigenvalues --    2.32221   2.36465   4.41152   4.41630   4.41928
 Alpha virt. eigenvalues --    4.42926   4.43818   4.44685   4.46582   4.46911
 Alpha virt. eigenvalues --    4.49192   4.50391   4.55340   4.57717   4.67657
 Alpha virt. eigenvalues --    4.70832   4.73834   4.74051   4.77230   4.83288
 Alpha virt. eigenvalues --    4.84015   4.86596   4.94692  96.35348  96.42885
 Alpha virt. eigenvalues --   96.52147  96.55573  96.62052  96.62212  96.68444
  Beta  occ. eigenvalues --  -38.45309 -38.44427 -38.44306 -38.43977 -38.43528
  Beta  occ. eigenvalues --  -38.43142 -38.43096  -2.21225  -2.20609  -2.20491
  Beta  occ. eigenvalues --   -2.20047  -2.19842  -2.19298  -2.19168  -1.14960
  Beta  occ. eigenvalues --   -1.14899  -1.14816  -1.14576  -1.14476  -1.14404
  Beta  occ. eigenvalues --   -1.14315  -1.14245  -1.14120  -1.13635  -1.13612
  Beta  occ. eigenvalues --   -1.13584  -1.13544  -1.13498  -1.13351  -1.13029
  Beta  occ. eigenvalues --   -1.12890  -1.12875  -1.12852  -1.12769  -1.12754
  Beta  occ. eigenvalues --   -0.20520  -0.14291  -0.11587
  Beta virt. eigenvalues --   -0.07703  -0.06410  -0.04218  -0.03237  -0.02960
  Beta virt. eigenvalues --   -0.01998  -0.01669  -0.01453  -0.00659   0.00041
  Beta virt. eigenvalues --    0.00228   0.00550   0.00594   0.00952   0.01017
  Beta virt. eigenvalues --    0.01092   0.01268   0.01439   0.01574   0.01604
  Beta virt. eigenvalues --    0.01718   0.01779   0.01802   0.01981   0.02085
  Beta virt. eigenvalues --    0.02214   0.02344   0.02571   0.02788   0.02903
  Beta virt. eigenvalues --    0.02972   0.03044   0.03082   0.03175   0.03284
  Beta virt. eigenvalues --    0.03430   0.03686   0.03754   0.04090   0.04322
  Beta virt. eigenvalues --    0.04471   0.04597   0.04824   0.05084   0.05390
  Beta virt. eigenvalues --    0.05583   0.05926   0.06068   0.06125   0.06299
  Beta virt. eigenvalues --    0.06539   0.06925   0.07017   0.07179   0.07445
  Beta virt. eigenvalues --    0.07556   0.08774   0.08926   0.09383   0.10005
  Beta virt. eigenvalues --    0.10244   0.10760   0.10976   0.11611   0.12726
  Beta virt. eigenvalues --    0.13097   0.13682   0.13796   0.14350   0.14512
  Beta virt. eigenvalues --    0.14652   0.14961   0.15319   0.15631   0.16032
  Beta virt. eigenvalues --    0.16538   0.17997   0.18092   0.18521   0.19876
  Beta virt. eigenvalues --    0.23049   0.24187   0.27850   0.28905   0.29436
  Beta virt. eigenvalues --    0.30100   0.31201   0.32625   0.34180   0.34978
  Beta virt. eigenvalues --    0.35978   0.36633   0.37640   0.38708   0.38885
  Beta virt. eigenvalues --    0.39723   0.41050   0.41731   0.43502   0.44158
  Beta virt. eigenvalues --    0.44836   0.45050   0.45549   0.45685   0.47285
  Beta virt. eigenvalues --    0.47408   0.47874   0.48301   0.48364   0.48660
  Beta virt. eigenvalues --    0.49360   0.49954   0.50571   0.50980   0.52071
  Beta virt. eigenvalues --    0.53825   0.54827   0.55237   0.55721   0.56098
  Beta virt. eigenvalues --    0.57033   0.59093   0.61185   0.61712   0.65635
  Beta virt. eigenvalues --    0.68272   0.70257   0.72680   0.76671   0.77729
  Beta virt. eigenvalues --    0.79325   0.80067   0.84208   0.85564   0.88400
  Beta virt. eigenvalues --    0.89647   2.13061   2.18985   2.24772   2.27700
  Beta virt. eigenvalues --    2.32333   2.32425   2.36536   4.41214   4.41728
  Beta virt. eigenvalues --    4.41966   4.43027   4.43903   4.44706   4.46650
  Beta virt. eigenvalues --    4.46982   4.49257   4.50425   4.55443   4.57754
  Beta virt. eigenvalues --    4.67773   4.70913   4.73866   4.74087   4.77311
  Beta virt. eigenvalues --    4.83368   4.84164   4.86659   4.94715  96.35348
  Beta virt. eigenvalues --   96.42902  96.52182  96.55604  96.62183  96.62287
  Beta virt. eigenvalues --   96.68480
          Condensed to atoms (all electrons):
               1          2          3          4          5          6
     1  Na  14.498612  -0.063173   0.669753   1.220756  -2.281808  -0.127414
     2  Na  -0.063173  12.311297  -0.302628  -0.063329   0.241058  -0.738206
     3  Na   0.669753  -0.302628  12.891112   0.811948  -1.273157  -0.633312
     4  Na   1.220756  -0.063329   0.811948  13.513489  -1.336263  -0.185531
     5  Na  -2.281808   0.241058  -1.273157  -1.336263  13.866779   0.536691
     6  Na  -0.127414  -0.738206  -0.633312  -0.185531   0.536691  12.119557
     7  Na  -3.086788   0.045631  -1.322311  -3.058979   0.869822   0.330689
               7
     1  Na  -3.086788
     2  Na   0.045631
     3  Na  -1.322311
     4  Na  -3.058979
     5  Na   0.869822
     6  Na   0.330689
     7  Na  17.292252
          Atomic-Atomic Spin Densities.
               1          2          3          4          5          6
     1  Na  -0.330582  -0.093238  -0.071016  -0.206802   0.362243   0.260239
     2  Na  -0.093238   0.583339   0.356812  -0.032022   0.074998  -0.378706
     3  Na  -0.071016   0.356812  -0.186442  -0.209913   0.297649  -0.182283
     4  Na  -0.206802  -0.032022  -0.209913  -0.379697   0.248679   0.230439
     5  Na   0.362243   0.074998   0.297649   0.248679  -0.404650  -0.236021
     6  Na   0.260239  -0.378706  -0.182283   0.230439  -0.236021   0.640288
     7  Na   0.372452  -0.004333  -0.154940   0.451241  -0.330455  -0.017519
               7
     1  Na   0.372452
     2  Na  -0.004333
     3  Na  -0.154940
     4  Na   0.451241
     5  Na  -0.330455
     6  Na  -0.017519
     7  Na  -0.397259
 Mulliken charges and spin densities:
               1          2
     1  Na   0.170061   0.293296
     2  Na  -0.430650   0.506850
     3  Na   0.158594  -0.150133
     4  Na   0.097909   0.101924
     5  Na   0.376878   0.012442
     6  Na  -0.302474   0.316436
     7  Na  -0.070318  -0.080814
 Sum of Mulliken charges =  -0.00000   1.00000
 Mulliken charges and spin densities with hydrogens summed into heavy atoms:
               1          2
     1  Na   0.170061   0.293296
     2  Na  -0.430650   0.506850
     3  Na   0.158594  -0.150133
     4  Na   0.097909   0.101924
     5  Na   0.376878   0.012442
     6  Na  -0.302474   0.316436
     7  Na  -0.070318  -0.080814
 Electronic spatial extent (au):  <R**2>=           1716.7882
 Charge=              0.0000 electrons
 Dipole moment (field-independent basis, Debye):
    X=              0.6938    Y=             -0.1718    Z=             -0.1147  Tot=              0.7239
 Quadrupole moment (field-independent basis, Debye-Ang):
   XX=            -48.7057   YY=            -74.9366   ZZ=            -69.8460
   XY=              0.1550   XZ=             -0.3358   YZ=             -0.0385
 Traceless Quadrupole moment (field-independent basis, Debye-Ang):
   XX=             15.7904   YY=            -10.4405   ZZ=             -5.3499
   XY=              0.1550   XZ=             -0.3358   YZ=             -0.0385
 Octapole moment (field-independent basis, Debye-Ang**2):
  XXX=             43.6111  YYY=             -0.8921  ZZZ=             -0.7831  XYY=             -5.0320
  XXY=              2.7663  XXZ=             -2.3816  XZZ=             -2.6277  YZZ=             -1.9936
  YYZ=             -0.2066  XYZ=             -0.6783
 Hexadecapole moment (field-independent basis, Debye-Ang**3):
 XXXX=          -1175.4264 YYYY=           -952.0732 ZZZZ=           -607.6755 XXXY=             32.5670
 XXXZ=             -6.2330 YYYX=            -22.2464 YYYZ=              1.1846 ZZZX=            -10.6085
 ZZZY=             -3.2165 XXYY=           -366.2564 XXZZ=           -380.6512 YYZZ=           -285.1550
 XXYZ=              0.8570 YYXZ=              8.1631 ZZXY=              1.9214
 N-N= 4.063993857256D+02 E-N=-3.542182011915D+03  KE= 1.133502855051D+03
                          Isotropic Fermi Contact Couplings
        Atom                 a.u.       MegaHertz       Gauss      10(-4) cm-1
     1  Na(23)             0.01320      15.61248       5.57092       5.20776
     2  Na(23)             0.38281     452.87367     161.59659     151.06239
     3  Na(23)            -0.05264     -62.27081     -22.21977     -20.77131
     4  Na(23)            -0.00293      -3.47093      -1.23851      -1.15778
     5  Na(23)             0.00299       3.53915       1.26286       1.18053
     6  Na(23)             0.38500     455.46713     162.52200     151.92748
     7  Na(23)            -0.01994     -23.58782      -8.41672      -7.86805
 --------------------------------------------------------
       Center         ----  Spin Dipole Couplings  ----
                      3XX-RR        3YY-RR        3ZZ-RR
 --------------------------------------------------------
     1   Atom       -0.050770     -0.043245      0.094016
     2   Atom        0.008743      0.007930     -0.016672
     3   Atom       -0.000785     -0.010164      0.010948
     4   Atom       -0.039397     -0.026191      0.065587
     5   Atom       -0.030422     -0.030043      0.060466
     6   Atom        0.008546      0.009442     -0.017988
     7   Atom       -0.024852     -0.028627      0.053479
 --------------------------------------------------------
                        XY            XZ            YZ
 --------------------------------------------------------
     1   Atom       -0.002472     -0.015152     -0.014264
     2   Atom        0.002280      0.003712      0.001313
     3   Atom        0.000440      0.001695      0.000036
     4   Atom       -0.002832     -0.009482      0.007303
     5   Atom       -0.000474     -0.007902     -0.010544
     6   Atom        0.002631      0.004461      0.001683
     7   Atom        0.000022      0.000203      0.004502
 --------------------------------------------------------


 ---------------------------------------------------------------------------------
              Anisotropic Spin Dipole Couplings in Principal Axis System
 ---------------------------------------------------------------------------------

       Atom             a.u.   MegaHertz   Gauss  10(-4) cm-1        Axes

              Baa    -0.0540    -7.622    -2.720    -2.542  0.9140  0.3842  0.1306
     1 Na(23) Bbb    -0.0430    -6.072    -2.166    -2.025 -0.3933  0.9179  0.0521
              Bcc     0.0970    13.693     4.886     4.568 -0.0999 -0.0990  0.9901
 
              Baa    -0.0172    -2.435    -0.869    -0.812 -0.1379 -0.0392  0.9897
     2 Na(23) Bbb     0.0061     0.861     0.307     0.287 -0.6075  0.7926 -0.0533
              Bcc     0.0111     1.574     0.562     0.525  0.7823  0.6085  0.1331
 
              Baa    -0.0102    -1.438    -0.513    -0.480 -0.0471  0.9989  0.0021
     3 Na(23) Bbb    -0.0010    -0.142    -0.051    -0.047  0.9890  0.0469 -0.1404
              Bcc     0.0112     1.580     0.564     0.527  0.1403  0.0046  0.9901
 
              Baa    -0.0406    -5.731    -2.045    -1.912  0.9850  0.1545  0.0773
     4 Na(23) Bbb    -0.0265    -3.736    -1.333    -1.246 -0.1472  0.9847 -0.0933
              Bcc     0.0670     9.468     3.378     3.158 -0.0906  0.0805  0.9926
 
              Baa    -0.0325    -4.595    -1.640    -1.533  0.6814  0.7185  0.1394
     5 Na(23) Bbb    -0.0298    -4.207    -1.501    -1.403  0.7271 -0.6864 -0.0165
              Bcc     0.0623     8.802     3.141     2.936 -0.0838 -0.1126  0.9901
 
              Baa    -0.0188    -2.651    -0.946    -0.884 -0.1569 -0.0442  0.9866
     6 Na(23) Bbb     0.0065     0.921     0.328     0.307  0.7165 -0.6927  0.0829
              Bcc     0.0123     1.730     0.617     0.577  0.6797  0.7199  0.1403
 
              Baa    -0.0289    -4.077    -1.455    -1.360 -0.0028  0.9985 -0.0546
     7 Na(23) Bbb    -0.0249    -3.509    -1.252    -1.171  1.0000  0.0026 -0.0027
              Bcc     0.0537     7.587     2.707     2.531  0.0026  0.0546  0.9985
 

 ---------------------------------------------------------------------------------

 No NMR shielding tensors so no spin-rotation constants.
 Leave Link  601 at Fri Dec  8 17:17:59 2023, MaxMem=  1879048192 cpu:               2.4 elap:               0.2
 (Enter /home/sekinelabo/g16/l701.exe)
 ... and contract with generalized density number  0.
 Compute integral first derivatives.
 Leave Link  701 at Fri Dec  8 17:18:00 2023, MaxMem=  1879048192 cpu:               1.6 elap:               0.1
 (Enter /home/sekinelabo/g16/l702.exe)
 L702 exits ... SP integral derivatives will be done elsewhere.
 Leave Link  702 at Fri Dec  8 17:18:00 2023, MaxMem=  1879048192 cpu:               0.5 elap:               0.0
 (Enter /home/sekinelabo/g16/l703.exe)
 Integral derivatives from FoFJK, PRISM(SPDF).
 Compute integral first derivatives, UseDBF=F ICtDFT=           0.
 Calling FoFJK, ICntrl=      2127 FMM=F ISym2X=0 I1Cent= 0 IOpClX= 1 NMat=1 NMatS=1 NMatT=0.
 FoFJK:  IHMeth= 1 ICntrl=    2127 DoSepK=F KAlg= 0 I1Cent=           0 FoldK=F
 IRaf=         0 NMat=       1 IRICut=       1 DoRegI=T DoRafI=F ISym2E= 0 IDoP0=0 IntGTp=1.
 FoFCou: FMM=F IPFlag=           0 FMFlag=      100000 FMFlg1=         800
         NFxFlg=           0 DoJE=F BraDBF=F KetDBF=F FulRan=T
         wScrn=  0.000000 ICntrl=      2127 IOpCl=  1 I1Cent=           0 NGrid=           0
         NMat0=    1 NMatS0=      1 NMatT0=    0 NMatD0=    1 NMtDS0=    0 NMtDT0=    0
 Symmetry not used in FoFCou.
 Leave Link  703 at Fri Dec  8 17:18:02 2023, MaxMem=  1879048192 cpu:              35.7 elap:               2.4
 (Enter /home/sekinelabo/g16/l716.exe)
 Dipole        = 2.72979820D-01-6.75885889D-02-4.51424548D-02
 ***** Axes restored to original set *****
 -------------------------------------------------------------------
 Center     Atomic                   Forces (Hartrees/Bohr)
 Number     Number              X              Y              Z
 -------------------------------------------------------------------
      1       11           0.014087608    0.027586700    0.004191319
      2       11           0.003202112   -0.000211195   -0.027063256
      3       11           0.011474642    0.002540164   -0.002075178
      4       11           0.004468653   -0.025197829    0.001447834
      5       11          -0.014347819   -0.018943723   -0.002495788
      6       11          -0.003644006   -0.002843667    0.027378812
      7       11          -0.015241189    0.017069551   -0.001383742
 -------------------------------------------------------------------
 Cartesian Forces:  Max     0.027586700 RMS     0.014453027
 Z-matrix is all fixed cartesians, so copy forces.
 Force constants in Cartesian coordinates: 
                1             2             3             4             5 
      1  0.290991D+00
      2  0.371628D-01  0.411124D+00
      3 -0.825076D-02 -0.345808D-01  0.308243D+00
      4 -0.598881D-01  0.403292D-02 -0.301850D-01  0.188285D+00
      5  0.209669D-02 -0.613725D-01 -0.488950D-01 -0.907598D-02  0.183559D+00
      6  0.532521D-02  0.954886D-03 -0.646065D-01 -0.912820D-02  0.307631D-03
      7 -0.462566D-01 -0.265500D-01  0.390575D-02 -0.562833D-02 -0.201342D-02
      8  0.180463D-01 -0.998750D-01  0.186156D-01 -0.895033D-03  0.489696D-02
      9  0.129616D-01  0.263359D-01 -0.827099D-01 -0.147470D-01  0.133909D-02
     10 -0.412694D-01 -0.197375D-01 -0.178215D-02 -0.347758D-01  0.846911D-02
     11  0.221944D-01 -0.758047D-01  0.402414D-02  0.370508D-02 -0.384148D-01
     12 -0.591990D-03 -0.106473D-01 -0.292696D-01 -0.315430D-01  0.417096D-01
     13 -0.149266D-02 -0.173715D-01 -0.218571D-04 -0.617634D-01 -0.599098D-02
     14 -0.257692D-01 -0.774383D-02 -0.557576D-02 -0.270858D-02 -0.584346D-01
     15 -0.314400D-02 -0.791869D-02  0.629517D-02  0.416197D-01  0.402190D-01
     16 -0.691062D-01  0.210755D-02  0.294451D-01  0.499426D-02 -0.575423D-02
     17 -0.697635D-02 -0.756446D-01  0.474184D-01 -0.548126D-02  0.661260D-02
     18 -0.923959D-02 -0.107532D-01 -0.562503D-01  0.846907D-02  0.510805D-02
     19 -0.729786D-01  0.203558D-01  0.688896D-02 -0.312232D-01  0.122688D-01
     20 -0.467546D-01 -0.906835D-01  0.189934D-01  0.104229D-01 -0.368466D-01
     21  0.293950D-02  0.366092D-01 -0.817019D-01  0.355144D-01 -0.397884D-01
                6             7             8             9            10 
      6  0.257165D+00
      7  0.120115D-02  0.907390D-01
      8  0.146834D-02  0.123897D-01  0.937853D-01
      9  0.438672D-02 -0.588739D-02 -0.152368D-01  0.644268D-01
     10  0.133023D-01 -0.356695D-01 -0.302502D-01  0.216134D-02  0.189700D+00
     11 -0.830408D-02  0.117666D-01 -0.510721D-01  0.327349D-02 -0.250844D-01
     12 -0.519536D-01 -0.294332D-03  0.762591D-02 -0.280815D-01  0.190508D-02
     13 -0.554036D-02 -0.232158D-02 -0.554689D-02 -0.168896D-02 -0.395958D-01
     14 -0.523022D-02 -0.301911D-02  0.116147D-01 -0.610674D-03  0.332868D-01
     15 -0.566036D-01  0.240445D-02  0.171453D-02  0.671579D-02 -0.308379D-02
     16  0.178504D-02 -0.276133D-02 -0.128724D-02  0.130321D-01 -0.411834D-01
     17 -0.220972D-02 -0.117726D-02  0.128193D-01 -0.101021D-02  0.168731D-01
     18 -0.432803D-01  0.175520D-02  0.281203D-02  0.682481D-02 -0.106574D-01
     19 -0.694516D-02  0.189829D-02  0.754338D-02 -0.583173D-02  0.279369D-02
     20  0.130132D-01  0.860351D-02  0.278309D-01 -0.140908D-01  0.164430D-01
     21 -0.451073D-01 -0.308483D-02 -0.169996D-01  0.284373D-01 -0.184538D-02
               11            12            13            14            15 
     11  0.231485D+00
     12 -0.980810D-02  0.153688D+00
     13 -0.290107D-01 -0.374299D-02  0.172587D+00
     14 -0.275512D-01  0.630578D-02  0.287079D-01  0.177676D+00
     15 -0.154128D-02 -0.190767D-01  0.416806D-02  0.405079D-02  0.140843D+00
     16 -0.182735D-02  0.354013D-01 -0.539458D-01 -0.577784D-03 -0.408141D-01
     17 -0.392381D-01 -0.381731D-01  0.245740D-02 -0.558792D-01 -0.400903D-01
     18  0.111528D-01 -0.482854D-01  0.605515D-02  0.563859D-02 -0.676870D-01
     19  0.182563D-01 -0.113411D-02 -0.134681D-01 -0.299200D-01 -0.115036D-02
     20  0.595961D-03  0.298715D-02  0.267548D-01 -0.396818D-01  0.356594D-02
     21  0.120305D-02  0.229790D-01  0.770949D-03 -0.457850D-02 -0.104862D-01
               16            17            18            19            20 
     16  0.187832D+00
     17 -0.864101D-02  0.187339D+00
     18 -0.871434D-02 -0.817761D-02  0.256584D+00
     19 -0.258291D-01  0.294537D-02  0.123319D-01  0.138807D+00
     20  0.159801D-01 -0.360090D-01 -0.578063D-02 -0.314496D-01  0.174794D+00
     21 -0.301351D-01  0.422426D-01 -0.479062D-01 -0.415953D-02 -0.186883D-01
               21 
     21  0.133785D+00
 Leave Link  716 at Fri Dec  8 17:18:02 2023, MaxMem=  1879048192 cpu:               0.4 elap:               0.0
 (Enter /home/sekinelabo/g16/l103.exe)

 GradGradGradGradGradGradGradGradGradGradGradGradGradGradGradGradGradGrad
 Berny optimization.
 Search for a local minimum.
 Step number   1 out of a maximum of    2
 All quantities printed in internal units (Hartrees-Bohrs-Radians)
 Second derivative matrix not updated -- first step.
 ITU=  0
     Eigenvalues ---    0.08642   0.11096   0.13759   0.18550   0.21913
     Eigenvalues ---    0.23267   0.24574   0.26305   0.28069   0.29711
     Eigenvalues ---    0.31243   0.31800   0.37247   0.39064   0.53772
 Quadratic step=3.846D-01 exceeds max=3.000D-01 adjusted using Lamda=-3.685D-02.
 Angle between NR and scaled steps=   5.56 degrees.
 Angle between quadratic step and forces=  22.35 degrees.
 Linear search not attempted -- first point.
 B after Tr=     0.000000    0.000000   -0.000000
         Rot=    1.000000    0.000000    0.000000    0.000000 Ang=   0.00 deg.
 Variable       Old X    -DE/DX   Delta X   Delta X   Delta X     New X
                                 (Linear)    (Quad)   (Total)
    X1       25.12863   0.01409   0.00000   0.04624   0.04624  25.17487
    Y1       26.04855   0.02759   0.00000   0.07770   0.07770  26.12625
    Z1       24.04525   0.00419   0.00000   0.01424   0.01424  24.05949
    X2       22.70109   0.00320   0.00000  -0.00697  -0.00697  22.69412
    Y2       23.48948  -0.00021   0.00000  -0.00122  -0.00122  23.48826
    Z2       20.36936  -0.02706   0.00000  -0.09242  -0.09242  20.27694
    X3       30.22163   0.01147   0.00000   0.13026   0.13026  30.35190
    Y3       24.12632   0.00254   0.00000   0.01720   0.01720  24.14352
    Z3       23.45037  -0.00208   0.00000  -0.00972  -0.00972  23.44065
    X4       25.95369   0.00447   0.00000   0.04258   0.04258  25.99626
    Y4       20.72047  -0.02520   0.00000  -0.09521  -0.09521  20.62526
    Z4       23.93017   0.00145   0.00000   0.00820   0.00820  23.93837
    X5       19.54374  -0.01435   0.00000  -0.08693  -0.08693  19.45681
    Y5       20.65149  -0.01894   0.00000  -0.08859  -0.08859  20.56290
    Z5       23.20773  -0.00250   0.00000  -0.01131  -0.01131  23.19642
    X6       21.96655  -0.00364   0.00000  -0.03408  -0.03408  21.93247
    Y6       23.23626  -0.00284   0.00000  -0.01074  -0.01074  23.22552
    Z6       26.88117   0.02738   0.00000   0.09705   0.09705  26.97822
    X7       19.86140  -0.01524   0.00000  -0.09110  -0.09110  19.77030
    Y7       27.10396   0.01707   0.00000   0.10087   0.10087  27.20483
    Z7       23.49270  -0.00138   0.00000  -0.00604  -0.00604  23.48665
         Item               Value     Threshold  Converged?
 Maximum Force            0.027587     0.000450     NO 
 RMS     Force            0.014453     0.000300     NO 
 Maximum Displacement     0.130262     0.001800     NO 
 RMS     Displacement     0.065470     0.001200     NO 
 Predicted change in Energy=-1.084715D-02
 GradGradGradGradGradGradGradGradGradGradGradGradGradGradGradGradGradGrad

 Leave Link  103 at Fri Dec  8 17:18:02 2023, MaxMem=  1879048192 cpu:               0.2 elap:               0.0
 (Enter /home/sekinelabo/g16/l9999.exe)
 1\1\GINC-SEKINELABO-XA7R-R37\Force\UB3LYP\6-311+G(d)\Na7(2)\SEKINELABO
 \08-Dec-2023\0\\#P B3LYP/6-311+g(d) force\\DPGEN\\0,2\Na,13.2975,13.78
 43,12.7242\Na,12.0129,12.4301,10.779\Na,15.9926,12.7671,12.4094\Na,13.
 7341,10.9648,12.6633\Na,10.3421,10.9283,12.281\Na,11.6242,12.2961,14.2
 249\Na,10.5102,14.3428,12.4318\\Version=ES64L-G16RevB.01\State=2-A\HF=
 -1136.0700941\S2=0.760657\S2-1=0.\S2A=0.75008\RMSD=4.797e-09\RMSF=1.44
 5e-02\Dipole=0.2729792,-0.067591,-0.0451425\Quadrupole=11.7397636,-7.7
 622538,-3.9775098,0.1150322,-0.2496839,-0.0286558\PG=C01 [X(Na7)]\\@


 POCKETA-POCKETA
 BARON VON RICHTOFEN
 SLAUGHTERED THE ALLIES WITH
 HARDLY A CARE.
 KILLED EIGHTY-ONE WITH HIS
 BLOOD-COLORED TRIPLANE, THEN
 UN-AEROBATICALLY
 PLUNGED FROM THE AIR.
   -- TONY HOFFMAN
 Job cpu time:       0 days  0 hours  4 minutes 25.2 seconds.
 Elapsed time:       0 days  0 hours  0 minutes 22.5 seconds.
 File lengths (MBytes):  RWF=     32 Int=      0 D2E=      0 Chk=      4 Scr=      1
 Normal termination of Gaussian 16 at Fri Dec  8 17:18:02 2023.
