ITEM: TIMESTEP
930
ITEM: NUMBER OF ATOMS
7
ITEM: BOX BOUNDS xy xz yz ff ff ff
0.0000000000000000e+00 2.4979919395000000e+01 0.0000000000000000e+00
0.0000000000000000e+00 2.4979919395000000e+01 0.0000000000000000e+00
0.0000000000000000e+00 2.4979919395000000e+01 0.0000000000000000e+00
ITEM: ATOMS id type x y z fx fy fz
5 1 12.1553 10.7025 13.2987 -0.150844 0.199794 0.156612
3 1 12.1273 14.7234 14.1253 0.0109018 -0.0119183 0.0781705
4 1 10.4216 13.3079 11.3927 -0.140001 0.00872737 0.028406
1 1 13.8061 14.4475 10.8433 0.0291918 0.0167347 -0.00846421
6 1 13.8349 8.8567 11.8104 0.152381 -0.098411 -0.10029
7 1 15.782 12.0777 10.6228 -0.0014018 -0.0632177 -0.00343292
2 1 9.30248 13.314 15.3366 0.0997718 -0.0517093 -0.151002
