 Set GAUSS_MDEF to "14GB".
 Entering Gaussian System, Link 0=g16
 Initial command:
 /home/sekinelabo/g16/l1.exe "/home/sekinelabo/g16temp/Gau-59634.inp" -scrdir="/home/sekinelabo/g16temp/"
 Entering Link 1 = /home/sekinelabo/g16/l1.exe PID=     59636.
  
 Copyright (c) 1988-2017, Gaussian, Inc.  All Rights Reserved.
  
 This is part of the Gaussian(R) 16 program.  It is based on
 the Gaussian(R) 09 system (copyright 2009, Gaussian, Inc.),
 the Gaussian(R) 03 system (copyright 2003, Gaussian, Inc.),
 the Gaussian(R) 98 system (copyright 1998, Gaussian, Inc.),
 the Gaussian(R) 94 system (copyright 1995, Gaussian, Inc.),
 the Gaussian 92(TM) system (copyright 1992, Gaussian, Inc.),
 the Gaussian 90(TM) system (copyright 1990, Gaussian, Inc.),
 the Gaussian 88(TM) system (copyright 1988, Gaussian, Inc.),
 the Gaussian 86(TM) system (copyright 1986, Carnegie Mellon
 University), and the Gaussian 82(TM) system (copyright 1983,
 Carnegie Mellon University). Gaussian is a federally registered
 trademark of Gaussian, Inc.
  
 This software contains proprietary and confidential information,
 including trade secrets, belonging to Gaussian, Inc.
  
 This software is provided under written license and may be
 used, copied, transmitted, or stored only in accord with that
 written license.
  
 The following legend is applicable only to US Government
 contracts under FAR:
  
                    RESTRICTED RIGHTS LEGEND
  
 Use, reproduction and disclosure by the US Government is
 subject to restrictions as set forth in subparagraphs (a)
 and (c) of the Commercial Computer Software - Restricted
 Rights clause in FAR 52.227-19.
  
 Gaussian, Inc.
 340 Quinnipiac St., Bldg. 40, Wallingford CT 06492
  
  
 ---------------------------------------------------------------
 Warning -- This program may not be used in any manner that
 competes with the business of Gaussian, Inc. or will provide
 assistance to any competitor of Gaussian, Inc.  The licensee
 of this program is prohibited from giving any competitor of
 Gaussian, Inc. access to this program.  By using this program,
 the user acknowledges that Gaussian, Inc. is engaged in the
 business of creating and licensing software in the field of
 computational chemistry and represents and warrants to the
 licensee that it is not a competitor of Gaussian, Inc. and that
 it will not use this program in any manner prohibited above.
 ---------------------------------------------------------------
  

 Cite this work as:
 Gaussian 16, Revision B.01,
 M. J. Frisch, G. W. Trucks, H. B. Schlegel, G. E. Scuseria, 
 M. A. Robb, J. R. Cheeseman, G. Scalmani, V. Barone, 
 G. A. Petersson, H. Nakatsuji, X. Li, M. Caricato, A. V. Marenich, 
 J. Bloino, B. G. Janesko, R. Gomperts, B. Mennucci, H. P. Hratchian, 
 J. V. Ortiz, A. F. Izmaylov, J. L. Sonnenberg, D. Williams-Young, 
 F. Ding, F. Lipparini, F. Egidi, J. Goings, B. Peng, A. Petrone, 
 T. Henderson, D. Ranasinghe, V. G. Zakrzewski, J. Gao, N. Rega, 
 G. Zheng, W. Liang, M. Hada, M. Ehara, K. Toyota, R. Fukuda, 
 J. Hasegawa, M. Ishida, T. Nakajima, Y. Honda, O. Kitao, H. Nakai, 
 T. Vreven, K. Throssell, J. A. Montgomery, Jr., J. E. Peralta, 
 F. Ogliaro, M. J. Bearpark, J. J. Heyd, E. N. Brothers, K. N. Kudin, 
 V. N. Staroverov, T. A. Keith, R. Kobayashi, J. Normand, 
 K. Raghavachari, A. P. Rendell, J. C. Burant, S. S. Iyengar, 
 J. Tomasi, M. Cossi, J. M. Millam, M. Klene, C. Adamo, R. Cammi, 
 J. W. Ochterski, R. L. Martin, K. Morokuma, O. Farkas, 
 J. B. Foresman, and D. J. Fox, Gaussian, Inc., Wallingford CT, 2016.
 
 ******************************************
 Gaussian 16:  ES64L-G16RevB.01 20-Dec-2017
                 5-Dec-2023 
 ******************************************
 %nproc=15
 Will use up to   15 processors via shared memory.
 -------------------------
 #P B3LYP/6-311+g(d) force
 -------------------------
 1/10=7,30=1,38=1/1,3;
 2/12=2,17=6,18=5,40=1/2;
 3/5=4,6=6,7=11,11=2,25=1,30=1,71=1,74=-5/1,2,3;
 4//1;
 5/5=2,38=5/2;
 6/7=2,8=2,9=2,10=2,28=1/1;
 7/29=1/1,2,3,16;
 1/10=7,30=1/3;
 99//99;
 Leave Link    1 at Tue Dec  5 11:08:48 2023, MaxMem=           0 cpu:               0.3 elap:               0.0
 (Enter /home/sekinelabo/g16/l101.exe)
 -----
 DPGEN
 -----
 Symbolic Z-matrix:
 Charge =  0 Multiplicity = 2
 Na                    12.112    11.804    9.90363 
 Na                    15.3554   15.4482   14.2988 
 Na                    11.0217   13.1787   13.1257 
 Na                    10.9434   10.0222   12.7662 
 Na                    13.5225   14.9405   11.8026 
 Na                    14.4226   11.6575   13.0189 
 Na                    13.0959   13.4225   15.5577 
 
 ITRead=  0  0  0  0  0  0  0
 MicOpt= -1 -1 -1 -1 -1 -1 -1
 NAtoms=      7 NQM=        7 NQMF=       0 NMMI=      0 NMMIF=      0
                NMic=       0 NMicF=      0.
                    Isotopes and Nuclear Properties:
 (Nuclear quadrupole moments (NQMom) in fm**2, nuclear magnetic moments (NMagM)
  in nuclear magnetons)

  Atom         1           2           3           4           5           6           7
 IAtWgt=          23          23          23          23          23          23          23
 AtmWgt=  22.9897697  22.9897697  22.9897697  22.9897697  22.9897697  22.9897697  22.9897697
 NucSpn=           3           3           3           3           3           3           3
 AtZEff=  -0.0000000  -0.0000000  -0.0000000  -0.0000000  -0.0000000  -0.0000000  -0.0000000
 NQMom=   10.4000000  10.4000000  10.4000000  10.4000000  10.4000000  10.4000000  10.4000000
 NMagM=    2.2175200   2.2175200   2.2175200   2.2175200   2.2175200   2.2175200   2.2175200
 AtZNuc=  11.0000000  11.0000000  11.0000000  11.0000000  11.0000000  11.0000000  11.0000000
 Leave Link  101 at Tue Dec  5 11:08:49 2023, MaxMem=  1879048192 cpu:               2.3 elap:               0.2
 (Enter /home/sekinelabo/g16/l103.exe)

 GradGradGradGradGradGradGradGradGradGradGradGradGradGradGradGradGradGrad
 Berny optimization.
 Initialization pass.
 Trust Radius=3.00D-01 FncErr=1.00D-07 GrdErr=1.00D-07 EigMax=2.50D+02 EigMin=1.00D-04
 Number of steps in this run=      2 maximum allowed number of steps=      2.
 GradGradGradGradGradGradGradGradGradGradGradGradGradGradGradGradGradGrad

 Leave Link  103 at Tue Dec  5 11:08:49 2023, MaxMem=  1879048192 cpu:               0.2 elap:               0.0
 (Enter /home/sekinelabo/g16/l202.exe)
                          Input orientation:                          
 ---------------------------------------------------------------------
 Center     Atomic      Atomic             Coordinates (Angstroms)
 Number     Number       Type             X           Y           Z
 ---------------------------------------------------------------------
      1         11           0       12.112000   11.804000    9.903630
      2         11           0       15.355400   15.448200   14.298800
      3         11           0       11.021700   13.178700   13.125700
      4         11           0       10.943400   10.022200   12.766200
      5         11           0       13.522500   14.940500   11.802600
      6         11           0       14.422600   11.657500   13.018900
      7         11           0       13.095900   13.422500   15.557700
 ---------------------------------------------------------------------
                    Distance matrix (angstroms):
                    1          2          3          4          5
     1  Na   0.000000
     2  Na   6.566381   0.000000
     3  Na   3.668827   5.030681   0.000000
     4  Na   3.568577   7.159335   3.177871   0.000000
     5  Na   3.928515   3.138200   3.332947   5.636484   0.000000
     6  Na   3.881397   4.108244   3.727141   3.852648   3.614921
     7  Na   5.962894   3.285366   3.205677   4.897731   4.072725
                    6          7
     6  Na   0.000000
     7  Na   3.364649   0.000000
 Stoichiometry    Na7(2)
 Framework group  C1[X(Na7)]
 Deg. of freedom    15
 Full point group                 C1      NOp   1
 Largest Abelian subgroup         C1      NOp   1
 Largest concise Abelian subgroup C1      NOp   1
                         Standard orientation:                         
 ---------------------------------------------------------------------
 Center     Atomic      Atomic             Coordinates (Angstroms)
 Number     Number       Type             X           Y           Z
 ---------------------------------------------------------------------
      1         11           0        2.610063    2.047284    0.201048
      2         11           0       -3.733444    0.354821    0.314379
      3         11           0        0.801556   -0.537662   -1.671823
      4         11           0        3.187462   -1.474267    0.206763
      5         11           0       -1.213468    1.930340   -0.693469
      6         11           0       -0.009666   -0.219094    1.951988
      7         11           0       -1.642502   -2.101422   -0.308885
 ---------------------------------------------------------------------
 Rotational constants (GHZ):           0.9842929           0.5101902           0.4336379
 Leave Link  202 at Tue Dec  5 11:08:49 2023, MaxMem=  1879048192 cpu:               0.0 elap:               0.0
 (Enter /home/sekinelabo/g16/l301.exe)
 Standard basis: 6-311+G(d) (5D, 7F)
 Ernie: Thresh=  0.10000D-02 Tol=  0.10000D-05 Strict=F.
 There are   217 symmetry adapted cartesian basis functions of A   symmetry.
 There are   210 symmetry adapted basis functions of A   symmetry.
   210 basis functions,   350 primitive gaussians,   217 cartesian basis functions
    39 alpha electrons       38 beta electrons
       nuclear repulsion energy       335.8631450582 Hartrees.
 IExCor=  402 DFT=T Ex+Corr=B3LYP ExCW=0 ScaHFX=  0.200000
 ScaDFX=  0.800000  0.720000  1.000000  0.810000 ScalE2=  1.000000  1.000000
 IRadAn=      5 IRanWt=     -1 IRanGd=            0 ICorTp=0 IEmpDi=  4
 NAtoms=    7 NActive=    7 NUniq=    7 SFac= 1.00D+00 NAtFMM=   60 NAOKFM=F Big=F
 Integral buffers will be    131072 words long.
 Raffenetti 2 integral format.
 Two-electron integral symmetry is turned on.
 Leave Link  301 at Tue Dec  5 11:08:49 2023, MaxMem=  1879048192 cpu:               0.5 elap:               0.0
 (Enter /home/sekinelabo/g16/l302.exe)
 NPDir=0 NMtPBC=     1 NCelOv=     1 NCel=       1 NClECP=     1 NCelD=      1
         NCelK=      1 NCelE2=     1 NClLst=     1 CellRange=     0.0.
 One-electron integrals computed using PRISM.
 One-electron integral symmetry used in STVInt
 NBasis=   210 RedAO= T EigKep=  2.23D-06  NBF=   210
 NBsUse=   210 1.00D-06 EigRej= -1.00D+00 NBFU=   210
 Precomputing XC quadrature grid using
 IXCGrd= 4 IRadAn=           5 IRanWt=          -1 IRanGd=           0 AccXCQ= 0.00D+00.
 Generated NRdTot=       0 NPtTot=           0 NUsed=           0 NTot=          32
 NSgBfM=   211   211   211   211   211 MxSgAt=     7 MxSgA2=     7.
 Leave Link  302 at Tue Dec  5 11:08:49 2023, MaxMem=  1879048192 cpu:               2.0 elap:               0.1
 (Enter /home/sekinelabo/g16/l303.exe)
 DipDrv:  MaxL=1.
 Leave Link  303 at Tue Dec  5 11:08:49 2023, MaxMem=  1879048192 cpu:               0.6 elap:               0.0
 (Enter /home/sekinelabo/g16/l401.exe)
 ExpMin= 7.60D-03 ExpMax= 3.62D+04 ExpMxC= 1.21D+03 IAcc=3 IRadAn=         5 AccDes= 0.00D+00
 Harris functional with IExCor=  402 and IRadAn=       5 diagonalized for initial guess.
 HarFok:  IExCor=  402 AccDes= 0.00D+00 IRadAn=         5 IDoV= 1 UseB2=F ITyADJ=14
 ICtDFT=  3500011 ScaDFX=  1.000000  1.000000  1.000000  1.000000
 FoFCou: FMM=F IPFlag=           0 FMFlag=      100000 FMFlg1=           0
         NFxFlg=           0 DoJE=T BraDBF=F KetDBF=T FulRan=T
         wScrn=  0.000000 ICntrl=       500 IOpCl=  0 I1Cent=   200000004 NGrid=           0
         NMat0=    1 NMatS0=      1 NMatT0=    0 NMatD0=    1 NMtDS0=    0 NMtDT0=    0
 Petite list used in FoFCou.
 Harris En= -1135.89283406643    
 JPrj=0 DoOrth=F DoCkMO=F.
 Initial guess <Sx>= 0.0000 <Sy>= 0.0000 <Sz>= 0.5000 <S**2>= 0.7500 S= 0.5000
 Leave Link  401 at Tue Dec  5 11:08:49 2023, MaxMem=  1879048192 cpu:               4.4 elap:               0.3
 (Enter /home/sekinelabo/g16/l502.exe)
 Keep R1 and R2 ints in memory in canonical form, NReq=506573321.
 FoFCou: FMM=F IPFlag=           0 FMFlag=           0 FMFlg1=           0
         NFxFlg=           0 DoJE=F BraDBF=F KetDBF=F FulRan=T
         wScrn=  0.000000 ICntrl=       600 IOpCl=  0 I1Cent=           0 NGrid=           0
         NMat0=    1 NMatS0=  22155 NMatT0=    0 NMatD0=    1 NMtDS0=    0 NMtDT0=    0
 Symmetry not used in FoFCou.
 Two-electron integral symmetry not used.
 UHF open shell SCF:
 Using DIIS extrapolation, IDIIS=  1040.
 NGot=  1879048192 LenX=  1388082579 LenY=  1388035049
 Requested convergence on RMS density matrix=1.00D-08 within 128 cycles.
 Requested convergence on MAX density matrix=1.00D-06.
 Requested convergence on             energy=1.00D-06.
 No special actions if energy rises.

 Cycle   1  Pass 1  IDiag  1:
 E= -1136.08303947541    
 DIIS: error= 1.55D-02 at cycle   1 NSaved=   1.
 NSaved= 1 IEnMin= 1 EnMin= -1136.08303947541     IErMin= 1 ErrMin= 1.55D-02
 ErrMax= 1.55D-02  0.00D+00 EMaxC= 1.00D-01 BMatC= 1.96D-01 BMatP= 1.96D-01
 IDIUse=3 WtCom= 8.45D-01 WtEn= 1.55D-01
 Coeff-Com:  0.100D+01
 Coeff-En:   0.100D+01
 Coeff:      0.100D+01
 Gap=     0.022 Goal=   None    Shift=    0.000
 Gap=     0.040 Goal=   None    Shift=    0.000
 GapD=    0.022 DampG=0.250 DampE=0.500 DampFc=0.2500 IDamp=-1.
 Damping current iteration by 2.50D-01
 RMSDP=1.58D-02 MaxDP=7.44D-01              OVMax= 2.89D-01

 Cycle   2  Pass 1  IDiag  1:
 E= -1136.09655438213     Delta-E=       -0.013514906722 Rises=F Damp=T
 DIIS: error= 1.08D-02 at cycle   2 NSaved=   2.
 NSaved= 2 IEnMin= 2 EnMin= -1136.09655438213     IErMin= 2 ErrMin= 1.08D-02
 ErrMax= 1.08D-02  0.00D+00 EMaxC= 1.00D-01 BMatC= 7.34D-02 BMatP= 1.96D-01
 IDIUse=3 WtCom= 8.92D-01 WtEn= 1.08D-01
 Coeff-Com: -0.123D+01 0.223D+01
 Coeff-En:   0.000D+00 0.100D+01
 Coeff:     -0.109D+01 0.209D+01
 Gap=     0.039 Goal=   None    Shift=    0.000
 Gap=     0.039 Goal=   None    Shift=    0.000
 RMSDP=8.35D-03 MaxDP=5.56D-01 DE=-1.35D-02 OVMax= 2.02D-01

 Cycle   3  Pass 1  IDiag  1:
 E= -1136.11756026583     Delta-E=       -0.021005883695 Rises=F Damp=F
 DIIS: error= 4.11D-03 at cycle   3 NSaved=   3.
 NSaved= 3 IEnMin= 3 EnMin= -1136.11756026583     IErMin= 3 ErrMin= 4.11D-03
 ErrMax= 4.11D-03  0.00D+00 EMaxC= 1.00D-01 BMatC= 4.85D-03 BMatP= 7.34D-02
 IDIUse=3 WtCom= 9.59D-01 WtEn= 4.11D-02
 Coeff-Com: -0.284D+00 0.519D+00 0.765D+00
 Coeff-En:   0.000D+00 0.000D+00 0.100D+01
 Coeff:     -0.272D+00 0.498D+00 0.774D+00
 Gap=     0.033 Goal=   None    Shift=    0.000
 Gap=     0.039 Goal=   None    Shift=    0.000
 RMSDP=5.04D-03 MaxDP=1.94D-01 DE=-2.10D-02 OVMax= 1.48D-01

 Cycle   4  Pass 1  IDiag  1:
 E= -1136.11375402449     Delta-E=        0.003806241333 Rises=F Damp=F
 DIIS: error= 5.13D-03 at cycle   4 NSaved=   4.
 NSaved= 4 IEnMin= 3 EnMin= -1136.11756026583     IErMin= 3 ErrMin= 4.11D-03
 ErrMax= 5.13D-03  0.00D+00 EMaxC= 1.00D-01 BMatC= 6.95D-03 BMatP= 4.85D-03
 IDIUse=3 WtCom= 1.23D-01 WtEn= 8.77D-01
 Coeff-Com: -0.963D-02 0.261D-01 0.541D+00 0.442D+00
 Coeff-En:   0.000D+00 0.000D+00 0.623D+00 0.377D+00
 Coeff:     -0.118D-02 0.320D-02 0.613D+00 0.385D+00
 Gap=     0.034 Goal=   None    Shift=    0.000
 Gap=     0.037 Goal=   None    Shift=    0.000
 RMSDP=2.89D-03 MaxDP=2.44D-01 DE= 3.81D-03 OVMax= 1.11D-01

 Cycle   5  Pass 1  IDiag  1:
 E= -1136.12087075048     Delta-E=       -0.007116725985 Rises=F Damp=F
 DIIS: error= 1.41D-03 at cycle   5 NSaved=   5.
 NSaved= 5 IEnMin= 5 EnMin= -1136.12087075048     IErMin= 5 ErrMin= 1.41D-03
 ErrMax= 1.41D-03  0.00D+00 EMaxC= 1.00D-01 BMatC= 9.16D-04 BMatP= 4.85D-03
 IDIUse=3 WtCom= 9.86D-01 WtEn= 1.41D-02
 EnCoef did     5 forward-backward iterations
 Coeff-Com:  0.120D-01-0.171D-01 0.362D+00 0.274D+00 0.370D+00
 Coeff-En:   0.000D+00 0.000D+00 0.355D-01 0.543D-01 0.910D+00
 Coeff:      0.119D-01-0.169D-01 0.357D+00 0.271D+00 0.377D+00
 Gap=     0.036 Goal=   None    Shift=    0.000
 Gap=     0.039 Goal=   None    Shift=    0.000
 RMSDP=1.72D-03 MaxDP=1.31D-01 DE=-7.12D-03 OVMax= 2.83D-02

 Cycle   6  Pass 1  IDiag  1:
 E= -1136.12179694191     Delta-E=       -0.000926191438 Rises=F Damp=F
 DIIS: error= 1.27D-04 at cycle   6 NSaved=   6.
 NSaved= 6 IEnMin= 6 EnMin= -1136.12179694191     IErMin= 6 ErrMin= 1.27D-04
 ErrMax= 1.27D-04  0.00D+00 EMaxC= 1.00D-01 BMatC= 5.95D-06 BMatP= 9.16D-04
 IDIUse=3 WtCom= 9.99D-01 WtEn= 1.27D-03
 Coeff-Com: -0.254D-02 0.289D-02 0.207D-01 0.954D-02 0.684D-01 0.901D+00
 Coeff-En:   0.000D+00 0.000D+00 0.000D+00 0.000D+00 0.000D+00 0.100D+01
 Coeff:     -0.254D-02 0.288D-02 0.207D-01 0.953D-02 0.683D-01 0.901D+00
 Gap=     0.036 Goal=   None    Shift=    0.000
 Gap=     0.039 Goal=   None    Shift=    0.000
 RMSDP=2.02D-04 MaxDP=1.40D-02 DE=-9.26D-04 OVMax= 5.64D-03

 Cycle   7  Pass 1  IDiag  1:
 E= -1136.12180455687     Delta-E=       -0.000007614951 Rises=F Damp=F
 DIIS: error= 9.61D-05 at cycle   7 NSaved=   7.
 NSaved= 7 IEnMin= 7 EnMin= -1136.12180455687     IErMin= 7 ErrMin= 9.61D-05
 ErrMax= 9.61D-05  0.00D+00 EMaxC= 1.00D-01 BMatC= 3.40D-06 BMatP= 5.95D-06
 IDIUse=1 WtCom= 1.00D+00 WtEn= 0.00D+00
 Coeff-Com: -0.305D-02 0.383D-02-0.280D-01-0.253D-01 0.149D-02 0.544D+00
 Coeff-Com:  0.507D+00
 Coeff:     -0.305D-02 0.383D-02-0.280D-01-0.253D-01 0.149D-02 0.544D+00
 Coeff:      0.507D+00
 Gap=     0.036 Goal=   None    Shift=    0.000
 Gap=     0.039 Goal=   None    Shift=    0.000
 RMSDP=1.40D-04 MaxDP=1.11D-02 DE=-7.61D-06 OVMax= 4.38D-03

 Cycle   8  Pass 1  IDiag  1:
 E= -1136.12180995762     Delta-E=       -0.000005400754 Rises=F Damp=F
 DIIS: error= 3.90D-05 at cycle   8 NSaved=   8.
 NSaved= 8 IEnMin= 8 EnMin= -1136.12180995762     IErMin= 8 ErrMin= 3.90D-05
 ErrMax= 3.90D-05  0.00D+00 EMaxC= 1.00D-01 BMatC= 3.44D-07 BMatP= 3.40D-06
 IDIUse=1 WtCom= 1.00D+00 WtEn= 0.00D+00
 Coeff-Com:  0.876D-04-0.960D-04-0.102D-01-0.665D-02-0.124D-01-0.862D-01
 Coeff-Com:  0.136D+00 0.980D+00
 Coeff:      0.876D-04-0.960D-04-0.102D-01-0.665D-02-0.124D-01-0.862D-01
 Coeff:      0.136D+00 0.980D+00
 Gap=     0.036 Goal=   None    Shift=    0.000
 Gap=     0.039 Goal=   None    Shift=    0.000
 RMSDP=9.12D-05 MaxDP=4.00D-03 DE=-5.40D-06 OVMax= 4.41D-03

 Cycle   9  Pass 1  IDiag  1:
 E= -1136.12181182974     Delta-E=       -0.000001872122 Rises=F Damp=F
 DIIS: error= 2.72D-05 at cycle   9 NSaved=   9.
 NSaved= 9 IEnMin= 9 EnMin= -1136.12181182974     IErMin= 9 ErrMin= 2.72D-05
 ErrMax= 2.72D-05  0.00D+00 EMaxC= 1.00D-01 BMatC= 1.21D-07 BMatP= 3.44D-07
 IDIUse=1 WtCom= 1.00D+00 WtEn= 0.00D+00
 Coeff-Com:  0.649D-03-0.799D-03-0.175D-03 0.211D-02-0.855D-02-0.142D+00
 Coeff-Com: -0.417D-01 0.250D+00 0.941D+00
 Coeff:      0.649D-03-0.799D-03-0.175D-03 0.211D-02-0.855D-02-0.142D+00
 Coeff:     -0.417D-01 0.250D+00 0.941D+00
 Gap=     0.036 Goal=   None    Shift=    0.000
 Gap=     0.039 Goal=   None    Shift=    0.000
 RMSDP=7.57D-05 MaxDP=5.06D-03 DE=-1.87D-06 OVMax= 3.24D-03

 Cycle  10  Pass 1  IDiag  1:
 E= -1136.12181266067     Delta-E=       -0.000000830931 Rises=F Damp=F
 DIIS: error= 1.57D-05 at cycle  10 NSaved=  10.
 NSaved=10 IEnMin=10 EnMin= -1136.12181266067     IErMin=10 ErrMin= 1.57D-05
 ErrMax= 1.57D-05  0.00D+00 EMaxC= 1.00D-01 BMatC= 6.24D-08 BMatP= 1.21D-07
 IDIUse=1 WtCom= 1.00D+00 WtEn= 0.00D+00
 Coeff-Com:  0.289D-03-0.355D-03 0.364D-02 0.385D-02-0.657D-03-0.444D-01
 Coeff-Com: -0.623D-01-0.300D+00 0.583D+00 0.816D+00
 Coeff:      0.289D-03-0.355D-03 0.364D-02 0.385D-02-0.657D-03-0.444D-01
 Coeff:     -0.623D-01-0.300D+00 0.583D+00 0.816D+00
 Gap=     0.036 Goal=   None    Shift=    0.000
 Gap=     0.039 Goal=   None    Shift=    0.000
 RMSDP=5.85D-05 MaxDP=5.04D-03 DE=-8.31D-07 OVMax= 2.89D-03

 Cycle  11  Pass 1  IDiag  1:
 E= -1136.12181308240     Delta-E=       -0.000000421722 Rises=F Damp=F
 DIIS: error= 8.80D-06 at cycle  11 NSaved=  11.
 NSaved=11 IEnMin=11 EnMin= -1136.12181308240     IErMin=11 ErrMin= 8.80D-06
 ErrMax= 8.80D-06  0.00D+00 EMaxC= 1.00D-01 BMatC= 1.66D-08 BMatP= 6.24D-08
 IDIUse=1 WtCom= 1.00D+00 WtEn= 0.00D+00
 Coeff-Com: -0.190D-03 0.251D-03 0.159D-02 0.452D-03 0.342D-02 0.276D-01
 Coeff-Com:  0.598D-02-0.170D+00-0.207D+00 0.279D+00 0.106D+01
 Coeff:     -0.190D-03 0.251D-03 0.159D-02 0.452D-03 0.342D-02 0.276D-01
 Coeff:      0.598D-02-0.170D+00-0.207D+00 0.279D+00 0.106D+01
 Gap=     0.036 Goal=   None    Shift=    0.000
 Gap=     0.039 Goal=   None    Shift=    0.000
 RMSDP=4.22D-05 MaxDP=4.18D-03 DE=-4.22D-07 OVMax= 1.89D-03

 Cycle  12  Pass 1  IDiag  1:
 E= -1136.12181322630     Delta-E=       -0.000000143907 Rises=F Damp=F
 DIIS: error= 2.59D-06 at cycle  12 NSaved=  12.
 NSaved=12 IEnMin=12 EnMin= -1136.12181322630     IErMin=12 ErrMin= 2.59D-06
 ErrMax= 2.59D-06  0.00D+00 EMaxC= 1.00D-01 BMatC= 3.18D-09 BMatP= 1.66D-08
 IDIUse=1 WtCom= 1.00D+00 WtEn= 0.00D+00
 Coeff-Com: -0.149D-03 0.188D-03 0.184D-03-0.421D-03 0.199D-02 0.225D-01
 Coeff-Com:  0.147D-01-0.345D-01-0.196D+00-0.201D-01 0.437D+00 0.775D+00
 Coeff:     -0.149D-03 0.188D-03 0.184D-03-0.421D-03 0.199D-02 0.225D-01
 Coeff:      0.147D-01-0.345D-01-0.196D+00-0.201D-01 0.437D+00 0.775D+00
 Gap=     0.036 Goal=   None    Shift=    0.000
 Gap=     0.039 Goal=   None    Shift=    0.000
 RMSDP=1.40D-05 MaxDP=1.39D-03 DE=-1.44D-07 OVMax= 6.74D-04

 Cycle  13  Pass 1  IDiag  1:
 E= -1136.12181325064     Delta-E=       -0.000000024337 Rises=F Damp=F
 DIIS: error= 1.78D-06 at cycle  13 NSaved=  13.
 NSaved=13 IEnMin=13 EnMin= -1136.12181325064     IErMin=13 ErrMin= 1.78D-06
 ErrMax= 1.78D-06  0.00D+00 EMaxC= 1.00D-01 BMatC= 7.95D-10 BMatP= 3.18D-09
 IDIUse=1 WtCom= 1.00D+00 WtEn= 0.00D+00
 Coeff-Com:  0.397D-04-0.537D-04-0.391D-03-0.809D-04-0.828D-03-0.566D-02
 Coeff-Com:  0.774D-03 0.385D-01 0.353D-01-0.541D-01-0.262D+00-0.660D-01
 Coeff-Com:  0.131D+01
 Coeff:      0.397D-04-0.537D-04-0.391D-03-0.809D-04-0.828D-03-0.566D-02
 Coeff:      0.774D-03 0.385D-01 0.353D-01-0.541D-01-0.262D+00-0.660D-01
 Coeff:      0.131D+01
 Gap=     0.036 Goal=   None    Shift=    0.000
 Gap=     0.039 Goal=   None    Shift=    0.000
 RMSDP=7.73D-06 MaxDP=6.67D-04 DE=-2.43D-08 OVMax= 3.43D-04

 Cycle  14  Pass 1  IDiag  1:
 E= -1136.12181326352     Delta-E=       -0.000000012877 Rises=F Damp=F
 DIIS: error= 1.57D-06 at cycle  14 NSaved=  14.
 NSaved=14 IEnMin=14 EnMin= -1136.12181326352     IErMin=14 ErrMin= 1.57D-06
 ErrMax= 1.57D-06  0.00D+00 EMaxC= 1.00D-01 BMatC= 3.72D-10 BMatP= 7.95D-10
 IDIUse=1 WtCom= 1.00D+00 WtEn= 0.00D+00
 Coeff-Com:  0.599D-05-0.598D-05-0.407D-04 0.549D-04-0.205D-03-0.260D-02
 Coeff-Com: -0.304D-02-0.525D-02 0.364D-01 0.136D-01-0.105D-01-0.922D-01
 Coeff-Com: -0.459D+00 0.152D+01
 Coeff:      0.599D-05-0.598D-05-0.407D-04 0.549D-04-0.205D-03-0.260D-02
 Coeff:     -0.304D-02-0.525D-02 0.364D-01 0.136D-01-0.105D-01-0.922D-01
 Coeff:     -0.459D+00 0.152D+01
 Gap=     0.036 Goal=   None    Shift=    0.000
 Gap=     0.039 Goal=   None    Shift=    0.000
 RMSDP=3.67D-06 MaxDP=3.52D-04 DE=-1.29D-08 OVMax= 2.83D-04

 Cycle  15  Pass 1  IDiag  1:
 E= -1136.12181327156     Delta-E=       -0.000000008042 Rises=F Damp=F
 DIIS: error= 1.37D-06 at cycle  15 NSaved=  15.
 NSaved=15 IEnMin=15 EnMin= -1136.12181327156     IErMin=15 ErrMin= 1.37D-06
 ErrMax= 1.37D-06  0.00D+00 EMaxC= 1.00D-01 BMatC= 2.48D-10 BMatP= 3.72D-10
 IDIUse=1 WtCom= 1.00D+00 WtEn= 0.00D+00
 Coeff-Com: -0.791D-05 0.108D-04 0.215D-03 0.410D-04 0.372D-03 0.209D-02
 Coeff-Com:  0.895D-03-0.128D-01-0.256D-01 0.138D-01 0.121D+00 0.252D-01
 Coeff-Com: -0.344D+00-0.556D+00 0.177D+01
 Coeff:     -0.791D-05 0.108D-04 0.215D-03 0.410D-04 0.372D-03 0.209D-02
 Coeff:      0.895D-03-0.128D-01-0.256D-01 0.138D-01 0.121D+00 0.252D-01
 Coeff:     -0.344D+00-0.556D+00 0.177D+01
 Gap=     0.036 Goal=   None    Shift=    0.000
 Gap=     0.039 Goal=   None    Shift=    0.000
 RMSDP=4.63D-06 MaxDP=4.43D-04 DE=-8.04D-09 OVMax= 3.50D-04

 Cycle  16  Pass 1  IDiag  1:
 E= -1136.12181327952     Delta-E=       -0.000000007966 Rises=F Damp=F
 DIIS: error= 1.06D-06 at cycle  16 NSaved=  16.
 NSaved=16 IEnMin=16 EnMin= -1136.12181327952     IErMin=16 ErrMin= 1.06D-06
 ErrMax= 1.06D-06  0.00D+00 EMaxC= 1.00D-01 BMatC= 1.58D-10 BMatP= 2.48D-10
 IDIUse=1 WtCom= 1.00D+00 WtEn= 0.00D+00
 Coeff-Com: -0.762D-05 0.758D-05 0.200D-04-0.784D-05 0.481D-04 0.202D-02
 Coeff-Com:  0.371D-02 0.123D-01-0.313D-01-0.297D-01-0.475D-01 0.103D+00
 Coeff-Com:  0.767D+00-0.165D+01-0.920D+00 0.280D+01
 Coeff:     -0.762D-05 0.758D-05 0.200D-04-0.784D-05 0.481D-04 0.202D-02
 Coeff:      0.371D-02 0.123D-01-0.313D-01-0.297D-01-0.475D-01 0.103D+00
 Coeff:      0.767D+00-0.165D+01-0.920D+00 0.280D+01
 Gap=     0.036 Goal=   None    Shift=    0.000
 Gap=     0.039 Goal=   None    Shift=    0.000
 RMSDP=1.07D-05 MaxDP=9.86D-04 DE=-7.97D-09 OVMax= 7.32D-04

 Cycle  17  Pass 1  IDiag  1:
 E= -1136.12181329028     Delta-E=       -0.000000010753 Rises=F Damp=F
 DIIS: error= 4.53D-07 at cycle  17 NSaved=  17.
 NSaved=17 IEnMin=17 EnMin= -1136.12181329028     IErMin=17 ErrMin= 4.53D-07
 ErrMax= 4.53D-07  0.00D+00 EMaxC= 1.00D-01 BMatC= 4.65D-11 BMatP= 1.58D-10
 IDIUse=1 WtCom= 1.00D+00 WtEn= 0.00D+00
 Coeff-Com: -0.501D-05 0.564D-05-0.109D-03-0.445D-04-0.597D-04 0.511D-04
 Coeff-Com: -0.317D-04 0.603D-02 0.578D-02-0.134D-01-0.446D-01 0.277D-01
 Coeff-Com:  0.203D+00 0.315D-01-0.976D+00 0.463D+00 0.130D+01
 Coeff:     -0.501D-05 0.564D-05-0.109D-03-0.445D-04-0.597D-04 0.511D-04
 Coeff:     -0.317D-04 0.603D-02 0.578D-02-0.134D-01-0.446D-01 0.277D-01
 Coeff:      0.203D+00 0.315D-01-0.976D+00 0.463D+00 0.130D+01
 Gap=     0.036 Goal=   None    Shift=    0.000
 Gap=     0.039 Goal=   None    Shift=    0.000
 RMSDP=6.17D-06 MaxDP=5.31D-04 DE=-1.08D-08 OVMax= 3.96D-04

 Cycle  18  Pass 1  IDiag  1:
 E= -1136.12181329273     Delta-E=       -0.000000002451 Rises=F Damp=F
 DIIS: error= 1.97D-07 at cycle  18 NSaved=  18.
 NSaved=18 IEnMin=18 EnMin= -1136.12181329273     IErMin=18 ErrMin= 1.97D-07
 ErrMax= 1.97D-07  0.00D+00 EMaxC= 1.00D-01 BMatC= 1.03D-11 BMatP= 4.65D-11
 IDIUse=1 WtCom= 1.00D+00 WtEn= 0.00D+00
 Coeff-Com:  0.625D-05-0.788D-05-0.234D-04 0.899D-05-0.524D-04-0.109D-02
 Coeff-Com: -0.124D-02-0.103D-02 0.123D-01 0.612D-02-0.759D-02-0.311D-01
 Coeff-Com: -0.129D+00 0.463D+00-0.990D-02-0.658D+00 0.303D+00 0.105D+01
 Coeff:      0.625D-05-0.788D-05-0.234D-04 0.899D-05-0.524D-04-0.109D-02
 Coeff:     -0.124D-02-0.103D-02 0.123D-01 0.612D-02-0.759D-02-0.311D-01
 Coeff:     -0.129D+00 0.463D+00-0.990D-02-0.658D+00 0.303D+00 0.105D+01
 Gap=     0.036 Goal=   None    Shift=    0.000
 Gap=     0.039 Goal=   None    Shift=    0.000
 RMSDP=2.17D-06 MaxDP=1.63D-04 DE=-2.45D-09 OVMax= 1.34D-04

 Cycle  19  Pass 1  IDiag  1:
 E= -1136.12181329303     Delta-E=       -0.000000000300 Rises=F Damp=F
 DIIS: error= 1.23D-07 at cycle  19 NSaved=  19.
 NSaved=19 IEnMin=19 EnMin= -1136.12181329303     IErMin=19 ErrMin= 1.23D-07
 ErrMax= 1.23D-07  0.00D+00 EMaxC= 1.00D-01 BMatC= 2.49D-12 BMatP= 1.03D-11
 IDIUse=1 WtCom= 1.00D+00 WtEn= 0.00D+00
 Coeff-Com: -0.277D-05 0.376D-05 0.353D-04 0.272D-05 0.435D-04 0.568D-03
 Coeff-Com:  0.657D-03-0.102D-02-0.878D-02 0.830D-03 0.192D-01 0.480D-02
 Coeff-Com: -0.599D-02-0.197D+00 0.280D+00 0.116D+00-0.454D+00-0.361D+00
 Coeff-Com:  0.161D+01
 Coeff:     -0.277D-05 0.376D-05 0.353D-04 0.272D-05 0.435D-04 0.568D-03
 Coeff:      0.657D-03-0.102D-02-0.878D-02 0.830D-03 0.192D-01 0.480D-02
 Coeff:     -0.599D-02-0.197D+00 0.280D+00 0.116D+00-0.454D+00-0.361D+00
 Coeff:      0.161D+01
 Gap=     0.036 Goal=   None    Shift=    0.000
 Gap=     0.039 Goal=   None    Shift=    0.000
 RMSDP=7.33D-07 MaxDP=3.82D-05 DE=-3.00D-10 OVMax= 4.31D-05

 Cycle  20  Pass 1  IDiag  1:
 E= -1136.12181329308     Delta-E=       -0.000000000053 Rises=F Damp=F
 DIIS: error= 5.44D-08 at cycle  20 NSaved=  20.
 NSaved=20 IEnMin=20 EnMin= -1136.12181329308     IErMin=20 ErrMin= 5.44D-08
 ErrMax= 5.44D-08  0.00D+00 EMaxC= 1.00D-01 BMatC= 5.51D-13 BMatP= 2.49D-12
 IDIUse=1 WtCom= 1.00D+00 WtEn= 0.00D+00
 Coeff-Com: -0.542D-06 0.607D-06 0.166D-05 0.405D-05-0.255D-05 0.457D-04
 Coeff-Com:  0.123D-03 0.618D-03-0.818D-04-0.215D-02-0.529D-02 0.943D-02
 Coeff-Com:  0.405D-01-0.768D-01-0.846D-01 0.154D+00 0.608D-01-0.194D+00
 Coeff-Com: -0.473D+00 0.157D+01
 Coeff:     -0.542D-06 0.607D-06 0.166D-05 0.405D-05-0.255D-05 0.457D-04
 Coeff:      0.123D-03 0.618D-03-0.818D-04-0.215D-02-0.529D-02 0.943D-02
 Coeff:      0.405D-01-0.768D-01-0.846D-01 0.154D+00 0.608D-01-0.194D+00
 Coeff:     -0.473D+00 0.157D+01
 Gap=     0.036 Goal=   None    Shift=    0.000
 Gap=     0.039 Goal=   None    Shift=    0.000
 RMSDP=3.06D-07 MaxDP=1.47D-05 DE=-5.30D-11 OVMax= 1.62D-05

 Cycle  21  Pass 1  IDiag  1:
 E= -1136.12181329309     Delta-E=       -0.000000000012 Rises=F Damp=F
 DIIS: error= 1.82D-08 at cycle  21 NSaved=  20.
 NSaved=20 IEnMin=20 EnMin= -1136.12181329309     IErMin=20 ErrMin= 1.82D-08
 ErrMax= 1.82D-08  0.00D+00 EMaxC= 1.00D-01 BMatC= 8.10D-14 BMatP= 5.51D-13
 IDIUse=1 WtCom= 1.00D+00 WtEn= 0.00D+00
 Coeff-Com:  0.508D-08-0.611D-05-0.145D-05-0.518D-05-0.480D-04-0.643D-04
 Coeff-Com:  0.811D-04 0.124D-02-0.238D-03-0.266D-02-0.120D-03 0.249D-02
 Coeff-Com:  0.270D-01-0.514D-01-0.204D-02 0.641D-01 0.409D-01-0.241D+00
 Coeff-Com:  0.307D-01 0.113D+01
 Coeff:      0.508D-08-0.611D-05-0.145D-05-0.518D-05-0.480D-04-0.643D-04
 Coeff:      0.811D-04 0.124D-02-0.238D-03-0.266D-02-0.120D-03 0.249D-02
 Coeff:      0.270D-01-0.514D-01-0.204D-02 0.641D-01 0.409D-01-0.241D+00
 Coeff:      0.307D-01 0.113D+01
 Gap=     0.036 Goal=   None    Shift=    0.000
 Gap=     0.039 Goal=   None    Shift=    0.000
 RMSDP=9.12D-08 MaxDP=4.66D-06 DE=-1.18D-11 OVMax= 3.94D-06

 Cycle  22  Pass 1  IDiag  1:
 E= -1136.12181329307     Delta-E=        0.000000000019 Rises=F Damp=F
 DIIS: error= 7.76D-09 at cycle  22 NSaved=  20.
 NSaved=20 IEnMin=19 EnMin= -1136.12181329309     IErMin=20 ErrMin= 7.76D-09
 ErrMax= 7.76D-09  0.00D+00 EMaxC= 1.00D-01 BMatC= 2.24D-14 BMatP= 8.10D-14
 IDIUse=1 WtCom= 1.00D+00 WtEn= 0.00D+00
 Coeff-Com: -0.214D-05-0.170D-05-0.708D-06-0.110D-04-0.318D-04-0.106D-03
 Coeff-Com:  0.218D-03 0.329D-03 0.677D-03-0.203D-02-0.725D-02 0.205D-01
 Coeff-Com:  0.545D-02-0.321D-01 0.629D-02 0.461D-01 0.311D-01-0.266D+00
 Coeff-Com:  0.131D+00 0.107D+01
 Coeff:     -0.214D-05-0.170D-05-0.708D-06-0.110D-04-0.318D-04-0.106D-03
 Coeff:      0.218D-03 0.329D-03 0.677D-03-0.203D-02-0.725D-02 0.205D-01
 Coeff:      0.545D-02-0.321D-01 0.629D-02 0.461D-01 0.311D-01-0.266D+00
 Coeff:      0.131D+00 0.107D+01
 Gap=     0.036 Goal=   None    Shift=    0.000
 Gap=     0.039 Goal=   None    Shift=    0.000
 RMSDP=3.69D-08 MaxDP=1.58D-06 DE= 1.86D-11 OVMax= 1.70D-06

 Cycle  23  Pass 1  IDiag  1:
 E= -1136.12181329309     Delta-E=       -0.000000000015 Rises=F Damp=F
 DIIS: error= 4.94D-09 at cycle  23 NSaved=  20.
 NSaved=20 IEnMin=18 EnMin= -1136.12181329309     IErMin=20 ErrMin= 4.94D-09
 ErrMax= 4.94D-09  0.00D+00 EMaxC= 1.00D-01 BMatC= 8.50D-15 BMatP= 2.24D-14
 IDIUse=1 WtCom= 1.00D+00 WtEn= 0.00D+00
 Coeff-Com:  0.605D-06-0.224D-08 0.336D-05 0.530D-05-0.471D-04-0.259D-03
 Coeff-Com:  0.210D-03 0.853D-03-0.846D-03-0.322D-02 0.420D-04 0.162D-01
 Coeff-Com: -0.982D-02-0.186D-01 0.292D-02 0.913D-01-0.122D+00-0.237D+00
 Coeff-Com:  0.293D+00 0.987D+00
 Coeff:      0.605D-06-0.224D-08 0.336D-05 0.530D-05-0.471D-04-0.259D-03
 Coeff:      0.210D-03 0.853D-03-0.846D-03-0.322D-02 0.420D-04 0.162D-01
 Coeff:     -0.982D-02-0.186D-01 0.292D-02 0.913D-01-0.122D+00-0.237D+00
 Coeff:      0.293D+00 0.987D+00
 Gap=     0.036 Goal=   None    Shift=    0.000
 Gap=     0.039 Goal=   None    Shift=    0.000
 RMSDP=2.11D-08 MaxDP=9.03D-07 DE=-1.55D-11 OVMax= 9.48D-07

 Cycle  24  Pass 1  IDiag  1:
 E= -1136.12181329308     Delta-E=        0.000000000006 Rises=F Damp=F
 DIIS: error= 2.11D-09 at cycle  24 NSaved=  20.
 NSaved=20 IEnMin=17 EnMin= -1136.12181329309     IErMin=20 ErrMin= 2.11D-09
 ErrMax= 2.11D-09  0.00D+00 EMaxC= 1.00D-01 BMatC= 1.92D-15 BMatP= 8.50D-15
 IDIUse=1 WtCom= 1.00D+00 WtEn= 0.00D+00
 Large coefficients: NSaved= 20 BigCof=    0.00 CofMax=   10.00 Det=-2.16D-15
 Inversion failed.  Reducing to 19 matrices.
 Large coefficients: NSaved= 19 BigCof=    0.00 CofMax=   10.00 Det=-2.41D-15
 Inversion failed.  Reducing to 18 matrices.
 Large coefficients: NSaved= 18 BigCof=    0.00 CofMax=   10.00 Det=-2.41D-15
 Inversion failed.  Reducing to 17 matrices.
 Large coefficients: NSaved= 17 BigCof=    0.00 CofMax=   10.00 Det=-2.46D-15
 Inversion failed.  Reducing to 16 matrices.
 Large coefficients: NSaved= 16 BigCof=    0.00 CofMax=   10.00 Det=-2.52D-15
 Inversion failed.  Reducing to 15 matrices.
 Coeff-Com: -0.267D-04-0.410D-04 0.597D-03 0.189D-04-0.162D-02-0.540D-03
 Coeff-Com:  0.230D-02 0.187D-02-0.606D-02-0.195D-01 0.722D-01-0.180D-01
 Coeff-Com: -0.286D+00-0.121D+00 0.138D+01
 Coeff:     -0.267D-04-0.410D-04 0.597D-03 0.189D-04-0.162D-02-0.540D-03
 Coeff:      0.230D-02 0.187D-02-0.606D-02-0.195D-01 0.722D-01-0.180D-01
 Coeff:     -0.286D+00-0.121D+00 0.138D+01
 Gap=     0.036 Goal=   None    Shift=    0.000
 Gap=     0.039 Goal=   None    Shift=    0.000
 RMSDP=1.85D-08 MaxDP=1.08D-06 DE= 6.37D-12 OVMax= 6.12D-07

 Cycle  25  Pass 1  IDiag  1:
 E= -1136.12181329309     Delta-E=       -0.000000000006 Rises=F Damp=F
 DIIS: error= 1.18D-09 at cycle  25 NSaved=  16.
 NSaved=16 IEnMin=12 EnMin= -1136.12181329309     IErMin=16 ErrMin= 1.18D-09
 ErrMax= 1.18D-09  0.00D+00 EMaxC= 1.00D-01 BMatC= 4.31D-16 BMatP= 1.92D-15
 IDIUse=1 WtCom= 1.00D+00 WtEn= 0.00D+00
 Large coefficients: NSaved= 16 BigCof=    0.00 CofMax=   10.00 Det=-2.99D-16
 Inversion failed.  Reducing to 15 matrices.
 Coeff-Com: -0.698D-04 0.610D-06 0.698D-03-0.703D-03-0.161D-02 0.210D-02
 Coeff-Com:  0.927D-03-0.160D-02-0.621D-02 0.958D-02 0.384D-01-0.248D-01
 Coeff-Com: -0.172D+00-0.178D+00 0.133D+01
 Coeff:     -0.698D-04 0.610D-06 0.698D-03-0.703D-03-0.161D-02 0.210D-02
 Coeff:      0.927D-03-0.160D-02-0.621D-02 0.958D-02 0.384D-01-0.248D-01
 Coeff:     -0.172D+00-0.178D+00 0.133D+01
 Gap=     0.036 Goal=   None    Shift=    0.000
 Gap=     0.039 Goal=   None    Shift=    0.000
 RMSDP=5.18D-09 MaxDP=2.31D-07 DE=-6.14D-12 OVMax= 2.79D-07

 SCF Done:  E(UB3LYP) =  -1136.12181329     A.U. after   25 cycles
            NFock= 25  Conv=0.52D-08     -V/T= 2.0028
 <Sx>= 0.0000 <Sy>= 0.0000 <Sz>= 0.5000 <S**2>= 0.7610 S= 0.5055
 <L.S>= 0.000000000000E+00
 KE= 1.132899858506D+03 PE=-3.400953186899D+03 EE= 7.960683700416D+02
 Annihilation of the first spin contaminant:
 S**2 before annihilation     0.7610,   after     0.7501
 Leave Link  502 at Tue Dec  5 11:09:09 2023, MaxMem=  1879048192 cpu:             223.7 elap:              20.3
 (Enter /home/sekinelabo/g16/l601.exe)
 Copying SCF densities to generalized density rwf, IOpCl= 1 IROHF=0.

 **********************************************************************

            Population analysis using the SCF Density.

 **********************************************************************

 Orbital symmetries:
 Alpha Orbitals:
       Occupied  (A) (A) (A) (A) (A) (A) (A) (A) (A) (A) (A) (A)
                 (A) (A) (A) (A) (A) (A) (A) (A) (A) (A) (A) (A)
                 (A) (A) (A) (A) (A) (A) (A) (A) (A) (A) (A) (A)
                 (A) (A) (A)
       Virtual   (A) (A) (A) (A) (A) (A) (A) (A) (A) (A) (A) (A)
                 (A) (A) (A) (A) (A) (A) (A) (A) (A) (A) (A) (A)
                 (A) (A) (A) (A) (A) (A) (A) (A) (A) (A) (A) (A)
                 (A) (A) (A) (A) (A) (A) (A) (A) (A) (A) (A) (A)
                 (A) (A) (A) (A) (A) (A) (A) (A) (A) (A) (A) (A)
                 (A) (A) (A) (A) (A) (A) (A) (A) (A) (A) (A) (A)
                 (A) (A) (A) (A) (A) (A) (A) (A) (A) (A) (A) (A)
                 (A) (A) (A) (A) (A) (A) (A) (A) (A) (A) (A) (A)
                 (A) (A) (A) (A) (A) (A) (A) (A) (A) (A) (A) (A)
                 (A) (A) (A) (A) (A) (A) (A) (A) (A) (A) (A) (A)
                 (A) (A) (A) (A) (A) (A) (A) (A) (A) (A) (A) (A)
                 (A) (A) (A) (A) (A) (A) (A) (A) (A) (A) (A) (A)
                 (A) (A) (A) (A) (A) (A) (A) (A) (A) (A) (A) (A)
                 (A) (A) (A) (A) (A) (A) (A) (A) (A) (A) (A) (A)
                 (A) (A) (A)
 Beta  Orbitals:
       Occupied  (A) (A) (A) (A) (A) (A) (A) (A) (A) (A) (A) (A)
                 (A) (A) (A) (A) (A) (A) (A) (A) (A) (A) (A) (A)
                 (A) (A) (A) (A) (A) (A) (A) (A) (A) (A) (A) (A)
                 (A) (A)
       Virtual   (A) (A) (A) (A) (A) (A) (A) (A) (A) (A) (A) (A)
                 (A) (A) (A) (A) (A) (A) (A) (A) (A) (A) (A) (A)
                 (A) (A) (A) (A) (A) (A) (A) (A) (A) (A) (A) (A)
                 (A) (A) (A) (A) (A) (A) (A) (A) (A) (A) (A) (A)
                 (A) (A) (A) (A) (A) (A) (A) (A) (A) (A) (A) (A)
                 (A) (A) (A) (A) (A) (A) (A) (A) (A) (A) (A) (A)
                 (A) (A) (A) (A) (A) (A) (A) (A) (A) (A) (A) (A)
                 (A) (A) (A) (A) (A) (A) (A) (A) (A) (A) (A) (A)
                 (A) (A) (A) (A) (A) (A) (A) (A) (A) (A) (A) (A)
                 (A) (A) (A) (A) (A) (A) (A) (A) (A) (A) (A) (A)
                 (A) (A) (A) (A) (A) (A) (A) (A) (A) (A) (A) (A)
                 (A) (A) (A) (A) (A) (A) (A) (A) (A) (A) (A) (A)
                 (A) (A) (A) (A) (A) (A) (A) (A) (A) (A) (A) (A)
                 (A) (A) (A) (A) (A) (A) (A) (A) (A) (A) (A) (A)
                 (A) (A) (A) (A)
 The electronic state is 2-A.
 Alpha  occ. eigenvalues --  -38.45373 -38.45010 -38.44439 -38.43909 -38.43246
 Alpha  occ. eigenvalues --  -38.43152 -38.42931  -2.21202  -2.20820  -2.20296
 Alpha  occ. eigenvalues --   -2.19705  -2.19131  -2.19123  -2.18814  -1.14881
 Alpha  occ. eigenvalues --   -1.14861  -1.14837  -1.14517  -1.14465  -1.14454
 Alpha  occ. eigenvalues --   -1.13990  -1.13931  -1.13904  -1.13381  -1.13361
 Alpha  occ. eigenvalues --   -1.13351  -1.12887  -1.12801  -1.12790  -1.12765
 Alpha  occ. eigenvalues --   -1.12755  -1.12702  -1.12501  -1.12480  -1.12438
 Alpha  occ. eigenvalues --   -0.18607  -0.14056  -0.11162  -0.10793
 Alpha virt. eigenvalues --   -0.07154  -0.05603  -0.03950  -0.03155  -0.02802
 Alpha virt. eigenvalues --   -0.02408  -0.02322  -0.01368  -0.00594  -0.00254
 Alpha virt. eigenvalues --    0.00116   0.00158   0.00439   0.00618   0.00742
 Alpha virt. eigenvalues --    0.00944   0.00988   0.01040   0.01289   0.01429
 Alpha virt. eigenvalues --    0.01455   0.01618   0.01827   0.01901   0.01942
 Alpha virt. eigenvalues --    0.02228   0.02337   0.02425   0.02517   0.02600
 Alpha virt. eigenvalues --    0.02662   0.02809   0.02921   0.02980   0.03016
 Alpha virt. eigenvalues --    0.03115   0.03172   0.03347   0.03670   0.03744
 Alpha virt. eigenvalues --    0.03837   0.04149   0.04366   0.04570   0.04814
 Alpha virt. eigenvalues --    0.04951   0.05105   0.05293   0.05401   0.05584
 Alpha virt. eigenvalues --    0.06172   0.06284   0.06432   0.07250   0.07373
 Alpha virt. eigenvalues --    0.07560   0.07579   0.07694   0.08173   0.08708
 Alpha virt. eigenvalues --    0.09096   0.09642   0.10045   0.10945   0.11446
 Alpha virt. eigenvalues --    0.11771   0.12115   0.12533   0.12863   0.13181
 Alpha virt. eigenvalues --    0.13693   0.13746   0.14178   0.14410   0.14526
 Alpha virt. eigenvalues --    0.14790   0.15050   0.15407   0.16612   0.17409
 Alpha virt. eigenvalues --    0.25513   0.27046   0.27455   0.28602   0.29058
 Alpha virt. eigenvalues --    0.30016   0.30694   0.30861   0.31191   0.32810
 Alpha virt. eigenvalues --    0.32983   0.34661   0.35833   0.36441   0.36870
 Alpha virt. eigenvalues --    0.39244   0.40215   0.41211   0.41617   0.43005
 Alpha virt. eigenvalues --    0.43122   0.43638   0.43860   0.44199   0.44311
 Alpha virt. eigenvalues --    0.44473   0.44730   0.45336   0.45531   0.45797
 Alpha virt. eigenvalues --    0.46222   0.46524   0.47675   0.48123   0.49341
 Alpha virt. eigenvalues --    0.49740   0.49860   0.50919   0.51674   0.52214
 Alpha virt. eigenvalues --    0.52523   0.53663   0.53830   0.54929   0.56101
 Alpha virt. eigenvalues --    0.56332   0.57754   0.58297   0.59628   0.60530
 Alpha virt. eigenvalues --    0.62211   0.63904   0.64434   0.65788   0.70445
 Alpha virt. eigenvalues --    0.71518   2.02701   2.11345   2.16053   2.17221
 Alpha virt. eigenvalues --    2.20656   2.20849   2.27739   4.42251   4.42902
 Alpha virt. eigenvalues --    4.43265   4.44088   4.44254   4.44812   4.45251
 Alpha virt. eigenvalues --    4.45948   4.45978   4.46741   4.48141   4.49022
 Alpha virt. eigenvalues --    4.49519   4.51343   4.52493   4.55053   4.57104
 Alpha virt. eigenvalues --    4.58835   4.61948   4.62599   4.63474  96.22266
 Alpha virt. eigenvalues --   96.32291  96.37764  96.39445  96.43533  96.43807
 Alpha virt. eigenvalues --   96.53111
  Beta  occ. eigenvalues --  -38.45373 -38.45006 -38.44367 -38.43907 -38.43235
  Beta  occ. eigenvalues --  -38.43077 -38.42909  -2.21202  -2.20816  -2.20162
  Beta  occ. eigenvalues --   -2.19704  -2.19114  -2.18986  -2.18777  -1.14882
  Beta  occ. eigenvalues --   -1.14861  -1.14830  -1.14505  -1.14457  -1.14450
  Beta  occ. eigenvalues --   -1.13898  -1.13838  -1.13805  -1.13372  -1.13361
  Beta  occ. eigenvalues --   -1.13345  -1.12845  -1.12763  -1.12752  -1.12707
  Beta  occ. eigenvalues --   -1.12663  -1.12614  -1.12476  -1.12431  -1.12414
  Beta  occ. eigenvalues --   -0.17867  -0.13885  -0.10925
  Beta virt. eigenvalues --   -0.07029  -0.06852  -0.05621  -0.03390  -0.02970
  Beta virt. eigenvalues --   -0.02556  -0.01717  -0.01439  -0.01284  -0.00532
  Beta virt. eigenvalues --   -0.00075   0.00118   0.00169   0.00614   0.00684
  Beta virt. eigenvalues --    0.00769   0.00990   0.01084   0.01160   0.01441
  Beta virt. eigenvalues --    0.01557   0.01565   0.01682   0.01872   0.01939
  Beta virt. eigenvalues --    0.01976   0.02281   0.02369   0.02459   0.02526
  Beta virt. eigenvalues --    0.02644   0.02744   0.02845   0.03013   0.03029
  Beta virt. eigenvalues --    0.03080   0.03164   0.03221   0.03406   0.03754
  Beta virt. eigenvalues --    0.03891   0.04009   0.04229   0.04574   0.04633
  Beta virt. eigenvalues --    0.04903   0.05093   0.05287   0.05403   0.05544
  Beta virt. eigenvalues --    0.05765   0.06224   0.06366   0.06500   0.07365
  Beta virt. eigenvalues --    0.07497   0.07697   0.07753   0.07841   0.08253
  Beta virt. eigenvalues --    0.08900   0.09211   0.09847   0.10334   0.11107
  Beta virt. eigenvalues --    0.11826   0.11885   0.12480   0.12655   0.12945
  Beta virt. eigenvalues --    0.13264   0.13885   0.14056   0.14466   0.14583
  Beta virt. eigenvalues --    0.14823   0.15034   0.15419   0.15843   0.16950
  Beta virt. eigenvalues --    0.17519   0.25710   0.27333   0.27745   0.28784
  Beta virt. eigenvalues --    0.29394   0.30286   0.30851   0.30968   0.31647
  Beta virt. eigenvalues --    0.33154   0.33351   0.34889   0.36085   0.36691
  Beta virt. eigenvalues --    0.37142   0.39361   0.40312   0.41470   0.41674
  Beta virt. eigenvalues --    0.43155   0.43434   0.43849   0.44057   0.44230
  Beta virt. eigenvalues --    0.44385   0.44689   0.44937   0.45479   0.45750
  Beta virt. eigenvalues --    0.46035   0.46280   0.46621   0.47826   0.48241
  Beta virt. eigenvalues --    0.49483   0.49884   0.49993   0.51032   0.51788
  Beta virt. eigenvalues --    0.52397   0.52746   0.53967   0.53996   0.55107
  Beta virt. eigenvalues --    0.56391   0.56565   0.58033   0.58492   0.59738
  Beta virt. eigenvalues --    0.60896   0.62403   0.64083   0.64680   0.65900
  Beta virt. eigenvalues --    0.70546   0.71749   2.02822   2.11349   2.16068
  Beta virt. eigenvalues --    2.17336   2.20743   2.21069   2.27953   4.42259
  Beta virt. eigenvalues --    4.42974   4.43284   4.44142   4.44319   4.44829
  Beta virt. eigenvalues --    4.45289   4.45992   4.46043   4.46775   4.48189
  Beta virt. eigenvalues --    4.49041   4.49568   4.51405   4.52549   4.55123
  Beta virt. eigenvalues --    4.57126   4.58911   4.61987   4.62642   4.63560
  Beta virt. eigenvalues --   96.22305  96.32294  96.37775  96.39480  96.43562
  Beta virt. eigenvalues --   96.43872  96.53175
          Condensed to atoms (all electrons):
               1          2          3          4          5          6
     1  Na  10.897342   0.135800  -0.589089   0.148655   0.323191   0.408441
     2  Na   0.135800  11.477270  -0.031454  -0.111147  -1.047813   1.483452
     3  Na  -0.589089  -0.031454  12.494188  -0.053367  -0.562020  -0.447988
     4  Na   0.148655  -0.111147  -0.053367  10.804092   0.000053   0.077849
     5  Na   0.323191  -1.047813  -0.562020   0.000053  12.808589  -1.853222
     6  Na   0.408441   1.483452  -0.447988   0.077849  -1.853222  13.590611
     7  Na  -0.141380  -1.146552  -0.209954  -0.020289   1.661023  -1.934930
               7
     1  Na  -0.141380
     2  Na  -1.146552
     3  Na  -0.209954
     4  Na  -0.020289
     5  Na   1.661023
     6  Na  -1.934930
     7  Na  12.749391
          Atomic-Atomic Spin Densities.
               1          2          3          4          5          6
     1  Na   0.015861   0.135003  -0.059975  -0.014035  -0.257535   0.395483
     2  Na   0.135003   0.622826  -0.358344  -0.012409  -0.664034   0.999256
     3  Na  -0.059975  -0.358344   0.192040  -0.098255   0.800643  -0.985704
     4  Na  -0.014035  -0.012409  -0.098255  -0.020214  -0.017063   0.081570
     5  Na  -0.257535  -0.664034   0.800643  -0.017063   0.754818  -1.232734
     6  Na   0.395483   0.999256  -0.985704   0.081570  -1.232734   2.565193
     7  Na  -0.191616  -0.702466   0.721313   0.067099   0.693188  -1.275442
               7
     1  Na  -0.191616
     2  Na  -0.702466
     3  Na   0.721313
     4  Na   0.067099
     5  Na   0.693188
     6  Na  -1.275442
     7  Na   0.821592
 Mulliken charges and spin densities:
               1          2
     1  Na  -0.182961   0.023186
     2  Na   0.240444   0.019830
     3  Na   0.399684   0.211718
     4  Na   0.154155  -0.013308
     5  Na  -0.329801   0.077283
     6  Na  -0.324211   0.547623
     7  Na   0.042691   0.133668
 Sum of Mulliken charges =  -0.00000   1.00000
 Mulliken charges and spin densities with hydrogens summed into heavy atoms:
               1          2
     1  Na  -0.182961   0.023186
     2  Na   0.240444   0.019830
     3  Na   0.399684   0.211718
     4  Na   0.154155  -0.013308
     5  Na  -0.329801   0.077283
     6  Na  -0.324211   0.547623
     7  Na   0.042691   0.133668
 Electronic spatial extent (au):  <R**2>=           2423.2760
 Charge=             -0.0000 electrons
 Dipole moment (field-independent basis, Debye):
    X=              0.0164    Y=             -0.2559    Z=              0.5065  Tot=              0.5678
 Quadrupole moment (field-independent basis, Debye-Ang):
   XX=            -43.9261   YY=            -74.2869   ZZ=            -73.6978
   XY=             -0.7029   XZ=              0.1325   YZ=             -0.0431
 Traceless Quadrupole moment (field-independent basis, Debye-Ang):
   XX=             20.0442   YY=            -10.3166   ZZ=             -9.7276
   XY=             -0.7029   XZ=              0.1325   YZ=             -0.0431
 Octapole moment (field-independent basis, Debye-Ang**2):
  XXX=            -17.4307  YYY=             -2.5725  ZZZ=              5.7116  XYY=             13.3053
  XXY=             -6.0175  XXZ=              5.6991  XZZ=              0.2699  YZZ=             -1.0046
  YYZ=             -1.4948  XYZ=             -1.7202
 Hexadecapole moment (field-independent basis, Debye-Ang**3):
 XXXX=          -1680.6800 YYYY=          -1289.2175 ZZZZ=           -767.5121 XXXY=            -70.9504
 XXXZ=            -13.2315 YYYX=             38.8212 YYYZ=             -3.6297 ZZZX=            -12.8972
 ZZZY=              1.2715 XXYY=           -502.6393 XXZZ=           -537.0557 YYZZ=           -366.6213
 XXYZ=              3.8754 YYXZ=             23.8029 ZZXY=             -7.7175
 N-N= 3.358631450582D+02 E-N=-3.400953187015D+03  KE= 1.132899858506D+03
                          Isotropic Fermi Contact Couplings
        Atom                 a.u.       MegaHertz       Gauss      10(-4) cm-1
     1  Na(23)            -0.01924     -22.76404      -8.12277      -7.59327
     2  Na(23)            -0.01401     -16.57617      -5.91479      -5.52921
     3  Na(23)             0.29530     349.35210     124.65752     116.53132
     4  Na(23)            -0.01254     -14.83748      -5.29438      -4.94925
     5  Na(23)             0.05105      60.39755      21.55135      20.14646
     6  Na(23)             0.29042     343.57942     122.59768     114.60576
     7  Na(23)            -0.00425      -5.03362      -1.79612      -1.67903
 --------------------------------------------------------
       Center         ----  Spin Dipole Couplings  ----
                      3XX-RR        3YY-RR        3ZZ-RR
 --------------------------------------------------------
     1   Atom       -0.007143     -0.009918      0.017061
     2   Atom       -0.003529     -0.009259      0.012787
     3   Atom        0.000278      0.003923     -0.004201
     4   Atom       -0.009132     -0.011321      0.020453
     5   Atom       -0.014147     -0.009790      0.023937
     6   Atom        0.002895     -0.002985      0.000090
     7   Atom       -0.015505     -0.018460      0.033965
 --------------------------------------------------------
                        XY            XZ            YZ
 --------------------------------------------------------
     1   Atom        0.001444      0.004579     -0.006333
     2   Atom       -0.000652      0.002615     -0.003470
     3   Atom       -0.003493      0.008089     -0.002359
     4   Atom       -0.000793      0.001300      0.007688
     5   Atom       -0.006958     -0.012074      0.014295
     6   Atom        0.001242      0.001218     -0.001558
     7   Atom        0.004339     -0.016570     -0.005574
 --------------------------------------------------------


 ---------------------------------------------------------------------------------
              Anisotropic Spin Dipole Couplings in Principal Axis System
 ---------------------------------------------------------------------------------

       Atom             a.u.   MegaHertz   Gauss  10(-4) cm-1        Axes

              Baa    -0.0125    -1.769    -0.631    -0.590 -0.4451  0.8591  0.2527
     1 Na(23) Bbb    -0.0066    -0.933    -0.333    -0.311  0.8816  0.4699 -0.0448
              Bcc     0.0191     2.702     0.964     0.901  0.1573 -0.2029  0.9665
 
              Baa    -0.0098    -1.384    -0.494    -0.462  0.0413  0.9883  0.1470
     2 Na(23) Bbb    -0.0039    -0.556    -0.198    -0.185  0.9873 -0.0178 -0.1581
              Bcc     0.0137     1.940     0.692     0.647  0.1536 -0.1517  0.9764
 
              Baa    -0.0104    -1.463    -0.522    -0.488 -0.6089 -0.0179  0.7930
     3 Na(23) Bbb     0.0008     0.112     0.040     0.037  0.4654  0.8015  0.3755
              Bcc     0.0096     1.351     0.482     0.451  0.6423 -0.5978  0.4797
 
              Baa    -0.0134    -1.886    -0.673    -0.629  0.2462  0.9430 -0.2239
     4 Na(23) Bbb    -0.0089    -1.257    -0.448    -0.419  0.9686 -0.2476  0.0220
              Bcc     0.0223     3.143     1.121     1.048  0.0347  0.2223  0.9744
 
              Baa    -0.0193    -2.731    -0.975    -0.911  0.8501  0.5227  0.0645
     5 Na(23) Bbb    -0.0138    -1.953    -0.697    -0.652 -0.4465  0.7802 -0.4380
              Bcc     0.0332     4.685     1.672     1.563 -0.2793  0.3436  0.8966
 
              Baa    -0.0040    -0.568    -0.203    -0.189 -0.2302  0.8854  0.4039
     6 Na(23) Bbb     0.0006     0.085     0.030     0.028 -0.2153 -0.4511  0.8661
              Bcc     0.0034     0.483     0.172     0.161  0.9490  0.1124  0.2945
 
              Baa    -0.0225    -3.174    -1.133    -1.059  0.7774 -0.6061  0.1684
     7 Na(23) Bbb    -0.0173    -2.439    -0.870    -0.814  0.5563  0.7874  0.2656
              Bcc     0.0398     5.613     2.003     1.872 -0.2935 -0.1128  0.9493
 

 ---------------------------------------------------------------------------------

 No NMR shielding tensors so no spin-rotation constants.
 Leave Link  601 at Tue Dec  5 11:09:10 2023, MaxMem=  1879048192 cpu:               2.2 elap:               0.2
 (Enter /home/sekinelabo/g16/l701.exe)
 ... and contract with generalized density number  0.
 Compute integral first derivatives.
 Leave Link  701 at Tue Dec  5 11:09:10 2023, MaxMem=  1879048192 cpu:               1.5 elap:               0.1
 (Enter /home/sekinelabo/g16/l702.exe)
 L702 exits ... SP integral derivatives will be done elsewhere.
 Leave Link  702 at Tue Dec  5 11:09:10 2023, MaxMem=  1879048192 cpu:               0.4 elap:               0.0
 (Enter /home/sekinelabo/g16/l703.exe)
 Integral derivatives from FoFJK, PRISM(SPDF).
 Compute integral first derivatives, UseDBF=F ICtDFT=           0.
 Calling FoFJK, ICntrl=      2127 FMM=F ISym2X=0 I1Cent= 0 IOpClX= 1 NMat=1 NMatS=1 NMatT=0.
 FoFJK:  IHMeth= 1 ICntrl=    2127 DoSepK=F KAlg= 0 I1Cent=           0 FoldK=F
 IRaf=         0 NMat=       1 IRICut=       1 DoRegI=T DoRafI=F ISym2E= 0 IDoP0=0 IntGTp=1.
 FoFCou: FMM=F IPFlag=           0 FMFlag=      100000 FMFlg1=         800
         NFxFlg=           0 DoJE=F BraDBF=F KetDBF=F FulRan=T
         wScrn=  0.000000 ICntrl=      2127 IOpCl=  1 I1Cent=           0 NGrid=           0
         NMat0=    1 NMatS0=      1 NMatT0=    0 NMatD0=    1 NMtDS0=    0 NMtDT0=    0
 Symmetry not used in FoFCou.
 Leave Link  703 at Tue Dec  5 11:09:12 2023, MaxMem=  1879048192 cpu:              32.9 elap:               2.2
 (Enter /home/sekinelabo/g16/l716.exe)
 Dipole        = 6.45774122D-03-1.00684607D-01 1.99288614D-01
 ***** Axes restored to original set *****
 -------------------------------------------------------------------
 Center     Atomic                   Forces (Hartrees/Bohr)
 Number     Number              X              Y              Z
 -------------------------------------------------------------------
      1       11           0.002584675    0.003473577    0.002326663
      2       11           0.001754413   -0.001945362    0.000038235
      3       11          -0.003136702    0.001844577   -0.000759801
      4       11           0.003546110   -0.000110567    0.002242932
      5       11          -0.001525581   -0.000618243   -0.006480086
      6       11          -0.001392514   -0.000086862   -0.001213307
      7       11          -0.001830400   -0.002557120    0.003845364
 -------------------------------------------------------------------
 Cartesian Forces:  Max     0.006480086 RMS     0.002537865
 Z-matrix is all fixed cartesians, so copy forces.
 Force constants in Cartesian coordinates: 
                1             2             3             4             5 
      1  0.429989D-01
      2  0.319310D-02  0.506814D-01
      3  0.258474D-02  0.221610D-02  0.825986D-01
      4  0.225069D-02 -0.303007D-02 -0.920048D-03  0.579050D-01
      5 -0.312629D-02  0.547469D-02 -0.375398D-02  0.195408D-01  0.544033D-01
      6 -0.110373D-02 -0.383969D-02  0.127221D-02  0.995963D-02 -0.426048D-03
      7 -0.192720D-01  0.572100D-03 -0.695637D-02 -0.521000D-02 -0.179056D-02
      8  0.699765D-02 -0.111221D-01 -0.130034D-03 -0.801586D-02  0.330658D-02
      9  0.175865D-01 -0.118194D-01 -0.215546D-01 -0.426437D-02 -0.240477D-02
     10 -0.771919D-02 -0.563536D-02 -0.479523D-02  0.209940D-02 -0.486480D-03
     11 -0.497429D-02 -0.121626D-01 -0.738105D-02 -0.420460D-02  0.892218D-03
     12  0.956452D-02  0.173599D-01 -0.223457D-01 -0.172674D-02 -0.558418D-04
     13 -0.902200D-02 -0.376843D-02  0.425434D-02 -0.235114D-01  0.524545D-02
     14 -0.116852D-03 -0.222115D-01  0.191969D-01 -0.113110D-01 -0.284681D-01
     15 -0.797871D-02 -0.134747D-01 -0.180660D-01 -0.113028D-02  0.184386D-01
     16 -0.171957D-01  0.103271D-01  0.816275D-02 -0.130331D-01 -0.102952D-01
     17 -0.137428D-03 -0.158562D-01 -0.575839D-02  0.189117D-01 -0.191591D-01
     18 -0.193608D-01  0.109392D-01 -0.175190D-01  0.423950D-02 -0.517670D-02
     19  0.795927D-02 -0.165848D-02 -0.233017D-02 -0.205005D-01 -0.908769D-02
     20 -0.183590D-02  0.519627D-02 -0.438958D-02 -0.118910D-01 -0.164495D-01
     21 -0.129251D-02 -0.138129D-02 -0.438551D-02 -0.615768D-02 -0.662123D-02
                6             7             8             9            10 
      6  0.528207D-01
      7 -0.183685D-02  0.132939D+00
      8 -0.292175D-02 -0.991715D-02  0.109975D+00
      9  0.753729D-02 -0.909637D-02  0.678060D-02  0.996855D-01
     10 -0.293252D-03 -0.210784D-01  0.193877D-01  0.484764D-02  0.437152D-01
     11  0.432458D-03 -0.101754D-01 -0.373663D-01  0.489053D-02  0.100423D-01
     12  0.136973D-02  0.141190D-02 -0.743104D-02 -0.154011D-01 -0.511143D-02
     13 -0.183487D-01 -0.298527D-01 -0.196208D-01  0.151259D-01  0.470956D-02
     14 -0.823133D-02  0.119986D-01 -0.234562D-01 -0.188161D-02 -0.558903D-02
     15 -0.334115D-01 -0.452651D-03  0.432915D-02 -0.267782D-01 -0.355982D-04
     16 -0.449428D-02 -0.256945D-01  0.117849D-01 -0.701823D-03 -0.237900D-01
     17 -0.101847D-03  0.470554D-02 -0.201568D-01 -0.548577D-04 -0.139630D-01
     18 -0.797372D-02  0.389027D-02 -0.250183D-02 -0.119810D-01  0.495259D-02
     19  0.161172D-01 -0.318319D-01 -0.616490D-03 -0.234975D-01  0.206345D-02
     20  0.150882D-01  0.460684D-02 -0.211803D-01  0.448955D-02 -0.375626D-02
     21 -0.216147D-01  0.130401D-01  0.187491D-02 -0.315078D-01  0.435284D-03
               11            12            13            14            15 
     11  0.667027D-01
     12 -0.225059D-02  0.423673D-01
     13 -0.571136D-02 -0.415427D-04  0.813175D-01
     14 -0.317141D-02  0.270073D-02  0.827045D-02  0.116110D+00
     15  0.285661D-02  0.573228D-02  0.483962D-02 -0.227730D-01  0.109081D+00
     16  0.180465D-01 -0.649036D-03 -0.216281D-01 -0.509414D-02  0.308041D-02
     17 -0.142984D-01 -0.259423D-02  0.165605D-01 -0.268783D-01 -0.282790D-02
     18  0.211776D-02 -0.114844D-01 -0.101452D-01  0.131590D-01 -0.177131D-01
     19 -0.302315D-02 -0.344767D-02 -0.201283D-02  0.184196D-02  0.167721D-02
     20 -0.596219D-03 -0.772887D-02 -0.975799D-03 -0.119246D-01  0.134512D-01
     21 -0.665719D-03 -0.238242D-03  0.431561D-02 -0.217081D-02 -0.188441D-01
               16            17            18            19            20 
     16  0.128551D+00
     17 -0.312307D-01  0.117239D+00
     18 -0.942149D-03  0.896520D-03  0.923321D-01
     19 -0.272093D-01  0.515332D-02  0.173658D-01  0.715318D-01
     20  0.646154D-02 -0.208903D-01 -0.194340D-01  0.739053D-02  0.658447D-01
     21 -0.445587D-02  0.104407D-01 -0.256608D-01 -0.588491D-02 -0.147658D-02
               21 
     21  0.102251D+00
 Leave Link  716 at Tue Dec  5 11:09:12 2023, MaxMem=  1879048192 cpu:               0.4 elap:               0.0
 (Enter /home/sekinelabo/g16/l103.exe)

 GradGradGradGradGradGradGradGradGradGradGradGradGradGradGradGradGradGrad
 Berny optimization.
 Search for a local minimum.
 Step number   1 out of a maximum of    2
 All quantities printed in internal units (Hartrees-Bohrs-Radians)
 Second derivative matrix not updated -- first step.
 ITU=  0
     Eigenvalues ---    0.04227   0.04900   0.05150   0.07806   0.08421
     Eigenvalues ---    0.09667   0.10056   0.11361   0.12656   0.13631
     Eigenvalues ---    0.13997   0.14796   0.16809   0.17558   0.19010
 Angle between quadratic step and forces=  28.85 degrees.
 Linear search not attempted -- first point.
 B after Tr=     0.000000   -0.000000    0.000000
         Rot=    1.000000    0.000000   -0.000000    0.000000 Ang=   0.00 deg.
 Variable       Old X    -DE/DX   Delta X   Delta X   Delta X     New X
                                 (Linear)    (Quad)   (Total)
    X1       22.88836   0.00258   0.00000   0.02688   0.02688  22.91525
    Y1       22.30633   0.00347   0.00000   0.05438   0.05438  22.36070
    Z1       18.71515   0.00233   0.00000   0.02739   0.02739  18.74254
    X2       29.01750   0.00175   0.00000   0.01753   0.01753  29.03503
    Y2       29.19287  -0.00195   0.00000  -0.05073  -0.05073  29.14214
    Z2       27.02082   0.00004   0.00000  -0.01540  -0.01540  27.00541
    X3       20.82799  -0.00314   0.00000  -0.02650  -0.02650  20.80150
    Y3       24.90413   0.00184   0.00000   0.01149   0.01149  24.91563
    Z3       24.80398  -0.00076   0.00000  -0.01490  -0.01490  24.78908
    X4       20.68003   0.00355   0.00000   0.06855   0.06855  20.74858
    Y4       18.93921  -0.00011   0.00000   0.01488   0.01488  18.95409
    Z4       24.12462   0.00224   0.00000   0.04409   0.04409  24.16872
    X5       25.55382  -0.00153   0.00000  -0.02176  -0.02176  25.53206
    Y5       28.23345  -0.00062   0.00000  -0.01203  -0.01203  28.22142
    Z5       22.30368  -0.00648   0.00000  -0.04639  -0.04639  22.25730
    X6       27.25476  -0.00139   0.00000  -0.02241  -0.02241  27.23236
    Y6       22.02948  -0.00009   0.00000   0.00076   0.00076  22.03024
    Z6       24.60216  -0.00121   0.00000  -0.01271  -0.01271  24.58945
    X7       24.74766  -0.00183   0.00000  -0.04231  -0.04231  24.70536
    Y7       25.36485  -0.00256   0.00000  -0.01875  -0.01875  25.34610
    Z7       29.39979   0.00385   0.00000   0.01792   0.01792  29.41771
         Item               Value     Threshold  Converged?
 Maximum Force            0.006480     0.000450     NO 
 RMS     Force            0.002538     0.000300     NO 
 Maximum Displacement     0.068554     0.001800     NO 
 RMS     Displacement     0.031897     0.001200     NO 
 Predicted change in Energy=-7.444884D-04
 GradGradGradGradGradGradGradGradGradGradGradGradGradGradGradGradGradGrad

 Leave Link  103 at Tue Dec  5 11:09:12 2023, MaxMem=  1879048192 cpu:               0.2 elap:               0.0
 (Enter /home/sekinelabo/g16/l9999.exe)
 1\1\GINC-SEKINELABO-XA7R-R37\Force\UB3LYP\6-311+G(d)\Na7(2)\SEKINELABO
 \05-Dec-2023\0\\#P B3LYP/6-311+g(d) force\\DPGEN\\0,2\Na,12.112,11.804
 ,9.90363\Na,15.3554,15.4482,14.2988\Na,11.0217,13.1787,13.1257\Na,10.9
 434,10.0222,12.7662\Na,13.5225,14.9405,11.8026\Na,14.4226,11.6575,13.0
 189\Na,13.0959,13.4225,15.5577\\Version=ES64L-G16RevB.01\State=2-A\HF=
 -1136.1218133\S2=0.761034\S2-1=0.\S2A=0.75008\RMSD=5.177e-09\RMSF=2.53
 8e-03\Dipole=0.1298602,-0.1652106,0.0757417\Quadrupole=-0.238145,3.616
 4126,-3.3782676,8.7091551,5.5597798,6.917927\PG=C01 [X(Na7)]\\@


 Everywhere is walking distance if you have the time.
                                    -- Steven Wright
 Job cpu time:       0 days  0 hours  4 minutes 32.5 seconds.
 Elapsed time:       0 days  0 hours  0 minutes 23.6 seconds.
 File lengths (MBytes):  RWF=     32 Int=      0 D2E=      0 Chk=      4 Scr=      1
 Normal termination of Gaussian 16 at Tue Dec  5 11:09:12 2023.
