ITEM: TIMESTEP
2090
ITEM: NUMBER OF ATOMS
7
ITEM: BOX BOUNDS xy xz yz ff ff ff
0.0000000000000000e+00 2.4249803483800001e+01 0.0000000000000000e+00
0.0000000000000000e+00 2.4249803483800001e+01 0.0000000000000000e+00
0.0000000000000000e+00 2.4249803483800001e+01 0.0000000000000000e+00
ITEM: ATOMS id type x y z fx fy fz
3 1 9.52071 13.1209 7.86174 0.0982777 0.047666 0.135281
4 1 10.2775 11.4573 11.9508 0.0129439 0.00622708 -0.1197
1 1 11.7239 14.9538 9.69973 -0.10795 -0.125271 -0.0237806
5 1 12.0015 11.4104 14.8139 -0.0354801 -0.00701564 0.196483
6 1 13.3751 8.79967 13.6058 -0.0258547 -0.131915 -0.0971496
7 1 15.5984 11.1679 13.9909 -0.0370182 0.0937265 0.00208778
2 1 12.3772 13.9644 12.9516 0.0950819 0.116582 -0.0932218
