1.519539999999999935e+01 1.349409999999999954e+01 1.293249999999999922e+01 1.340440000000000076e+01 1.673250000000000171e+01 1.357019999999999982e+01 1.937719999999999843e+01 1.455829999999999913e+01 1.284060000000000024e+01 1.684789999999999921e+01 1.605720000000000169e+01 1.540530000000000044e+01 1.419200000000000017e+01 1.748270000000000124e+01 1.656139999999999901e+01 1.439279999999999937e+01 1.528330000000000055e+01 1.975629999999999953e+01 1.401580000000000048e+01 1.381739999999999924e+01 1.635920000000000130e+01
1.267120000000000068e+01 1.582259999999999955e+01 1.541450000000000031e+01 1.757460000000000022e+01 1.321749999999999936e+01 1.697159999999999869e+01 1.486180000000000057e+01 1.349750000000000050e+01 1.453049999999999997e+01 1.467229999999999990e+01 1.448150000000000048e+01 1.864280000000000115e+01 1.543640000000000079e+01 1.882430000000000092e+01 1.401179999999999914e+01 1.629200000000000159e+01 1.595969999999999978e+01 1.580460000000000065e+01 1.591740000000000066e+01 1.562240000000000073e+01 1.204969999999999963e+01
1.268329999999999913e+01 1.584229999999999983e+01 1.557329999999999970e+01 1.762249999999999872e+01 1.320780000000000065e+01 1.691839999999999833e+01 1.475249999999999950e+01 1.335870000000000068e+01 1.450750000000000028e+01 1.481489999999999974e+01 1.443260000000000076e+01 1.864959999999999951e+01 1.536550000000000082e+01 1.902890000000000015e+01 1.377740000000000009e+01 1.614160000000000039e+01 1.589620000000000033e+01 1.586890000000000001e+01 1.604520000000000124e+01 1.565910000000000046e+01 1.213030000000000008e+01
1.663489999999999824e+01 1.525220000000000020e+01 1.472840000000000060e+01 1.791410000000000124e+01 1.222489999999999988e+01 1.434960000000000058e+01 1.462069999999999936e+01 1.373690000000000033e+01 1.613520000000000110e+01 1.442910000000000004e+01 1.625260000000000105e+01 1.821150000000000091e+01 1.708719999999999928e+01 1.793260000000000076e+01 1.675829999999999842e+01 1.378790000000000049e+01 1.519539999999999935e+01 1.232399999999999984e+01 1.295159999999999911e+01 1.683079999999999998e+01 1.491859999999999964e+01
1.442849999999999966e+01 1.744999999999999929e+01 1.370950000000000024e+01 1.519609999999999950e+01 1.393699999999999939e+01 1.370480000000000054e+01 1.758889999999999887e+01 1.359159999999999968e+01 1.622429999999999950e+01 1.799429999999999907e+01 1.649320000000000164e+01 1.406770000000000032e+01 1.563940000000000019e+01 1.606599999999999895e+01 1.648189999999999955e+01 1.457039999999999935e+01 1.372160000000000046e+01 1.766410000000000124e+01 1.200799999999999912e+01 1.616619999999999990e+01 1.557319999999999993e+01
1.350500000000000078e+01 1.695420000000000016e+01 1.504129999999999967e+01 1.473760000000000048e+01 1.404770000000000074e+01 1.440140000000000065e+01 1.777929999999999922e+01 1.434050000000000047e+01 1.428669999999999973e+01 1.605480000000000018e+01 1.658010000000000161e+01 1.231700000000000017e+01 1.640579999999999927e+01 1.686410000000000053e+01 1.640810000000000102e+01 1.584159999999999968e+01 1.350440000000000040e+01 1.723819999999999908e+01 1.310139999999999993e+01 1.513439999999999941e+01 1.773290000000000077e+01
1.489189999999999969e+01 1.638520000000000110e+01 1.311480000000000068e+01 1.854380000000000095e+01 1.515010000000000012e+01 1.324099999999999966e+01 1.538030000000000008e+01 1.452640000000000065e+01 1.571160000000000068e+01 1.167849999999999966e+01 1.628500000000000014e+01 1.512170000000000059e+01 1.349469999999999992e+01 1.281900000000000084e+01 1.459469999999999956e+01 1.681429999999999936e+01 1.246920000000000073e+01 1.274770000000000003e+01 1.083810000000000073e+01 1.400650000000000084e+01 1.711009999999999920e+01
1.225479999999999947e+01 1.355150000000000077e+01 1.289910000000000068e+01 1.313049999999999962e+01 1.428940000000000055e+01 1.599959999999999916e+01 1.473850000000000016e+01 1.147690000000000055e+01 1.430310000000000059e+01 1.638789999999999836e+01 1.396729999999999983e+01 1.670400000000000063e+01 1.575600000000000023e+01 1.439029999999999987e+01 1.313710000000000022e+01 1.294829999999999970e+01 1.716509999999999891e+01 1.328860000000000063e+01 1.642579999999999885e+01 1.680099999999999838e+01 1.531010000000000026e+01
1.266119999999999912e+01 1.458779999999999966e+01 1.282220000000000049e+01 1.488879999999999981e+01 1.312880000000000003e+01 1.576849999999999952e+01 1.492430000000000057e+01 1.151629999999999932e+01 1.300849999999999973e+01 1.722970000000000113e+01 1.651379999999999981e+01 1.570250000000000057e+01 1.666400000000000148e+01 1.452009999999999934e+01 1.314370000000000083e+01 1.146990000000000087e+01 1.468679999999999986e+01 1.656680000000000064e+01 1.380369999999999919e+01 1.668789999999999907e+01 1.462930000000000064e+01
1.669819999999999993e+01 1.458990000000000009e+01 1.500869999999999926e+01 1.491280000000000072e+01 1.419740000000000002e+01 1.817340000000000089e+01 1.166430000000000078e+01 1.599119999999999919e+01 1.223199999999999932e+01 1.510599999999999987e+01 1.664239999999999853e+01 1.269130000000000003e+01 1.410839999999999961e+01 1.295809999999999995e+01 1.237439999999999962e+01 1.559450000000000003e+01 1.203560000000000052e+01 1.603630000000000067e+01 1.355739999999999945e+01 1.522690000000000055e+01 1.512540000000000084e+01
1.673369999999999891e+01 1.565939999999999976e+01 1.604660000000000153e+01 1.437049999999999983e+01 1.329160000000000075e+01 1.705910000000000082e+01 1.281349999999999945e+01 1.159839999999999982e+01 1.475530000000000008e+01 1.548039999999999949e+01 1.709680000000000177e+01 1.282499999999999929e+01 1.322180000000000000e+01 1.504039999999999999e+01 1.169689999999999941e+01 1.580599999999999916e+01 1.330739999999999945e+01 1.410019999999999918e+01 1.321560000000000024e+01 1.564739999999999931e+01 1.515840000000000032e+01
1.235970000000000013e+01 1.070040000000000013e+01 1.474639999999999951e+01 9.726649999999999352e+00 1.416530000000000022e+01 1.386250000000000071e+01 1.097830000000000084e+01 1.639369999999999905e+01 1.244800000000000040e+01 1.300689999999999991e+01 1.358810000000000073e+01 1.363829999999999920e+01 1.587850000000000072e+01 1.146589999999999954e+01 1.375559999999999938e+01 1.752060000000000173e+01 1.424639999999999951e+01 1.252340000000000053e+01 1.669900000000000162e+01 1.560999999999999943e+01 1.519539999999999935e+01
1.229710000000000036e+01 1.409999999999999964e+01 1.499009999999999998e+01 1.418800000000000061e+01 1.239189999999999969e+01 1.268650000000000055e+01 1.653529999999999944e+01 1.272959999999999958e+01 1.558259999999999934e+01 1.591469999999999985e+01 1.531390000000000029e+01 1.339300000000000068e+01 1.094890000000000008e+01 1.409939999999999927e+01 1.103470000000000084e+01 1.277379999999999960e+01 1.612369999999999948e+01 1.230990000000000073e+01 1.351190000000000069e+01 1.141109999999999935e+01 1.617299999999999827e+01
1.243149999999999977e+01 1.409980000000000011e+01 1.461059999999999981e+01 1.417239999999999966e+01 1.240859999999999985e+01 1.233000000000000007e+01 1.643740000000000023e+01 1.264370000000000083e+01 1.567830000000000013e+01 1.586749999999999972e+01 1.563410000000000011e+01 1.399130000000000074e+01 1.048399999999999999e+01 1.374760000000000026e+01 1.129229999999999912e+01 1.316820000000000057e+01 1.614549999999999841e+01 1.200880000000000081e+01 1.360870000000000068e+01 1.149039999999999928e+01 1.625840000000000174e+01
1.299089999999999989e+01 1.217650000000000077e+01 1.377059999999999995e+01 1.091380000000000017e+01 1.487989999999999924e+01 1.383259999999999934e+01 1.337880000000000003e+01 1.461739999999999995e+01 1.188809999999999967e+01 1.528200000000000003e+01 1.154490000000000016e+01 1.075259999999999927e+01 1.099869999999999948e+01 1.252340000000000053e+01 1.050380000000000003e+01 1.251120000000000054e+01 9.769119999999999138e+00 1.162069999999999936e+01 1.011270000000000024e+01 1.067689999999999984e+01 1.381959999999999944e+01
1.431670000000000087e+01 1.305269999999999975e+01 1.241350000000000087e+01 1.116029999999999944e+01 1.402710000000000079e+01 1.421579999999999977e+01 1.179630000000000045e+01 1.498649999999999949e+01 1.116879999999999917e+01 1.345010000000000083e+01 9.773400000000000531e+00 1.212509999999999977e+01 1.085590000000000011e+01 1.154759999999999920e+01 1.189770000000000039e+01 1.273739999999999917e+01 1.176239999999999952e+01 9.283490000000000464e+00 1.187129999999999974e+01 1.103829999999999956e+01 1.508370000000000033e+01
1.395379999999999932e+01 1.340370000000000061e+01 1.265840000000000032e+01 1.107770000000000010e+01 1.405519999999999925e+01 1.408660000000000068e+01 1.094880000000000031e+01 1.484370000000000012e+01 1.074859999999999971e+01 1.337850000000000072e+01 9.432660000000000267e+00 1.209520000000000017e+01 1.080240000000000045e+01 1.176510000000000034e+01 1.195570000000000022e+01 1.333789999999999942e+01 1.217370000000000019e+01 9.474970000000000780e+00 1.268890000000000029e+01 1.051389999999999958e+01 1.516869999999999941e+01
1.379969999999999963e+01 1.384110000000000085e+01 1.461050000000000004e+01 9.787300000000000111e+00 1.292740000000000045e+01 1.407789999999999964e+01 1.539100000000000001e+01 1.202689999999999948e+01 1.201510000000000034e+01 1.268009999999999948e+01 1.036560000000000059e+01 1.320320000000000071e+01 1.262630000000000052e+01 1.164329999999999998e+01 9.541389999999999816e+00 1.228240000000000087e+01 1.365540000000000020e+01 1.171419999999999995e+01 9.621199999999999974e+00 1.172840000000000060e+01 1.102570000000000050e+01
1.420529999999999937e+01 1.338630000000000031e+01 1.448540000000000028e+01 9.634460000000000690e+00 1.261669999999999980e+01 1.450200000000000067e+01 1.512490000000000023e+01 1.236650000000000027e+01 1.166559999999999953e+01 1.232000000000000028e+01 1.091169999999999973e+01 1.309340000000000082e+01 1.284060000000000024e+01 1.121570000000000000e+01 9.459130000000000038e+00 1.194420000000000037e+01 1.452330000000000076e+01 1.210710000000000086e+01 1.011860000000000070e+01 1.116779999999999973e+01 1.087540000000000084e+01
1.371299999999999919e+01 1.316310000000000002e+01 1.471299999999999919e+01 1.081370000000000076e+01 1.226900000000000013e+01 1.339390000000000036e+01 1.174140000000000050e+01 1.566070000000000029e+01 1.219880000000000031e+01 1.400719999999999921e+01 1.321720000000000006e+01 1.180129999999999946e+01 1.439470000000000027e+01 9.982210000000000250e+00 1.414279999999999937e+01 1.211200000000000010e+01 1.012540000000000084e+01 1.118299999999999983e+01 1.066389999999999993e+01 1.302820000000000000e+01 1.001309999999999967e+01
1.200479999999999947e+01 1.538679999999999914e+01 1.353100000000000058e+01 1.269860000000000078e+01 1.160299999999999976e+01 1.422000000000000064e+01 1.159270000000000067e+01 9.238490000000000535e+00 1.250629999999999953e+01 1.436839999999999939e+01 1.089540000000000042e+01 1.091200000000000081e+01 9.539730000000000487e+00 1.331930000000000014e+01 1.321620000000000061e+01 1.192319999999999958e+01 1.325450000000000017e+01 1.078730000000000011e+01 1.531840000000000046e+01 1.374830000000000041e+01 1.227299999999999969e+01
1.341719999999999935e+01 1.546100000000000030e+01 1.205889999999999951e+01 9.289939999999999642e+00 1.087429999999999986e+01 1.472969999999999935e+01 1.563599999999999923e+01 1.385469999999999935e+01 1.374399999999999977e+01 1.025200000000000067e+01 9.268140000000000711e+00 1.176890000000000036e+01 1.160560000000000080e+01 1.253619999999999912e+01 1.358339999999999925e+01 1.563100000000000023e+01 1.283660000000000068e+01 1.075559999999999938e+01 1.161420000000000030e+01 1.261490000000000045e+01 1.080550000000000033e+01
1.364109999999999978e+01 1.153490000000000038e+01 1.365850000000000009e+01 1.219449999999999967e+01 1.399670000000000059e+01 1.382370000000000054e+01 1.071049999999999969e+01 1.068389999999999951e+01 1.347070000000000078e+01 1.437119999999999997e+01 1.453069999999999951e+01 1.167719999999999914e+01 9.163220000000000809e+00 1.372380000000000067e+01 1.309980000000000011e+01 1.183360000000000056e+01 1.244740000000000002e+01 1.058060000000000045e+01 1.553170000000000073e+01 1.052829999999999977e+01 1.113530000000000086e+01
1.222259999999999991e+01 1.070780000000000065e+01 1.602489999999999881e+01 1.445040000000000013e+01 1.356310000000000038e+01 1.123470000000000013e+01 1.100479999999999947e+01 1.224230000000000018e+01 9.953049999999999287e+00 1.178630000000000067e+01 1.559309999999999974e+01 1.022569999999999979e+01 1.145800000000000018e+01 1.320950000000000024e+01 1.327229999999999954e+01 1.471149999999999913e+01 1.211589999999999989e+01 1.498070000000000057e+01 1.183430000000000071e+01 1.003630000000000067e+01 1.177650000000000041e+01
1.263509999999999955e+01 1.375689999999999991e+01 1.381489999999999974e+01 1.479020000000000046e+01 9.053570000000000562e+00 1.362040000000000006e+01 1.047180000000000000e+01 1.595930000000000071e+01 1.254289999999999949e+01 1.052120000000000033e+01 1.261239999999999917e+01 1.074399999999999977e+01 1.351409999999999911e+01 1.129570000000000007e+01 1.091859999999999964e+01 1.268440000000000012e+01 9.681309999999999860e+00 1.526219999999999999e+01 1.285110000000000063e+01 1.510870000000000068e+01 1.056489999999999974e+01
1.579369999999999941e+01 1.245979999999999954e+01 1.209280000000000044e+01 1.287570000000000014e+01 1.412500000000000000e+01 1.551529999999999987e+01 1.381959999999999944e+01 1.041619999999999990e+01 1.033740000000000059e+01 1.222010000000000041e+01 1.442570000000000086e+01 1.109779999999999944e+01 1.266820000000000057e+01 1.151900000000000013e+01 1.323029999999999973e+01 1.018709999999999916e+01 1.114489999999999981e+01 1.138969999999999949e+01 9.903330000000000410e+00 1.337720000000000020e+01 1.380450000000000088e+01
1.259389999999999965e+01 1.252120000000000033e+01 1.204710000000000036e+01 1.137299999999999933e+01 1.608060000000000045e+01 1.255700000000000038e+01 1.450580000000000069e+01 1.532249999999999979e+01 1.278780000000000072e+01 1.626599999999999824e+01 1.186979999999999968e+01 1.283000000000000007e+01 1.382820000000000071e+01 9.260690000000000310e+00 1.208740000000000059e+01 1.026099999999999923e+01 9.846059999999999590e+00 1.299140000000000050e+01 9.125429999999999708e+00 1.305250000000000021e+01 1.265279999999999916e+01
1.270550000000000068e+01 1.262349999999999994e+01 1.273399999999999999e+01 1.167820000000000036e+01 1.591109999999999935e+01 1.244710000000000072e+01 1.473659999999999926e+01 1.515189999999999948e+01 1.268410000000000082e+01 1.587110000000000021e+01 1.179759999999999920e+01 1.268500000000000050e+01 1.358050000000000068e+01 9.434309999999999974e+00 1.182029999999999959e+01 1.066239999999999988e+01 1.003270000000000017e+01 1.288390000000000057e+01 8.719060000000000699e+00 1.300210000000000043e+01 1.269909999999999961e+01
1.006690000000000040e+01 1.112030000000000030e+01 1.145429999999999993e+01 1.375189999999999912e+01 1.539789999999999992e+01 1.313499999999999979e+01 1.560169999999999924e+01 1.252169999999999916e+01 1.173259999999999970e+01 1.337529999999999930e+01 9.893359999999999488e+00 1.175539999999999985e+01 1.217900000000000027e+01 1.335590000000000011e+01 1.124900000000000055e+01 1.285570000000000057e+01 1.197959999999999958e+01 1.472889999999999944e+01 1.012289999999999957e+01 1.368459999999999965e+01 1.389809999999999945e+01
1.029850000000000065e+01 1.105550000000000033e+01 1.228379999999999939e+01 1.386930000000000085e+01 1.505039999999999978e+01 1.341089999999999982e+01 1.565060000000000073e+01 1.212509999999999977e+01 1.164189999999999969e+01 1.310689999999999955e+01 9.730230000000000601e+00 1.103219999999999956e+01 1.185389999999999944e+01 1.316019999999999968e+01 1.123119999999999941e+01 1.258150000000000013e+01 1.163640000000000008e+01 1.440690000000000026e+01 1.059270000000000067e+01 1.519539999999999935e+01 1.394640000000000057e+01
1.333719999999999928e+01 1.375300000000000011e+01 1.457649999999999935e+01 1.228149999999999942e+01 1.449409999999999954e+01 1.090740000000000087e+01 1.194309999999999938e+01 1.129529999999999923e+01 9.634330000000000283e+00 9.902990000000000848e+00 1.407360000000000078e+01 1.349060000000000059e+01 1.478500000000000014e+01 1.232949999999999946e+01 1.177130000000000010e+01 1.113920000000000066e+01 1.145519999999999960e+01 1.308929999999999971e+01 1.456439999999999912e+01 1.055269999999999975e+01 1.448380000000000045e+01
1.245439999999999969e+01 1.291119999999999912e+01 9.532389999999999475e+00 1.464649999999999963e+01 1.040310000000000024e+01 1.126650000000000063e+01 1.384130000000000038e+01 1.413039999999999985e+01 1.353470000000000084e+01 1.113669999999999938e+01 1.146940000000000026e+01 1.208370000000000033e+01 1.097639999999999993e+01 1.506070000000000064e+01 1.197659999999999947e+01 1.342849999999999966e+01 1.072049999999999947e+01 1.423550000000000004e+01 1.146940000000000026e+01 1.325789999999999935e+01 1.532399999999999984e+01
1.222799999999999976e+01 1.205039999999999978e+01 1.360289999999999999e+01 1.470320000000000071e+01 1.048349999999999937e+01 1.189889999999999937e+01 1.122630000000000017e+01 8.780699999999999505e+00 1.211870000000000047e+01 1.154770000000000074e+01 1.208460000000000001e+01 1.000169999999999959e+01 9.179859999999999687e+00 1.174029999999999951e+01 1.223419999999999952e+01 1.421439999999999948e+01 1.399980000000000047e+01 1.190039999999999942e+01 1.110800000000000054e+01 1.506809999999999938e+01 1.245069999999999943e+01
1.090949999999999953e+01 9.572549999999999670e+00 1.349200000000000088e+01 1.460689999999999955e+01 1.343299999999999983e+01 1.101459999999999972e+01 1.476370000000000005e+01 1.114039999999999964e+01 1.315610000000000035e+01 1.197860000000000014e+01 1.086469999999999914e+01 1.076280000000000037e+01 1.211139999999999972e+01 1.351089999999999947e+01 1.344519999999999982e+01 1.093629999999999924e+01 1.391690000000000005e+01 1.046599999999999930e+01 8.901080000000000325e+00 1.176900000000000013e+01 1.187079999999999913e+01
9.615349999999999397e+00 1.384220000000000006e+01 1.151559999999999917e+01 1.388470000000000049e+01 9.327070000000000860e+00 1.159379999999999988e+01 1.238790000000000013e+01 1.510609999999999964e+01 1.322240000000000038e+01 1.254669999999999952e+01 1.221400000000000041e+01 1.056809999999999938e+01 9.747859999999999303e+00 1.005049999999999955e+01 1.066900000000000048e+01 1.453350000000000009e+01 1.222739999999999938e+01 1.300569999999999915e+01 1.149150000000000027e+01 1.144030000000000058e+01 1.363299999999999912e+01
1.333750000000000036e+01 1.313770000000000060e+01 1.194280000000000008e+01 1.025380000000000003e+01 1.364799999999999969e+01 1.065060000000000073e+01 1.324579999999999913e+01 9.849009999999999820e+00 1.346570000000000000e+01 1.535580000000000034e+01 1.077820000000000000e+01 1.064090000000000025e+01 9.992589999999999861e+00 1.496690000000000076e+01 1.320309999999999917e+01 1.168810000000000038e+01 1.017259999999999920e+01 1.055109999999999992e+01 1.033389999999999986e+01 1.165530000000000044e+01 1.375329999999999941e+01
1.375699999999999967e+01 9.287359999999999616e+00 1.308760000000000012e+01 1.340680000000000049e+01 1.300569999999999915e+01 1.163279999999999959e+01 1.061229999999999940e+01 1.114550000000000018e+01 1.303609999999999935e+01 1.180100000000000016e+01 1.040910000000000046e+01 1.000200000000000067e+01 1.308150000000000013e+01 1.242360000000000042e+01 1.485650000000000048e+01 1.061899999999999977e+01 1.330879999999999974e+01 9.012930000000000774e+00 1.092989999999999995e+01 1.462749999999999950e+01 1.257959999999999923e+01
1.212899999999999956e+01 1.420930000000000071e+01 1.371990000000000087e+01 1.581450000000000067e+01 1.290189999999999948e+01 1.359740000000000038e+01 1.365360000000000085e+01 1.332240000000000002e+01 1.080310000000000059e+01 1.496429999999999971e+01 1.600009999999999977e+01 1.332290000000000063e+01 1.369929999999999914e+01 1.656500000000000128e+01 1.622090000000000032e+01 1.432549999999999990e+01 1.370350000000000001e+01 1.643140000000000001e+01 1.296969999999999956e+01 1.085369999999999990e+01 1.346020000000000039e+01
1.275569999999999915e+01 1.594839999999999947e+01 1.436050000000000004e+01 1.326479999999999926e+01 1.133689999999999998e+01 1.572339999999999982e+01 1.466370000000000040e+01 1.160219999999999985e+01 1.270429999999999993e+01 1.530139999999999922e+01 1.379219999999999935e+01 1.512809999999999988e+01 1.557760000000000034e+01 1.698509999999999920e+01 1.392159999999999975e+01 1.448789999999999978e+01 1.469079999999999941e+01 1.192379999999999995e+01 1.150479999999999947e+01 1.320030000000000037e+01 1.379420000000000002e+01
1.480690000000000062e+01 1.628280000000000172e+01 1.126539999999999964e+01 1.126590000000000025e+01 1.307770000000000010e+01 1.705260000000000176e+01 1.373719999999999963e+01 1.205429999999999957e+01 1.453560000000000052e+01 1.467609999999999992e+01 1.446930000000000049e+01 1.641410000000000124e+01 1.613129999999999953e+01 1.400060000000000038e+01 1.371049999999999969e+01 1.433869999999999933e+01 1.274280000000000079e+01 1.101829999999999998e+01 1.259970000000000034e+01 1.492849999999999966e+01 1.355930000000000035e+01
1.131240000000000023e+01 1.096110000000000007e+01 1.434440000000000026e+01 1.053519999999999968e+01 1.118549999999999933e+01 1.096780000000000044e+01 1.192939999999999934e+01 1.411580000000000013e+01 1.513119999999999976e+01 1.171570000000000000e+01 1.398349999999999937e+01 1.160890000000000022e+01 1.433990000000000009e+01 1.190450000000000053e+01 1.234099999999999930e+01 1.745479999999999876e+01 1.391360000000000063e+01 1.351800000000000068e+01 1.422119999999999962e+01 1.544469999999999921e+01 1.359740000000000038e+01
1.110609999999999964e+01 1.294170000000000087e+01 1.156630000000000003e+01 1.168970000000000020e+01 1.570689999999999920e+01 1.374329999999999963e+01 1.184520000000000017e+01 1.226829999999999998e+01 1.520340000000000025e+01 1.438620000000000054e+01 1.161369999999999969e+01 1.172450000000000081e+01 1.469769999999999932e+01 9.663980000000000459e+00 1.520260000000000034e+01 1.432590000000000074e+01 1.398429999999999929e+01 1.365179999999999971e+01 1.345780000000000065e+01 1.532970000000000077e+01 1.041670000000000051e+01
9.676320000000000476e+00 1.392469999999999963e+01 1.165000000000000036e+01 1.299269999999999925e+01 1.446110000000000007e+01 1.378200000000000003e+01 1.157240000000000002e+01 1.147409999999999997e+01 1.302699999999999925e+01 1.342089999999999961e+01 1.284520000000000017e+01 1.058859999999999957e+01 1.267440000000000033e+01 1.198179999999999978e+01 1.614249999999999829e+01 1.490290000000000070e+01 1.204669999999999952e+01 1.381250000000000000e+01 1.626889999999999858e+01 1.477500000000000036e+01 1.250600000000000023e+01
1.230010000000000048e+01 1.461449999999999960e+01 9.277839999999999421e+00 1.546870000000000012e+01 1.165489999999999959e+01 1.429090000000000060e+01 1.410979999999999990e+01 1.404659999999999975e+01 1.652230000000000132e+01 1.013659999999999961e+01 1.247439999999999927e+01 1.236570000000000036e+01 1.310820000000000007e+01 1.452829999999999977e+01 1.263160000000000061e+01 1.205189999999999984e+01 1.177410000000000068e+01 1.469790000000000063e+01 1.360249999999999915e+01 1.168510000000000026e+01 1.099169999999999980e+01
1.213170000000000037e+01 1.375420000000000087e+01 1.170010000000000083e+01 1.251789999999999914e+01 1.557000000000000028e+01 1.454359999999999964e+01 1.268169999999999931e+01 1.013509999999999955e+01 1.118430000000000035e+01 1.523850000000000016e+01 1.160570000000000057e+01 1.071620000000000061e+01 1.393609999999999971e+01 1.576089999999999947e+01 1.114630000000000010e+01 1.201210000000000022e+01 1.114039999999999964e+01 1.431780000000000008e+01 1.225990000000000002e+01 1.281170000000000009e+01 1.716969999999999885e+01
1.559149999999999991e+01 1.672719999999999985e+01 1.141660000000000075e+01 1.563819999999999943e+01 1.716769999999999996e+01 1.559929999999999950e+01 1.589690000000000047e+01 1.414370000000000083e+01 1.380419999999999980e+01 1.468369999999999997e+01 1.043469999999999942e+01 1.459159999999999968e+01 1.376890000000000036e+01 1.355369999999999919e+01 1.611540000000000106e+01 1.518459999999999965e+01 1.574549999999999983e+01 1.833449999999999847e+01 1.334379999999999988e+01 1.633500000000000085e+01 1.424600000000000044e+01
1.544410000000000061e+01 1.315320000000000000e+01 1.053560000000000052e+01 1.600219999999999843e+01 1.393140000000000001e+01 1.637849999999999895e+01 1.528560000000000052e+01 1.612900000000000134e+01 1.201750000000000007e+01 1.355390000000000050e+01 1.387480000000000047e+01 1.353950000000000031e+01 1.323729999999999940e+01 1.407590000000000074e+01 1.672830000000000084e+01 1.590419999999999945e+01 1.597600000000000087e+01 1.921859999999999857e+01 1.468030000000000079e+01 1.696730000000000160e+01 1.568960000000000043e+01
1.593679999999999986e+01 1.260430000000000028e+01 1.226149999999999984e+01 1.581709999999999994e+01 1.449409999999999954e+01 1.516290000000000049e+01 1.527079999999999949e+01 1.623100000000000165e+01 1.241370000000000040e+01 1.307179999999999964e+01 1.381199999999999939e+01 1.298760000000000048e+01 1.276709999999999923e+01 1.418130000000000024e+01 1.691740000000000066e+01 1.667689999999999984e+01 1.534299999999999997e+01 1.812259999999999849e+01 1.456700000000000017e+01 1.744200000000000017e+01 1.624200000000000088e+01
1.361989999999999945e+01 1.359249999999999936e+01 1.235599999999999987e+01 1.595909999999999940e+01 1.336790000000000056e+01 1.474000000000000021e+01 1.393290000000000006e+01 1.615139999999999887e+01 1.524890000000000079e+01 1.280109999999999992e+01 1.216699999999999982e+01 1.628559999999999874e+01 1.592319999999999958e+01 1.614959999999999951e+01 1.251299999999999990e+01 1.482240000000000002e+01 1.525150000000000006e+01 1.774859999999999971e+01 1.704899999999999949e+01 1.742770000000000152e+01 1.521540000000000070e+01
1.295299999999999940e+01 1.444490000000000052e+01 1.405010000000000048e+01 1.637969999999999970e+01 1.498820000000000086e+01 1.554560000000000031e+01 1.499210000000000065e+01 1.738540000000000063e+01 1.379460000000000086e+01 1.393180000000000085e+01 1.412630000000000052e+01 1.759639999999999915e+01 1.622490000000000165e+01 1.390939999999999976e+01 1.167820000000000036e+01 1.576140000000000008e+01 1.232089999999999996e+01 1.463809999999999967e+01 1.386469999999999914e+01 1.693250000000000099e+01 1.680470000000000041e+01
1.489070000000000071e+01 1.176529999999999987e+01 1.355640000000000001e+01 1.779589999999999961e+01 1.377609999999999957e+01 1.452790000000000070e+01 1.734400000000000119e+01 1.687539999999999907e+01 1.352289999999999992e+01 1.221899999999999942e+01 1.549840000000000018e+01 1.737120000000000175e+01 1.376580000000000048e+01 1.840429999999999922e+01 1.358539999999999992e+01 1.354059999999999953e+01 1.245860000000000056e+01 1.685979999999999990e+01 1.455160000000000053e+01 1.532949999999999946e+01 1.468399999999999928e+01
1.292980000000000018e+01 1.174029999999999951e+01 1.426149999999999984e+01 1.627029999999999887e+01 1.653470000000000084e+01 1.488490000000000002e+01 1.010880000000000045e+01 1.291619999999999990e+01 1.520940000000000047e+01 1.534980000000000011e+01 1.216549999999999976e+01 1.197560000000000002e+01 1.538979999999999926e+01 1.350890000000000057e+01 1.565230000000000032e+01 1.312529999999999930e+01 1.555569999999999986e+01 1.412320000000000064e+01 1.489959999999999951e+01 1.565240000000000009e+01 1.196659999999999968e+01
1.315310000000000024e+01 1.177200000000000024e+01 1.273579999999999934e+01 1.625420000000000087e+01 1.590119999999999933e+01 1.374799999999999933e+01 1.089359999999999928e+01 1.360239999999999938e+01 1.513410000000000011e+01 1.654029999999999845e+01 1.256690000000000040e+01 1.304180000000000028e+01 1.468919999999999959e+01 1.314899999999999913e+01 1.562449999999999939e+01 1.305090000000000039e+01 1.628689999999999927e+01 1.520979999999999954e+01 1.349220000000000041e+01 1.479519999999999946e+01 1.257959999999999923e+01
1.287149999999999928e+01 1.142530000000000001e+01 1.279620000000000068e+01 1.645690000000000097e+01 1.584329999999999927e+01 1.398959999999999937e+01 1.110960000000000036e+01 1.327229999999999954e+01 1.534130000000000038e+01 1.661570000000000036e+01 1.300719999999999921e+01 1.240290000000000070e+01 1.476559999999999917e+01 1.326440000000000019e+01 1.555889999999999951e+01 1.259559999999999924e+01 1.645949999999999847e+01 1.496310000000000073e+01 1.365859999999999985e+01 1.480150000000000077e+01 1.302159999999999940e+01
1.552250000000000085e+01 1.258300000000000018e+01 1.198700000000000010e+01 1.653239999999999910e+01 1.499639999999999951e+01 1.346340000000000003e+01 1.170340000000000025e+01 1.448279999999999923e+01 1.595480000000000054e+01 1.421160000000000068e+01 1.250469999999999970e+01 1.485440000000000005e+01 1.171080000000000076e+01 1.256859999999999999e+01 1.233150000000000013e+01 1.300569999999999915e+01 1.568670000000000009e+01 1.309750000000000014e+01 1.538729999999999976e+01 1.525140000000000029e+01 1.638500000000000156e+01
1.402539999999999942e+01 1.414090000000000025e+01 1.559570000000000078e+01 1.299390000000000001e+01 1.466619999999999990e+01 1.198329999999999984e+01 1.644790000000000063e+01 1.195700000000000074e+01 1.361420000000000030e+01 1.668250000000000099e+01 1.548150000000000048e+01 1.404190000000000005e+01 1.328539999999999921e+01 1.720880000000000010e+01 1.394740000000000002e+01 1.130119999999999969e+01 1.367520000000000024e+01 1.500810000000000066e+01 1.316760000000000019e+01 1.077430000000000021e+01 1.371320000000000050e+01
1.475360000000000049e+01 1.385519999999999996e+01 1.561519999999999975e+01 1.340300000000000047e+01 1.423709999999999987e+01 1.199380000000000024e+01 1.591399999999999970e+01 1.225769999999999982e+01 1.287500000000000000e+01 1.661520000000000152e+01 1.612800000000000011e+01 1.404840000000000089e+01 1.297129999999999939e+01 1.705460000000000065e+01 1.424729999999999919e+01 1.121669999999999945e+01 1.354780000000000051e+01 1.490549999999999997e+01 1.303009999999999913e+01 1.082339999999999947e+01 1.421870000000000012e+01