-3.091530992625041836e+04
-3.091545512620743102e+04
-3.091543865107362944e+04
-3.091547453091907300e+04
-3.091573272017096679e+04
-3.091575271564180730e+04
-3.091517968139917866e+04
-3.091585773934759345e+04
-3.091573534933510018e+04
-3.091538763870417461e+04
-3.091579537683682429e+04
-3.091529964524447132e+04
-3.091548404320336340e+04
-3.091548400184205457e+04
-3.091578550835548594e+04
-3.091590931635331071e+04
-3.091582431369707047e+04
-3.091581900312293146e+04
-3.091575059587481883e+04
-3.091573841796313354e+04
-3.091580677051635575e+04
-3.091497477476269705e+04
-3.091531481967401123e+04
-3.091546105121467190e+04
-3.091503620827674604e+04
-3.091569949642892971e+04
-3.091561128745504902e+04
-3.091560024806775618e+04
-3.091583845300547910e+04
-3.091562179649241443e+04
-3.091579938316921471e+04
-3.091582341517709574e+04
-3.091588469059298586e+04
-3.091580854605931017e+04
-3.091580518545310770e+04
-3.091552541675558314e+04
-3.091577253260595535e+04
-3.091560988225906112e+04
-3.091553339431769200e+04
-3.091545375937949575e+04
-3.091544816635117240e+04
-3.091549493374437225e+04
-3.091576582255022004e+04
-3.091556635329293931e+04
-3.091538109763114699e+04
-3.091532244403231743e+04
-3.091526575836094707e+04
-3.091537465805658940e+04
-3.091556407678836695e+04
-3.091557695648170193e+04
-3.091561860922273991e+04
-3.091539375772860149e+04
-3.091583388094836118e+04
-3.091563402528939332e+04
-3.091577519904969449e+04
-3.091566460326834931e+04
-3.091581510808510211e+04
-3.091579840981793313e+04
-3.091547719246476117e+04
-3.091522835794324055e+04
-3.091579511451905637e+04
-3.091546371167190227e+04
-3.091553999362307877e+04
-3.091581084133973854e+04
-3.091582681877728828e+04
-3.091549343875080740e+04
-3.091564391145812988e+04
-3.091579724435426397e+04
-3.091578436221189986e+04
-3.091564132066204547e+04
-3.091562769374404161e+04
-3.091528580961513217e+04
-3.091540851691238640e+04
-3.091550026935298592e+04
-3.091508479502322734e+04
-3.091586349890960264e+04
-3.091589501377658598e+04
-3.091574224415615026e+04
-3.091533501678122047e+04
-3.091574312879831996e+04
-3.091573028039807105e+04
-3.091584982763704465e+04
-3.091593928779046473e+04
-3.091555029503757032e+04
-3.091576959758583325e+04
-3.091572868798775380e+04
-3.091551709986749120e+04
-3.091563407318143072e+04
-3.091515978933160659e+04
-3.091493290405845619e+04
-3.091546633212839879e+04
-3.091551318523746522e+04
-3.091547113901978082e+04
-3.091529239613117534e+04
-3.091574214973263952e+04
-3.091581535734139834e+04
-3.091557747458649828e+04
-3.091556863442344911e+04
-3.091548958997233785e+04
-3.091562447518127738e+04
-3.091547893671462225e+04
-3.091567634144402837e+04
-3.091579953990680224e+04
-3.091577049338467259e+04
-3.091559464633178868e+04
-3.091544561610005258e+04
-3.091581376901278418e+04
-3.091533112065494061e+04
-3.091550516576982773e+04
-3.091559308847992361e+04
-3.091565894629325703e+04
-3.091553918163531853e+04
-3.091538583159601330e+04
-3.091550783030876482e+04
-3.091557062139887057e+04
-3.091585869854895645e+04
-3.091584817617800945e+04
-3.091579743864355987e+04
-3.091538210254764272e+04
-3.091580476068336793e+04
-3.091547914243270134e+04
-3.091539234273651527e+04
-3.091572223807287082e+04
-3.091545971976154033e+04
-3.091550600932280213e+04
-3.091589580263467724e+04
-3.091552465837425189e+04
-3.091549254812213621e+04
-3.091570967512006973e+04
-3.091558147275547890e+04
-3.091580603444835651e+04
-3.091538378475553691e+04
-3.091567040609646210e+04
-3.091578432901400447e+04
-3.091583320528964032e+04
-3.091549561647805240e+04
-3.091547623489608304e+04
-3.091512560938145907e+04
-3.091584065440662380e+04
-3.091557711485197069e+04
-3.091588813038432272e+04
-3.091583182403967294e+04
-3.091577298649187651e+04
-3.091561742552744181e+04
-3.091558900976523728e+04
-3.091547050989252966e+04
-3.091578994734892331e+04
-3.091540201638432700e+04
-3.091547226883654002e+04
-3.091587909647620472e+04
-3.091579242739466645e+04
-3.091555876621422794e+04
-3.091517704407162091e+04
-3.091566653201140070e+04
-3.091548917091699332e+04
-3.091510196948965677e+04
-3.091525334996881793e+04
-3.091585423261624601e+04
-3.091591284376530893e+04
-3.091593871145330559e+04
-3.091585448432156772e+04
-3.091535737800998322e+04
-3.091581455569395985e+04
-3.091589137234887676e+04
-3.091545129974229349e+04
-3.091573022407050303e+04
-3.091559677888812803e+04
-3.091581416684325086e+04
-3.091567855835566661e+04
-3.091543578462619917e+04
-3.091543355220407102e+04
-3.091543357397317959e+04
-3.091553641342099218e+04
-3.091522381119271085e+04
-3.091560717064441997e+04
-3.091595066976910311e+04
-3.091572632413462634e+04
-3.091571993490113528e+04
-3.091511743099932210e+04
-3.091561983482357755e+04
-3.091544871955865165e+04
-3.091535643704024915e+04
-3.091535772441093286e+04
-3.091557527808339728e+04
-3.091540863147231721e+04
-3.091549147218392318e+04
-3.091512464011188058e+04
-3.091527277944282832e+04
-3.091532687132486535e+04
-3.091575502697695629e+04
-3.091543062806850503e+04
-3.091595165264437310e+04
-3.091534494267858099e+04
-3.091519102854724042e+04
-3.091519011941482677e+04
-3.091558079002179875e+04
-3.091558684455523326e+04
-3.091581836202267004e+04
-3.091508332207088824e+04
-3.091550772554492869e+04
-3.091553284383134815e+04
-3.091540500228973542e+04
-3.091573619941880679e+04
-3.091574912020134070e+04
-3.091528595492393288e+04
-3.091517210792615879e+04
-3.091573706201975438e+04
-3.091553276845580694e+04
-3.091573178790887323e+04
-3.091589966719574659e+04
-3.091586904268532453e+04
-3.091548017075098687e+04
-3.091543771581828332e+04
-3.091552385019607391e+04
-3.091521251574627604e+04
-3.091551648189690968e+04
-3.091559105932685634e+04
-3.091556040923772889e+04
-3.091550600007092726e+04
-3.091563775243296914e+04
-3.091577013256169084e+04
-3.091559481259335735e+04
-3.091560733418484961e+04
-3.091540189338885466e+04
-3.091525466182975651e+04
-3.091548088885947436e+04
-3.091584306370275954e+04
-3.091540432554256404e+04
-3.091584421039057634e+04
-3.091565281039777619e+04
-3.091547157930000685e+04
-3.091541545581587707e+04
-3.091517940112189899e+04
-3.091546072168478349e+04
-3.091575546263124852e+04
-3.091583703964607776e+04
-3.091579501084367803e+04
-3.091551029157865196e+04
-3.091580755257159763e+04
-3.091596149527489615e+04
-3.091588620980468113e+04
-3.091578721831900111e+04
-3.091575835356892640e+04
-3.091523867786147093e+04
-3.091579519479264491e+04
-3.091554614094735007e+04
-3.091542384944008154e+04
-3.091546572830773584e+04
-3.091567314709939819e+04
-3.091536468862101174e+04
-3.091583531580475392e+04
-3.091564561244188735e+04
-3.091496757082030308e+04
-3.091526789826436288e+04
-3.091549587525833340e+04
-3.091535096074876856e+04
-3.091582847867185046e+04
-3.091586045667662256e+04
-3.091584600470938676e+04
-3.091553150503114011e+04
-3.091570875564732705e+04
-3.091551827703205709e+04
-3.091580021039535859e+04
-3.091519379186351944e+04
-3.091584842924390614e+04
-3.091554468677086697e+04
-3.091537111486198773e+04
-3.091543959666930095e+04
-3.091537855935304106e+04
-3.091539407419701820e+04
-3.091560981014888239e+04
-3.091574279056078376e+04
-3.091560199775989531e+04
-3.091554954645234102e+04
-3.091581435487393173e+04
-3.091591064045936582e+04
-3.091578496140662173e+04
-3.091555012333372724e+04
-3.091546037011367298e+04
-3.091586069395991217e+04
-3.091573400373205732e+04
-3.091576838776759905e+04
-3.091584673860047769e+04
-3.091558069178869482e+04
-3.091573931212928437e+04
-3.091591140918102610e+04
-3.091557859406292482e+04
-3.091555686114507262e+04
-3.091592928842235779e+04
-3.091560840985094910e+04
-3.091502033369823403e+04
-3.091550516849096675e+04
-3.091540365940782431e+04
-3.091557151284388601e+04
-3.091588739023461676e+04
-3.091548400782856697e+04
-3.091549251601269862e+04
-3.091569567377338899e+04
-3.091560252103485618e+04
-3.091542684133199873e+04
-3.091550688308040844e+04
-3.091546222293696337e+04
-3.091528733426910549e+04
-3.091547913345294364e+04
-3.091578358559893240e+04
-3.091537961787596214e+04
-3.091498380050739797e+04
-3.091581164271506350e+04
-3.091540005689239842e+04
-3.091551118247943668e+04
-3.091573525028565928e+04
-3.091574826249844409e+04
-3.091584137006608580e+04
-3.091583776727854638e+04
-3.091585369655194154e+04
-3.091564910529542612e+04
-3.091558190541651857e+04
-3.091524964078476114e+04
-3.091544707272555388e+04
-3.091569728114997270e+04
-3.091541345469053704e+04
-3.091545487640690408e+04
-3.091543052167198402e+04
-3.091588581306266860e+04
-3.091572592467147479e+04
-3.091523843268688142e+04
-3.091565561371478543e+04
-3.091550177196573350e+04
-3.091549730059074136e+04
-3.091573273377665828e+04
-3.091521154674881473e+04
-3.091564193237400468e+04
-3.091535546831489773e+04
-3.091587256900886496e+04
-3.091574460964195896e+04
-3.091566629636079961e+04
-3.091581308818390244e+04
-3.091593281093630867e+04
-3.091562365448586934e+04
-3.091557089106370768e+04
-3.091583381754582661e+04
-3.091557130767003036e+04
-3.091530980733666365e+04
-3.091535809611846707e+04
-3.091587445584639499e+04
-3.091551817553359069e+04
-3.091558440995250930e+04
-3.091522459760176935e+04
-3.091585014900351234e+04
-3.091547130582558020e+04
-3.091576467286915431e+04
-3.091564371580826628e+04
-3.091564021070960371e+04
-3.091590013142200041e+04
-3.091575370613626728e+04
-3.091541317142000116e+04
-3.091548842423654787e+04
-3.091556813318971035e+04
-3.091512892998691677e+04
-3.091597188294947773e+04
-3.091535100891291950e+04
-3.091542214845632043e+04
-3.091539256015549108e+04
-3.091544237957776932e+04
-3.091514704079715011e+04
-3.091545771645928471e+04
-3.091583111300615201e+04
-3.091547920148140838e+04
-3.091573476483452396e+04
-3.091509773920754742e+04
-3.091512702355720103e+04
-3.091543949054488985e+04
-3.091530673544327146e+04
-3.091539645247218141e+04
-3.091570516809816399e+04
-3.091571371356190502e+04
-3.091574602599461650e+04
-3.091572032674510046e+04
-3.091573776053604161e+04
-3.091580035869741550e+04
-3.091561955590686921e+04
-3.091548943105784201e+04
-3.091579682448257154e+04
-3.091543348063812664e+04
-3.091519815629775621e+04
-3.091587162096417160e+04
-3.091575132323517391e+04
-3.091594728167940048e+04
-3.091525264056798187e+04
-3.091580741134450727e+04
-3.091569112947188842e+04
-3.091529498447823062e+04
-3.091590910138335676e+04
-3.091563942811013112e+04
-3.091578631898267849e+04
-3.091559508878892666e+04
-3.091586681624970515e+04
-3.091552667473796828e+04
-3.091590908859400952e+04
-3.091572179942532239e+04
-3.091546475740547976e+04
-3.091577081066943356e+04
-3.091572030225484923e+04
-3.091519854569269592e+04
-3.091568999203593921e+04
-3.091569713801808393e+04
-3.091552706141176895e+04
-3.091582764137749473e+04
-3.091526983299392668e+04
-3.091576259174233201e+04
-3.091553454862469516e+04
-3.091551536378105084e+04
-3.091532837829143682e+04
-3.091534047130359977e+04
-3.091541262964129783e+04
-3.091564044826500322e+04
-3.091553054827880260e+04
-3.091553178530841978e+04
-3.091535016236669253e+04
-3.091557683729583368e+04
-3.091593028680812495e+04
-3.091587511218502550e+04
-3.091534272631117346e+04
-3.091581571571535824e+04
-3.091547528957252507e+04
-3.091541059586229312e+04
-3.091562556445307200e+04
-3.091549203110579401e+04
-3.091552753352931904e+04
-3.091573468075134588e+04
-3.091561542521843876e+04
-3.091576149294655261e+04
-3.091553183755428472e+04
-3.091546969953744701e+04
-3.091574082208910841e+04
-3.091565799770433296e+04
-3.091550484032164968e+04
-3.091560403017833232e+04
-3.091526052452291697e+04
-3.091553504523248921e+04
-3.091550781534250564e+04
-3.091548826096823177e+04
-3.091523741906274154e+04
-3.091593055592873498e+04
-3.091569643814122537e+04
-3.091556787767479545e+04
-3.091544322585188274e+04
-3.091543903611474525e+04
-3.091556468414650590e+04
-3.091552091789709448e+04
-3.091555192064579023e+04
-3.091554832629377779e+04
-3.091560830372654527e+04
-3.091533896733027723e+04
-3.091554257707209035e+04
-3.091573730474532204e+04
-3.091541336897466681e+04
-3.091560865067172199e+04
-3.091546967014915208e+04
-3.091529161298747567e+04
-3.091593393395022213e+04
-3.091560262226121267e+04
-3.091538989997037424e+04
-3.091523151745729410e+04
-3.091547380682409130e+04
-3.091493723556691475e+04
-3.091492831866775668e+04
-3.091584910326994213e+04
-3.091544456029826688e+04
-3.091523689714835564e+04
-3.091538587595057470e+04
-3.091555477539231651e+04
-3.091527672291692579e+04
-3.091590496552476179e+04
-3.091592036118287433e+04
-3.091558704102144475e+04
-3.091563665526987825e+04
-3.091541103995211597e+04
-3.091583731992335379e+04
-3.091576169866463533e+04
-3.091580464748399754e+04
-3.091529457875646767e+04
-3.091565565915780098e+04
-3.091578809370929230e+04
-3.091541877233963532e+04
-3.091552259166946169e+04
-3.091536305947531582e+04
-3.091586500832519960e+04
-3.091584620961112887e+04
-3.091536070650675174e+04
-3.091548371149656668e+04
-3.091544815437815851e+04
-3.091583555363227424e+04
-3.091557699457764102e+04
-3.091571594407923112e+04
-3.091579894588224124e+04
-3.091540682001033565e+04
-3.091545168832088893e+04
-3.091560447154701615e+04
-3.091527219657493697e+04
-3.091535611730646269e+04
-3.091509793893912502e+04
-3.091560299859468432e+04
-3.091569722999256919e+04
-3.091543506379657993e+04
-3.091585538801170696e+04
-3.091564670878863762e+04
-3.091524646031793600e+04
-3.091576108123828089e+04
-3.091535386937384101e+04
-3.091558498356853306e+04
-3.091576474878892259e+04
-3.091564309348386087e+04
-3.091586787531685695e+04
-3.091532967790724069e+04
-3.091586511934765440e+04
-3.091530018811162154e+04
-3.091583256881531634e+04
-3.091542710555455415e+04
-3.091548834831678687e+04
-3.091560302662241156e+04
-3.091581077984200601e+04
-3.091529768820157551e+04
-3.091559499382119247e+04
-3.091579247964053138e+04
-3.091584485774946006e+04
-3.091545653358032359e+04
-3.091559442401476190e+04
-3.091556808829092188e+04
-3.091558361782905558e+04
-3.091569313250202686e+04
-3.091561468153125315e+04
-3.091526536025837049e+04
-3.091471440832779263e+04
-3.091581424194667852e+04
-3.091587590648539117e+04
-3.091557951925006273e+04
-3.091560029432711963e+04
-3.091553462481657698e+04
-3.091534441532192068e+04
-3.091534603848110783e+04
-3.091523191964158832e+04
-3.091585572951460199e+04
-3.091554336837920710e+04
-3.091543094290424415e+04
-3.091545603153024786e+04
-3.091521686603059788e+04
-3.091552200961791095e+04
-3.091581688852610023e+04
-3.091544346694476553e+04
-3.091555844430352226e+04
-3.091558368259215422e+04
-3.091566483728626918e+04
-3.091572636032577066e+04
-3.091552470164035549e+04
-3.091534292549852034e+04
-3.091549085176431981e+04
-3.091532168837212521e+04
-3.091520080369352945e+04
-3.091519769969069603e+04
-3.091550399078217015e+04
-3.091565863281809288e+04
-3.091577056603907113e+04
-3.091580534246280513e+04
-3.091538187941427168e+04
-3.091541609501134371e+04
-3.091543664069641090e+04
-3.091516507106167410e+04
-3.091519264027765166e+04
-3.091532305846542658e+04
-3.091501661879978201e+04
-3.091515482706321200e+04
-3.091587144953243842e+04
-3.091574446623795666e+04
-3.091586413483969955e+04
-3.091519731845917340e+04
-3.091581919659589039e+04
-3.091497251812243485e+04
-3.091580394325332600e+04
-3.091581549829637879e+04
-3.091529145624989542e+04
-3.091514974424837419e+04
-3.091580129422487516e+04
-3.091572559269256817e+04
-3.091582685007038162e+04
-3.091574506488845145e+04
-3.091565771334534656e+04
-3.091529258144071719e+04
-3.091588448814027288e+04
-3.091588210306227120e+04
-3.091560684519624556e+04
-3.091561138459969879e+04
-3.091546617838407110e+04
-3.091538539920708718e+04
-3.091547904338325679e+04
-3.091530108336623380e+04
-3.091539038814263768e+04
-3.091563692411837110e+04
-3.091574411657164092e+04
-3.091520126492652344e+04
-3.091583252201172945e+04
-3.091579171010252321e+04
-3.091543835229260731e+04
-3.091576375121949604e+04
-3.091535454067874161e+04
-3.091532205545372562e+04
-3.091542976628390170e+04
-3.091556855360563350e+04
-3.091539939756050808e+04
-3.091564771506569741e+04
-3.091560628300900498e+04
-3.091530929576260314e+04
-3.091540617428414407e+04
-3.091503978793460192e+04
-3.091547504711907459e+04
-3.091526786207321857e+04
-3.091562210125994170e+04
-3.091564710036048564e+04
-3.091504335888482092e+04
-3.091518286812462247e+04
-3.091546359275814393e+04
-3.091531687739904010e+04
-3.091526624843801619e+04
-3.091580328718680175e+04
-3.091585616435255724e+04
-3.091531152110976473e+04
-3.091554575100818329e+04
-3.091546093447782187e+04
-3.091559637969709001e+04
-3.091502351715830810e+04
-3.091579550826781633e+04
-3.091572267808098331e+04
-3.091571024955243411e+04
-3.091582095417932578e+04
-3.091552147192091797e+04
-3.091564240666847036e+04
-3.091544123724377641e+04
-3.091556928259866982e+04
-3.091521890579611500e+04
-3.091580276962623975e+04
-3.091571416799204962e+04
-3.091558154649833523e+04
-3.091554374253576316e+04
-3.091543784480024988e+04
-3.091581882951428634e+04
-3.091583911043256740e+04
-3.091560678832444319e+04
-3.091547519977494812e+04
-3.091479698291203749e+04
-3.091566968363415435e+04
-3.091572261032463211e+04
-3.091548242820759333e+04
-3.091582367967176833e+04
-3.091595085725555691e+04
-3.091517068123317949e+04
-3.091587882028062813e+04
-3.091587737943773027e+04
-3.091563752494577784e+04
-3.091563417604047208e+04
-3.091565322346661924e+04
-3.091558100308695066e+04
-3.091534848097513532e+04
-3.091544637829097701e+04
-3.091568751280654033e+04
-3.091562039537813325e+04
-3.091548415585850671e+04
-3.091558754279940695e+04
-3.091575096622178899e+04
-3.091551588106949930e+04
-3.091519001900481453e+04
-3.091560125543327740e+04
-3.091535276214253827e+04
-3.091530839560994355e+04
-3.091508073154691738e+04
-3.091584922408849525e+04
-3.091557362227054546e+04
-3.091507620955875245e+04
-3.091538730890217266e+04
-3.091532496816051207e+04
-3.091545723318506498e+04
-3.091547765505833013e+04
-3.091554685116453038e+04
-3.091551311584843279e+04
-3.091554940304833508e+04
-3.091554550011919855e+04
-3.091530381484518148e+04
-3.091537171949899493e+04
-3.091589211304281343e+04
-3.091539463937751134e+04
-3.091554344321051758e+04
-3.091550345553420266e+04
-3.091574107733190976e+04
-3.091584444576907117e+04
-3.091583591554370651e+04
-3.091588000860187094e+04
-3.091567168965755263e+04
-3.091570760814316964e+04
-3.091567081834896453e+04
-3.091562803089311637e+04
-3.091578399921200253e+04
-3.091579167880943351e+04
-3.091577561048585267e+04
-3.091555387741656887e+04
-3.091516593447895866e+04
-3.091584851822513883e+04
-3.091592227359909884e+04
-3.091540996891195755e+04
-3.091528925947468451e+04
-3.091525788991650188e+04
-3.091552616044276874e+04
-3.091572832308306170e+04
-3.091587250315731580e+04
-3.091540763662404061e+04
-3.091580091326546972e+04
-3.091563757555895791e+04
-3.091568426784872645e+04
-3.091575752062839092e+04
-3.091517997038409885e+04
-3.091581241143672742e+04
-3.091580138810415519e+04
-3.091569375645911350e+04
-3.091551482798885263e+04
-3.091524458490920006e+04
-3.091550985837338521e+04
-3.091546052549068554e+04
-3.091532887598768866e+04
-3.091575040022495159e+04
-3.091544601175360731e+04
-3.091579306822281433e+04
-3.091576019115383315e+04
-3.091565075920347954e+04
-3.091546959994377539e+04
-3.091572967140724722e+04
-3.091583470735815717e+04
-3.091585275748700224e+04
-3.091545057782421645e+04
-3.091530864296144500e+04
-3.091583192608237005e+04
-3.091588661579856489e+04
-3.091571525263790681e+04
-3.091597245302801821e+04
-3.091491899441414716e+04
-3.091515464719594456e+04
-3.091546375221687049e+04
-3.091543788643367589e+04
-3.091559247105357281e+04
-3.091547361688861201e+04
-3.091549776345642022e+04
-3.091585305844493269e+04
-3.091571716342144646e+04
-3.091565076709477944e+04
-3.091567475148273661e+04
-3.091564385703535663e+04
-3.091568325585727871e+04
-3.091576216506779383e+04
-3.091530380994713414e+04
-3.091532537061691619e+04
-3.091569631922747067e+04
-3.091553005085466430e+04
-3.091557131882670001e+04
-3.091553186313298283e+04
-3.091541212323740547e+04
-3.091559799823034700e+04
-3.091562329121386210e+04
-3.091531828014599523e+04
-3.091569920553921111e+04
-3.091571156603929921e+04
-3.091535135340907073e+04
-3.091544326449205255e+04
-3.091554142058817160e+04
-3.091523731865272930e+04
-3.091520239147790926e+04
-3.091524859096948057e+04
-3.091578704090075553e+04
-3.091550314641285149e+04
-3.091587145551894355e+04
-3.091587983499322581e+04
-3.091551920439609967e+04
-3.091548133648677685e+04
-3.091550637096212449e+04
-3.091581411269259479e+04
-3.091592283796325137e+04
-3.091538464490745537e+04
-3.091535827652995795e+04
-3.091558358490327737e+04
-3.091527521159653043e+04
-3.091518501809625013e+04
-3.091543516420659580e+04
-3.091552375740525167e+04
-3.091570785032450658e+04
-3.091528025196160888e+04
-3.091571671361723202e+04
-3.091500653834174955e+04
-3.091561369348581866e+04
-3.091577624832074434e+04
-3.091588882536313031e+04
-3.091559022039981573e+04
-3.091576975922147176e+04
-3.091545220152763795e+04
-3.091505501025618287e+04
-3.091517410850727902e+04
-3.091546413562530142e+04
-3.091528849782797988e+04
-3.091534845185895028e+04
-3.091518431604248326e+04
-3.091532753337788745e+04
-3.091533173536015602e+04
-3.091550535298416435e+04
-3.091541016945986848e+04
-3.091550262177732657e+04
-3.091569994732160194e+04
-3.091566294364589703e+04
-3.091567800514818737e+04
-3.091526494991066647e+04
-3.091564717927350648e+04
-3.091587195729690575e+04
-3.091555876675845138e+04
-3.091561778036392207e+04
-3.091545637874754175e+04
-3.091589847833028398e+04
-3.091539177456276957e+04
-3.091540882957121357e+04
-3.091545712896545956e+04
-3.091580003733094782e+04
-3.091575556385760501e+04
-3.091530495146478643e+04
-3.091567153074305315e+04
-3.091584311540439739e+04
-3.091566339862027962e+04
-3.091544241549680009e+04
-3.091580034209846781e+04
-3.091539388017983947e+04
-3.091585082819971285e+04
-3.091556411951024347e+04
-3.091571139052585931e+04
-3.091580483116085816e+04
-3.091591002901951651e+04
-3.091580556369137412e+04
-3.091589038457555944e+04
-3.091561462547579504e+04
-3.091536538060656676e+04
-3.091591031120159096e+04
-3.091564879753464629e+04
-3.091576959949063166e+04
-3.091523268618633665e+04
-3.091582757307691281e+04
-3.091592424397557988e+04
-3.091560191340460005e+04
-3.091558927317146299e+04
-3.091564483855006256e+04
-3.091572112431082860e+04
-3.091541549227913129e+04
-3.091548176044017237e+04
-3.091574413779651877e+04
-3.091548357952134756e+04
-3.091555157968711865e+04
-3.091553746840643726e+04
-3.091460207591577637e+04
-3.091536583966265607e+04
-3.091543618408935072e+04
-3.091514304398874083e+04
-3.091593846736716660e+04
-3.091577056522272687e+04
-3.091559429857026771e+04
-3.091586658332023580e+04
-3.091540727634528594e+04
-3.091522469148105665e+04
-3.091574189993211621e+04
-3.091545938859897069e+04
-3.091561164011461005e+04
-3.091554013485017640e+04
-3.091564367063736427e+04
-3.091574055786654571e+04
-3.091579524295680312e+04
-3.091552629051319309e+04
-3.091560781528216103e+04
-3.091547128977085958e+04
-3.091577909789711703e+04
-3.091563262281454445e+04
-3.091553180217947738e+04
-3.091555302706075236e+04
-3.091538585146032710e+04
-3.091572511213948746e+04
-3.091554837173679334e+04
-3.091584726024274642e+04
-3.091570803318501930e+04
-3.091552672018098747e+04
-3.091524369754589134e+04
-3.091552833109504718e+04
-3.091532363099298891e+04
-3.091549100768555945e+04
-3.091585577985567215e+04
-3.091560746561584892e+04
-3.091561373566346447e+04
-3.091577740725368494e+04
-3.091548225840853775e+04
-3.091563026821329186e+04
-3.091549495115966056e+04
-3.091545469871655223e+04
-3.091551204263135514e+04
-3.091511641900786708e+04
-3.091592915971250113e+04
-3.091590785238073295e+04
-3.091585000124568251e+04
-3.091558145642864838e+04
-3.091575603461458741e+04
-3.091564657218747743e+04
-3.091548377081739090e+04
-3.091554123936034739e+04
-3.091568951828570789e+04
-3.091583249588879698e+04
-3.091572310285072308e+04
-3.091578888855388141e+04
-3.091572114308668461e+04
-3.091505285484228079e+04
-3.091559894817984241e+04
-3.091587968995653500e+04
-3.091566944662298192e+04
-3.091584720826900593e+04
-3.091576708951235923e+04
-3.091581922571206815e+04
-3.091556749862018114e+04
-3.091578753750855685e+04
-3.091552086973294354e+04
-3.091577755147403514e+04
-3.091578810105636512e+04
-3.091579939867970825e+04
-3.091563243723289270e+04
-3.091542566552799690e+04
-3.091548619888938629e+04
-3.091547740879528283e+04
-3.091525976668581279e+04
-3.091559401285071726e+04
-3.091553142448544168e+04
-3.091537756749800610e+04
-3.091543507168787619e+04
-3.091553338424947287e+04
-3.091544506479736447e+04
-3.091557211203861152e+04
-3.091557515073411196e+04
-3.091584683547300665e+04
-3.091596457941340850e+04
-3.091568476772189752e+04
-3.091541456790834127e+04
-3.091537023130827947e+04
-3.091576140532589125e+04
-3.091593185717722372e+04
-3.091505898747239553e+04
-3.091576310630964508e+04
-3.091498680790980870e+04
-3.091586804974184270e+04
-3.091555982310446780e+04
-3.091529647892756839e+04
-3.091542292262026604e+04
-3.091547085520501787e+04
-3.091530330191055327e+04
-3.091527181371073311e+04
-3.091583183383577489e+04
-3.091573592730494784e+04
-3.091520888438678230e+04
-3.091589427770858674e+04
-3.091555736890953995e+04
-3.091578693940228914e+04
-3.091591153462551665e+04
-3.091536698879949472e+04
-3.091548171254813133e+04
-3.091558588807501292e+04
-3.091529870318627582e+04
-3.091580688670897871e+04
-3.091557995844183097e+04
-3.091587651139450827e+04
-3.091546945545131166e+04
-3.091579882424734387e+04
-3.091555085205464638e+04
-3.091549167762988873e+04
-3.091532997369501390e+04
-3.091560756194415808e+04
-3.091555921084827787e+04
-3.091526194223614584e+04
-3.091566921559831098e+04
-3.091548318141876371e+04
-3.091555637188434775e+04
-3.091561817846649865e+04
-3.091593415572302183e+04
-3.091549056141882465e+04
-3.091541176704035752e+04
-3.091569253249096073e+04
-3.091559952288431668e+04
-3.091565683659448041e+04
-3.091568717756226397e+04
-3.091532138278826096e+04
-3.091585506909426113e+04
-3.091554996169808874e+04
-3.091561501269382279e+04
-3.091585700600072960e+04
-3.091551968957512145e+04
-3.091558415171645538e+04
-3.091520555398522265e+04
-3.091550570210624937e+04
-3.091574633239482137e+04
-3.091547999006738246e+04
-3.091567954721744536e+04
-3.091556711058581641e+04
-3.091544511595477525e+04
-3.091537440226956096e+04
-3.091571076928990806e+04
-3.091566563866159049e+04
-3.091582027416677738e+04
-3.091549021991593327e+04
-3.091581187836567187e+04
-3.091544579487885858e+04
-3.091544957263561082e+04
-3.091520685360102652e+04
-3.091555325536428063e+04
-3.091534004000312052e+04
-3.091547845588942801e+04
-3.091547179127670461e+04
-3.091562482185433691e+04
-3.091590376114881292e+04
-3.091543885026097632e+04
-3.091587081795616177e+04
-3.091585100425738347e+04
-3.091567785630189974e+04
-3.091551719592368318e+04
-3.091569513634850955e+04
-3.091412795751118028e+04
-3.091553735547918404e+04
-3.091508015874723787e+04
-3.091549964730069041e+04
-3.091561926066333035e+04
-3.091590730515975156e+04
-3.091523234522766506e+04
-3.091532250825119263e+04
-3.091485247128241826e+04
-3.091585644299715204e+04
-3.091527933303309328e+04
-3.091554701742609905e+04
-3.091528347242916789e+04
-3.091394747282173921e+04
-3.091561261264955829e+04
-3.091551999270996384e+04
-3.091534627658073441e+04
-3.091543599360964436e+04
-3.091555986174463396e+04
-3.091527859859777891e+04
-3.091524069340885035e+04
-3.091568805839483321e+04
-3.091558745000857743e+04
-3.091526314144193384e+04
-3.091566712658019605e+04
-3.091551596460845758e+04
-3.091571101255970279e+04
-3.091526205625185321e+04
-3.091548847784298050e+04
-3.091527684536816378e+04
-3.091524099844848752e+04
-3.091568706762825968e+04
-3.091547331021628997e+04
-3.091557958591795614e+04
-3.091563758290603073e+04
-3.091530526684475262e+04
-3.091558914146834650e+04
-3.091549289207406036e+04
-3.091559760393735996e+04
-3.091566259479592918e+04
-3.091568587767433928e+04
-3.091556937702217692e+04
-3.091571367519384512e+04
-3.091558411117148717e+04
-3.091542022216229452e+04
-3.091531356550121927e+04
-3.091584625940796468e+04
-3.091545438388081311e+04
-3.091549507034552516e+04
-3.091549144660521779e+04
-3.091542912327884551e+04
-3.091556117278922466e+04
-3.091532322445487807e+04
-3.091548404456393109e+04
-3.091570727698060000e+04
-3.091505446494000353e+04
-3.091537394783940908e+04
-3.091544704905165054e+04
-3.091555749326557634e+04
-3.091559237608583135e+04
-3.091548407286377915e+04
-3.091585215312211221e+04
-3.091552253370920880e+04
-3.091564337621016239e+04
-3.091507416407885103e+04
-3.091567689084191807e+04
-3.091574986443275338e+04
-3.091590296630421653e+04
-3.091531072136712464e+04
-3.091539562334123912e+04
-3.091574932700787758e+04
-3.091592810363860190e+04
-3.091573683181142405e+04
-3.091575611325549107e+04
-3.091541079151216400e+04
-3.091572636087000137e+04
-3.091539623913491232e+04
-3.091543537210158320e+04
-3.091540686790237669e+04
-3.091544842404299925e+04
-3.091561298272440763e+04
-3.091541979603198706e+04
-3.091531443925882922e+04
-3.091556556253005328e+04
-3.091524698604192236e+04
-3.091560856522796894e+04
-3.091492154738640238e+04
-3.091584740310252892e+04
-3.091563796223275131e+04
-3.091569651106774472e+04
-3.091543119814704914e+04
-3.091570908027916448e+04
-3.091564296722302606e+04
-3.091562816150777508e+04
-3.091557948278680124e+04
-3.091564255252149815e+04
-3.091581317770936221e+04
-3.091577076277739252e+04
-3.091553825998566390e+04
-3.091578647599238320e+04
-3.091567483121209443e+04
-3.091567720322863170e+04
-3.091548474416867248e+04
-3.091583338978283791e+04
-3.091545534607542868e+04
-3.091584471325699633e+04
-3.091579941174117266e+04
-3.091583269289923555e+04
-3.091534688992538577e+04
-3.091531760231036969e+04
-3.091567515203433504e+04
-3.091533567611311082e+04
-3.091546679744310677e+04
-3.091588745853519140e+04
-3.091566194879762043e+04
-3.091574962987061008e+04
-3.091559838490414404e+04
-3.091586224283201227e+04
-3.091597160675390842e+04
-3.091526143583224257e+04
-3.091559507681591640e+04
-3.091571637320279478e+04
-3.091507327889245425e+04
-3.091534774218599705e+04
-3.091521351358781249e+04
-3.091521950063701297e+04
-3.091540125364916821e+04
-3.091539979430252788e+04