1.591903796105108293e-01 1.495822691466942855e-01 1.088362970536006918e-01 4.315771847980075931e-02 -1.020763520631628868e-01 -7.737010552348733139e-02 -2.718231679058886741e-01 1.933814264961947540e-02 1.657149657981095148e-01 1.350773894633096328e-01 -1.951535337855638819e-01 -2.506620101200984774e-01 -1.261131347063641772e-01 1.427517730796789598e-02 2.440898585200842186e-01 4.807742194146329140e-02 -2.292997406284084244e-02 -2.593006603457839176e-01 1.243339311716832804e-02 1.369642193852184664e-01 6.869165461757527347e-02
3.194549662106021398e-02 1.473578533518033751e-01 1.612925137289430433e-01 4.514656978358261297e-02 -8.643571317542862731e-02 -3.792115223834910398e-02 4.918155657431495797e-02 -2.059682116406449659e-01 -2.541119166270852311e-02 -7.635009739302692222e-02 8.019291991760023330e-02 -2.805947955980678254e-01 -7.021709024926046927e-02 -1.665708346891854874e-01 1.147005210506683859e-02 -9.522492721468470492e-03 2.035924092791037421e-01 -2.524134457383421515e-02 2.981600596273060316e-02 2.783157695675170587e-02 1.964059696610172545e-01
1.084157159637118284e-02 1.103427579423871541e-01 1.370827472507514244e-01 5.990578301270516048e-02 -9.279266342305447779e-02 -5.488894326557984538e-02 7.553150950087128557e-02 -9.722452573056911129e-02 -2.106170750729096861e-02 -1.098338337405739551e-01 6.221123998593876964e-02 -2.094062910721120885e-01 -2.461168135758660599e-02 -2.569063460399512167e-01 4.606897882997294802e-02 -1.373246880782275255e-02 2.428555746344499833e-01 -1.070373988670763887e-01 1.899171218103146500e-03 3.151396263079888488e-02 2.092426660534024152e-01
2.260319196623553628e-01 2.189151055236318866e-01 -2.113668088167144909e-01 -1.560709627311944736e-01 7.892608586325346176e-02 7.881449997682984931e-02 -1.833703727116337001e-01 -2.865525049138075153e-01 1.915883390032952502e-03 5.451906433422263470e-02 7.632387213861399622e-02 2.373519221745263100e-02 -5.375215561988071211e-02 5.427085001451440859e-04 3.782257613499698246e-02 2.970493429698173662e-02 -5.351725961564886280e-02 2.249432630718140730e-02 8.293752134708165524e-02 -3.463795607412064465e-02 4.658438221228815984e-02
8.639020464571207925e-02 2.761488436440646954e-02 -9.397830203285613415e-02 -3.486909826742672774e-02 2.823066362243547428e-02 1.617655967497252587e-02 1.063603759266830706e-01 -9.340972823277038373e-02 -4.096101917927958552e-02 -8.691985194071824572e-02 -1.125238249343955138e-02 -3.501225730328082208e-02 3.999757532304314134e-02 5.333903072977591586e-01 -6.085246327494431978e-02 -2.841900722898101361e-01 -3.621397559358230933e-01 1.488888939888435015e-01 1.732308151804493046e-01 -1.224339372005005255e-01 6.573863954861229597e-02
-1.657436593117612988e-01 2.427974162761342702e-01 -1.864804821967368242e-01 -2.680203517498119248e-01 -8.868193192692949700e-02 -1.705134674467303213e-01 2.327877508873950896e-01 -4.761590888586326314e-02 9.825327561250048192e-02 -1.255092853679896647e-01 2.083817577997137613e-02 1.640257508815121945e-01 7.667925004694288449e-02 -1.727894595753000015e-02 5.298581254828103188e-03 2.808845075262294544e-01 -1.592953834722975193e-01 1.345586436466084668e-01 -3.107816060893702284e-02 4.923662960858210536e-02 -4.514230175198207656e-02
3.694469859904114632e-03 1.587211532447893592e-01 -2.187957549050193254e-03 -8.276047516876067212e-02 1.185732712185129240e-01 -5.462926182482441377e-03 2.934213104210926515e-01 2.274934890862350123e-01 8.768845758328688844e-02 2.543033095622320716e-01 8.493999949874474209e-02 -1.280594599603431250e-01 -3.514396978691467499e-01 -4.026644588725660778e-01 -1.690370884674175511e-01 -1.589147059067702594e-01 -4.760212777177960652e-02 1.967694208339399453e-01 4.169578910144880468e-02 -1.394613264039363254e-01 2.028955374206645526e-02
3.336392293032718753e-02 7.718555172331478809e-02 -5.255623259658379759e-02 3.068251922177417379e-02 8.863488073518865917e-02 -3.560319970271875328e-02 -3.037388397278126262e-02 -1.572605094181243196e-02 7.757574237132515427e-02 3.986053551321873389e-02 -1.945645968467575038e-01 2.195074363188916772e-02 -7.055601309599693338e-02 6.959195217495078856e-02 -2.603684395769298096e-02 1.249969673097230394e-01 -2.029048962369452425e-01 8.475128051110662752e-02 -1.279740479062649317e-01 1.777831593920609632e-01 -7.008143883525792817e-02
-5.657743827323249292e-02 -2.867019374418937061e-01 -3.788453972630595468e-02 -8.678152657920693014e-02 1.809614545386377393e-01 7.272864686893919239e-02 -3.250322036490845001e-02 -3.263244402047645043e-02 -1.186525640465614234e-01 -5.897026133910836937e-02 -6.537441704467747763e-03 2.010176035164291594e-02 -9.442186878690690677e-02 5.510645861100471089e-03 1.563847916090024956e-03 1.709962692382655802e-01 5.202627676917278773e-03 -1.721161390237649913e-01 1.582580461050975829e-01 1.341970950901824333e-01 2.342590390820277202e-01
2.325425190476004822e-01 1.668527304630907093e-01 -2.732625229966185731e-01 -1.106809094581114594e-01 2.205520241976057227e-01 2.062494903497404386e-01 3.992383607828209335e-02 -2.883667268764397718e-02 1.112704120396600660e-01 3.683912909451225043e-02 -3.727040597443619097e-02 -6.592489027701153859e-02 2.101017231126619256e-01 3.128426025538214028e-02 1.280468615538114252e-01 -1.673553297506042981e-01 -3.589702539627848132e-01 -2.352676829355758448e-01 -2.413709681243409733e-01 6.388369130853879460e-03 1.288883322659939989e-01
5.027885207219227881e-02 1.466452977627839271e-01 7.715531554763870037e-02 5.030554012521248897e-02 -1.831654043506730604e-03 2.084563712196219332e-01 -2.862625358753085117e-02 1.005611494229054770e-01 -1.639018751209617430e-01 3.511340451000675295e-02 -1.041757608120188611e-01 1.180207411034798065e-01 -4.610965368534672426e-02 -1.364474790291488882e-01 5.681202574505949537e-02 -1.446641597691235293e-02 -4.858860871424544592e-02 -2.320048499100680339e-01 -4.649547345762159584e-02 4.383700399116301910e-02 -6.453778000683764449e-02
1.378450794010879429e-02 -5.266432178241903933e-02 2.450652322959751689e-02 -7.878570361904309316e-02 -2.624557641399288266e-01 1.490800298136530089e-01 1.039073890418598933e-01 2.760062502509528226e-01 -1.661408947830159133e-01 1.496883014498304743e-01 5.722468783655700747e-02 -9.831127970461378193e-03 -7.061859375211562706e-02 4.620324184815363840e-03 -3.258487860806084935e-02 -5.112741902968660768e-02 -9.399455140617865578e-02 -5.978735799130718842e-02 -6.684853345302131655e-02 7.126337505620126966e-02 9.475770630959479135e-02
-8.046730806965390892e-02 1.129606039755394337e-01 2.022183087920013597e-02 -3.901032304956516227e-03 5.389989121974019665e-02 1.867279251854329220e-02 -6.416497001763429853e-02 8.375698341438438110e-02 -2.234370592933650479e-01 9.186444368303932351e-02 5.786196151879111071e-02 2.950197139665268128e-02 -6.110679682068222845e-02 -3.271274472104748199e-01 -7.421746998858125667e-04 2.363300114275692643e-01 1.717817927410339174e-01 1.260850582575220868e-01 -1.185543993197491208e-01 -1.531338370810816918e-01 2.969758094133262416e-02
-7.628124324467612516e-02 1.068972223111359227e-01 6.110211741254188700e-02 1.696743107275841544e-02 4.407231137193468734e-02 1.518694198639063131e-02 1.736178690823436330e-02 8.776528215209651596e-02 -2.215529033189649610e-01 -3.132010143641313776e-02 2.018418992580746363e-02 -6.113338202956749429e-02 2.497329162049362616e-01 -8.925353962899634785e-02 1.526263012750903592e-01 4.741808819228184035e-02 -4.424226130494394310e-02 3.786114268560422658e-02 -2.238788776971216143e-01 -1.254232562491017777e-01 1.590988483304029907e-02
1.234737428269393061e-01 -7.603997090407718651e-02 1.355309835205183167e-01 -1.187730459506584485e-01 -9.320455418353985888e-02 2.601663508517478365e-02 2.260001408246549992e-01 1.330379902671985637e-01 -2.422149070957624606e-01 -1.192250973458428287e-01 1.194427669574701367e-01 7.480800101147938586e-02 -2.335034946445980683e-02 3.347885125113677501e-02 7.829302879055241582e-02 6.715824856543123333e-03 -1.519182194059413293e-01 -3.821497793190882508e-02 -9.484116432510887595e-02 3.520313601775294093e-02 -3.421881480212111276e-02
-5.205203922497842611e-02 -2.015230824397214356e-03 2.791889162732651142e-02 -1.896589830315835098e-02 1.421468438778874799e-01 5.792279382461561210e-02 7.594370879376151351e-03 -7.715726958620280386e-03 -1.383258243099241280e-01 1.218024742118912485e-01 -1.318787311780122706e-01 1.308794461407448290e-02 -2.117293343924225857e-01 8.392765325633831652e-02 9.624256993004117605e-03 6.582389733648805197e-02 6.123643185279005474e-02 1.128174449396853254e-02 8.752658091487142134e-02 -1.457012400259860840e-01 1.849014133486738196e-02
6.298781604896623587e-02 -8.669606310306127162e-02 -2.130498530852146730e-02 -4.884669607090912080e-02 9.641642794017864226e-02 2.573980438491598188e-01 8.642923399492660752e-02 -6.598412849874428499e-02 1.112958659630608471e-02 1.631982155496156800e-02 1.152898693660145552e-01 -1.145699089992785330e-01 -3.486159064557518145e-03 -2.217637337956178956e-01 -6.794510904195397161e-02 -2.551742965411461436e-02 -4.441807335364550413e-02 4.758870661216828973e-02 -8.788658680927316502e-02 2.071557014448757172e-01 -1.122962822858127735e-01
-8.720730129791090524e-02 -7.063859693636392878e-02 3.792151219282143687e-02 1.669346458165804903e-01 1.287444018991277736e-02 1.055773206831535915e-01 -7.102302831281694095e-02 1.976962521781332541e-02 -3.194693643894955248e-02 -9.740023493513572106e-02 8.282449564276868348e-02 -1.236371621573790873e-02 1.418156857633399159e-01 -2.437301097360198565e-01 -2.276099086470013966e-01 -3.295177505950443869e-02 2.667741893665906971e-01 1.546142784037251028e-01 -2.016794055248494547e-02 -6.787404374470168422e-02 -2.619249855594381685e-02
-9.362755211060010130e-02 5.563420328951425298e-02 1.690117888102191934e-01 1.662329402837985359e-01 -5.361830397823984413e-03 -1.640445199361410533e-01 4.797570909199511818e-02 3.419464643040723631e-03 -9.489320345739492291e-02 8.384506941597133500e-02 -5.117457306556240371e-02 1.164052140095760551e-01 1.371249133460819836e-01 1.211910144075302453e-02 -9.482373224423440439e-02 -3.739690426042795862e-02 -1.189475724476731083e-01 -2.451413369558401445e-02 -3.041541757668189128e-01 1.043112579598189787e-01 9.285858651355913262e-02
-2.544117072804721880e-02 1.904919691026324968e-01 3.887144747193184702e-01 -9.099057706834662307e-02 1.436732565288547335e-03 3.640615528636158282e-02 6.160301977182878336e-02 -9.747536257571862151e-02 1.180698491779196974e-01 5.349216564672040763e-02 -8.216007110890707898e-02 -3.822483554224404001e-01 -1.236977887749336619e-01 9.851305989739088387e-02 -1.755262448505250372e-01 4.107178231262359480e-02 -5.064425728367905055e-02 -3.088553354417070476e-02 8.396256884015473876e-02 -6.016212201907465001e-02 4.546965463353636744e-02
1.612597578719606184e-01 -5.675037068615537000e-02 1.344635642438447333e-03 6.091535246346787419e-02 1.965391013937135001e-01 4.623358086796467087e-04 -8.387643687713189355e-02 1.792352157334574717e-02 -8.755820548636936151e-02 -5.028286299345543359e-02 -5.483433302992000297e-02 3.416003937899567133e-02 -2.752674694075204695e-02 -1.513703686990485742e-01 -2.011322747269013445e-03 5.268622758316395677e-02 -3.179508707369196191e-02 9.892834451432968787e-03 -1.131752396851856135e-01 8.028753652175668609e-02 4.370978579622659260e-02
-1.842313838094573053e-01 -1.625159989804072502e-01 -7.468253116683713777e-02 -1.386406302070141705e-01 -1.699649996750278447e-01 1.057306612883679858e-01 1.691635867534093118e-01 -2.607494770969293746e-02 2.220219239964165148e-01 8.095890303472759453e-02 2.330068088948442362e-01 7.629029352855194734e-02 1.725184138576322801e-01 1.108381581404540850e-01 3.917926511005188628e-01 -1.021038628692627348e-01 -1.473077682580814507e-02 -3.012608102961284937e-02 2.334973239965009405e-03 2.944180757770538046e-02 -6.910268662953378271e-01
4.647121766839301671e-01 -3.499150849905411920e-01 1.749707836776457498e-02 -1.376321920417359346e-01 4.724491923784855940e-01 1.849472818328627144e-01 -2.169370528540200405e-01 -1.721179902181941279e-01 1.094642119195541122e-02 1.280203277669936246e-01 5.196595868402305307e-02 -1.078888968824168598e-01 -5.417566776761573166e-02 -9.115507626220339943e-02 -1.703380667745685861e-01 4.872590563440723499e-02 1.229218811987833893e-02 7.439379625795757012e-02 -2.327134974219592922e-01 7.648076086648426808e-02 -9.557613993554800458e-03
-2.296909597177683171e-01 -1.962188961795384087e-02 -3.227120399645526383e-02 -2.638677112686937942e-02 -3.707947583789659995e-02 1.150807872396558268e-01 -7.356286706960761534e-02 1.082965196113016976e-01 -1.014413409518977321e-01 3.554303588377145245e-02 5.221088199141279973e-02 1.231284950659032595e-01 1.156264267976471055e-01 -8.180150503239466686e-02 -5.026640793186300943e-02 1.092299844021994426e-01 1.905333638669509388e-01 -2.590030808412984165e-01 6.924109940855979750e-02 -2.125378435593528736e-01 2.047727514159553286e-01
1.670922544533954279e-01 -5.344640000666648488e-02 2.223593041811286822e-02 3.388711675586507099e-01 -8.637961169981196730e-02 -2.740881042899509512e-01 -1.604199326659372649e-01 9.124799593813312515e-02 6.907937700634675382e-02 1.120599978857590544e-02 8.201830046887485792e-02 -1.390142629492971682e-01 1.856084667764732951e-02 6.370916481152413824e-02 -9.808553682839270607e-03 -3.619067111260204084e-01 1.618049860534121198e-01 2.823951850245489670e-01 -1.340362468631164754e-02 -2.589544355654658236e-01 4.920047989514624714e-02
-1.015681477702943536e-01 9.788020851295974045e-02 7.167660279044103799e-02 4.443648245380203005e-02 -3.477700134457662601e-02 -1.257738519051553872e-01 -1.056282285299551538e-01 3.392092676523075084e-02 -9.893194405905303412e-03 3.394447807213490931e-02 -1.048718099173783919e-01 6.933540748031138956e-02 1.621385095830635836e-01 2.092991274834914150e-02 2.082604531425371330e-01 -1.003265619510784606e-01 -8.280927471079570223e-02 -2.562246436914175640e-01 6.700346814232749360e-02 6.972703794621108730e-02 4.261927801125614534e-02
2.630238751414072911e-03 -2.451711617549764272e-02 9.266657651360252212e-02 -4.908339184750264844e-03 -3.873670622852362633e-02 -1.855076795242197041e-02 8.701189744150086836e-02 -8.629831341113189391e-02 -7.392899219003906675e-03 -1.068408123031144019e-01 1.097735670774916822e-01 -3.021596680356146425e-02 -1.133696151002461100e-01 -5.473364862180134889e-04 3.994173095776384907e-02 1.619433114149234354e-01 6.467800798484558966e-02 -8.933432369700165798e-02 -2.646668101972758994e-02 -2.435210276096611004e-02 1.288565020062261771e-02
-1.952240334400739408e-01 3.754520550302967857e-02 -1.334145540673276932e-02 -1.510316001185145474e-01 3.316877618425453228e-02 2.424859013913626890e-03 1.735783769345217997e-01 3.744791495136447212e-02 -4.381468681387829314e-03 1.961911796851686651e-01 4.593379021457769107e-02 2.789595738523206747e-02 7.731827207947118696e-02 -1.307343844883941120e-01 -4.786062650498310034e-02 -2.262314887062309710e-01 5.969073592651916345e-04 1.114424188553683748e-02 1.253992935656578211e-01 -2.395820972409745328e-02 2.411849230842116193e-02
-1.035140616477334963e-01 -1.595650407941433535e-01 6.781758231461267050e-02 8.011815223148964840e-03 -4.183725120907617889e-02 1.005692226874992518e-01 -1.137151199716195521e-01 4.378774165052069789e-02 8.737905100328183239e-02 -2.050917739225784422e-02 3.367194111451038419e-02 -1.059438571801248410e-02 1.431793475707446028e-01 2.392833350289370886e-02 -9.742070091799129306e-02 7.864223605078414503e-02 1.911553651951445817e-02 -1.398412326384514404e-01 7.904960166933159074e-03 8.089873921578027982e-02 -7.909536730938554472e-03
-5.126598607491505977e-01 -3.371954252237321925e-01 1.443989247450806479e-01 1.129534048860927481e-01 -1.287157083854759687e-01 -4.984654675091880482e-02 -1.523513474802944412e-01 8.834851124141300527e-02 8.404124460339351677e-02 3.460196062688720986e-02 1.666771755247265230e-01 5.955194776640056198e-02 3.251991711021800513e-01 3.515510266452330224e-01 -2.043263050261258651e-01 1.676167081195864550e-01 7.015713211858308485e-02 6.289772458674770805e-02 2.464001491676606065e-02 -2.108227119207475020e-01 -9.671698992457777866e-02
-9.109121005439781149e-02 1.875074837283740442e-02 -1.350821717155849429e-02 -2.030832279669531407e-02 -7.536983852072572099e-02 3.632069181021593124e-02 8.641216186852447578e-02 5.396869394602352155e-02 4.144649491832357729e-02 -1.221232450688085752e-01 3.363359567879328771e-01 1.025273750169977544e-01 -4.793827382687235183e-02 -3.251885267342125019e-02 -1.526392082140269335e-01 2.374051440143642999e-01 -2.799881180459821151e-01 -7.354342952810156986e-02 -4.235630555818221260e-02 -2.117853844459717874e-02 5.939634459021720519e-02
6.593543180084419919e-02 7.444578396817615185e-02 3.624453572828349734e-02 -6.677741673370155007e-02 1.109440361773878364e-01 -7.507246470451012232e-02 1.888006973033361235e-01 -5.958274958481888858e-03 -1.931760467586942920e-01 -8.784987145309507139e-02 9.833339119362859843e-03 2.891493707434294666e-02 7.143450769676248924e-03 -7.764727046718471193e-02 -2.570085216880266601e-02 8.333542530521347025e-02 -7.948530084705851539e-02 1.936057809765939497e-01 -1.905876655702059275e-01 -3.213236441426918499e-02 3.518410985278669356e-02
-3.001207830601783366e-02 -1.159006092614308925e-01 1.150241201212969105e-01 -8.792577042469013060e-02 5.973341624252452749e-03 -4.421228223960524395e-02 8.312089243970223473e-02 2.489663674450666442e-01 -2.454580968914943113e-03 1.307956795928258975e-01 -2.680118156866109075e-03 6.641777079377212886e-03 -8.086834877390178256e-02 1.399466992988453867e-02 3.981800946341581410e-02 1.047109102682449860e-01 -4.985868235884322042e-02 -8.685973954383842399e-02 -1.198212847961633715e-01 -1.004949692220634544e-01 -2.795735533379880081e-02
1.135322116776062568e-01 -1.648612052118000534e-02 1.406046446522049853e-01 -1.297909438164059626e-01 9.640429233225422667e-02 -1.466340877520740937e-01 -1.516724219234045212e-01 -1.909145042310854690e-01 1.208744087380785176e-01 1.755476364305951775e-01 -7.266066689573548454e-02 -9.660324431132012724e-02 -3.683686652354329488e-02 -8.276073227909803987e-02 1.198623196060094598e-01 1.595781019992823305e-02 2.618730492712870728e-01 -2.046857452777853803e-01 1.326252253315660969e-02 4.544682323557687996e-03 6.658170434488665246e-02
5.446013464489476291e-02 -1.527134616794627309e-01 -1.679300741987872075e-02 -1.254504071007292720e-01 -9.434869518488811155e-03 -1.633833349925304518e-02 -2.295481092143190579e-04 -1.590566308130049178e-01 -5.787898222312578417e-02 -1.073761674476104294e-01 1.107307374414960160e-01 -2.666972619536460698e-01 1.086064918340489960e-01 1.445141101762275893e-01 1.043446823036785903e-01 2.692879571351708967e-01 1.271470267950431665e-01 1.649204948556002859e-01 -1.992984095344931539e-01 -6.118696382387783100e-02 8.844240793662477840e-02
1.202371350558444074e-02 1.165763980722047712e-02 -2.592798344084559781e-02 4.052434298227062387e-02 -2.395121632292067648e-01 -4.581050066559644862e-01 -8.161988229006827966e-02 7.034076032154104249e-03 1.155635890311910441e-01 -2.020702132376695284e-02 1.135438844869234021e-01 -1.257763201643942279e-02 9.602382045499689711e-02 2.289316100473453852e-01 3.319617386180591656e-01 -8.707792337614046752e-02 1.064067072094792565e-01 3.398438159649654067e-02 4.033295004712374177e-02 -2.280617543539158742e-01 1.510091286750273737e-02
-1.166207753164368172e-01 1.718291524651796298e-01 -1.307881205489068721e-01 1.795295042256244700e-01 -8.978812344248023047e-02 -1.489226268651079876e-01 -1.073229456077724187e-01 -3.278958985868410392e-02 3.541900585701855675e-03 7.696968188404917921e-02 -1.733990681852318472e-01 -1.807681075649267277e-02 -1.305801697080326111e-02 8.173043973514237948e-02 -6.782570700127394021e-05 8.625496460824934319e-02 9.359021968961229315e-03 1.873496694032891763e-01 -1.057524128229104798e-01 3.305821873918043247e-02 1.069638138885177642e-01
1.229383362603757995e-02 -1.475813336570554982e-04 3.409067100997010408e-02 2.319047825667591017e-02 -1.560735852566357829e-01 -6.295500876991633188e-02 6.221771916644078249e-02 1.574390468364021411e-01 8.803221410436612437e-02 4.197038294177238976e-02 1.203577712261438698e-01 -3.181517253324820937e-01 -1.768700577398838458e-01 3.058319235623690457e-01 1.515243777911401586e-02 -6.041578707793537027e-04 -5.019736352186253692e-01 8.580157623931058963e-02 3.780185304180402189e-02 7.456606018400326052e-02 1.580298349696376281e-01
-4.527781432640243797e-01 1.650353203322749152e-01 2.190003633115076287e-01 -2.910658711982720692e-02 -7.455078782996280018e-02 1.475354137507991492e-01 1.521973898102703393e-01 -1.675987103959697688e-01 -8.551422972625287444e-02 1.850339794386277881e-01 -8.631708246576076269e-04 5.483392165338018577e-03 3.310955853134879834e-01 1.517660615082788989e-01 3.738250608153458748e-02 4.237090942534549320e-02 -5.637334408741895286e-02 -2.363977342904355905e-01 -2.288131850259474132e-01 -1.741531728047721744e-02 -8.748976271455836951e-02
-1.236502747845855538e-01 -2.501837848925686850e-02 -1.253212348672287473e-02 2.647907373798938369e-02 1.016299056733334233e-01 -2.300266429742537366e-01 -5.224482055594716762e-02 -2.878357426076791903e-01 5.028851942087782939e-02 3.528011485276499881e-02 5.888227818165636673e-02 2.322982128050204709e-01 3.312574105598359298e-01 1.638044817251615645e-02 -5.992938574167679805e-02 -8.732521209863411404e-02 7.989338637455063730e-02 5.223623307067862959e-02 -1.297962402893560185e-01 5.606810269487948195e-02 -3.233486451599095618e-02
2.100735438196849048e-02 -1.267713371700611262e-02 -4.529111721525856671e-02 9.541549739675196651e-02 -1.969083118381934894e-01 -6.274001310579782609e-02 -1.940147406792331608e-01 3.757878411309172051e-02 1.528350234469767477e-01 -2.354914717732328397e-02 2.167252453580850724e-01 1.103569504330106227e-01 1.044926750138754495e-01 5.992768881345007792e-02 5.622982509709252563e-02 -1.924736727390351509e-01 -1.312009883286743006e-01 -1.066566184574141846e-01 1.891221366471306509e-01 2.655476702131453343e-02 -1.047339987765418534e-01
3.137574011342252056e-02 -9.612378495417087110e-03 6.666171708187981770e-02 -1.466828358720416448e-01 -3.091253012959577912e-02 1.164066538274654006e-01 -1.112418727922107053e-02 4.999515652592539244e-02 -5.146407930545411624e-02 7.919821144433819571e-03 -1.882759865268077148e-01 -1.520664178044081050e-01 -1.025986974245874095e-01 3.147467102904022429e-01 -2.163588631273162255e-01 1.236656499827609723e-01 8.887394192688610750e-02 1.189850077127958677e-01 9.744450933523284009e-02 -2.248149135913931618e-01 1.178359816150373607e-01
2.039701557867848181e-01 1.360962148862180851e-02 1.042006490926773894e-02 -1.644197981845832990e-01 2.533810033599767086e-01 -4.628567142231818782e-02 -9.071156093022009204e-02 -1.162036909271363522e-01 -2.653584370048324773e-02 9.890571880464011506e-03 7.754920858450736754e-02 2.200000597253148546e-02 -6.688905404219265549e-02 -2.303322957433330542e-02 1.876252402628948157e-01 1.982011140366158330e-01 -2.318622050948886681e-01 -6.925354354888907382e-02 -9.004147996893609174e-02 2.655924074118497236e-02 -7.797020105093603604e-02
1.050444337978964360e-01 -4.547577385956605434e-02 1.059637060981707124e-01 9.535605348674933493e-03 1.183459856802675653e-01 -7.944693998472117380e-02 3.756119776601481858e-02 -2.166257436575183548e-02 -1.413123151448141823e-01 -9.063951861368575724e-02 -2.935017345346256634e-03 -6.434376454624947395e-02 1.889982094645127272e-02 -2.848885382323410737e-02 6.109435268035296601e-02 -5.721923709740451419e-02 -5.156604926525967109e-02 5.240438323132620702e-02 -2.318235357001464936e-02 3.178223155682288054e-02 6.564057766593493770e-02
-3.680974652515627832e-01 -5.668871048504451338e-01 1.048918645236941727e-01 2.900091477116336150e-02 -1.905964073216769306e-01 2.219515271860414418e-02 -2.624327784757669035e-01 -1.025340084637021837e-01 2.026440835107053140e-02 2.338419032706597622e-01 2.301100495677003699e-01 -4.188466235528934961e-02 3.691998001120527784e-01 3.796679960764783313e-01 -3.345432292495056914e-02 -1.919770898334162770e-02 1.117174754942992509e-01 -3.995972868138056300e-02 1.768533455679540539e-02 1.385219994973463098e-01 -3.205276305381583174e-02
2.085689341253276277e-02 -4.231264822289481503e-02 2.120924256108729367e-01 4.936615151214147623e-01 1.894734007900614470e-01 1.049742940978587169e-01 1.037973972395280359e-01 -1.755454252816937011e-01 -1.637285313314990332e-01 4.400006336713045002e-02 2.896072328322386036e-01 8.139239106355300804e-03 -1.104810833038984696e-01 -1.628796044195323645e-01 5.580862694239394073e-02 3.204340423753513495e-02 5.571323900722535173e-03 9.168174107729593070e-02 -5.838781900742426867e-01 -1.039142795989017320e-01 -3.089677955032777978e-01
6.138200772581553326e-03 5.118583449833970928e-02 2.614143644293982511e-03 4.049474958243799438e-01 -3.759313086991761688e-03 -5.796861088673701569e-03 7.791517943873638163e-02 9.098589766020628855e-02 -1.329275870883268873e-02 -3.623980489807566985e-02 -1.223102157061524836e-01 2.224333519582945978e-02 -5.703382969091187471e-01 -1.047415063983933997e-01 1.541223749062465842e-01 3.746992359624434082e-02 2.276809739442536493e-02 -1.306495380770581749e-01 8.010730217525215135e-02 6.587115421649879232e-02 -2.924064444973799304e-02
1.455839462900725689e-01 4.829282898212161612e-02 -3.473257267827708356e-02 -8.279621350565671140e-03 -6.376763170224471200e-02 -3.438578225521674026e-02 1.581004374682826452e-01 1.461033605936509494e-01 -2.408301108186249734e-03 -2.878509635396522270e-01 -2.768924067397723551e-02 3.602629533170721432e-01 -3.933289367884415522e-02 -2.240310355947840518e-02 -1.796969344773274024e-01 -4.253324889236824967e-03 6.622889753993158046e-02 1.605710621222502035e-02 3.603236827787617558e-02 -1.467651626020712585e-01 -1.250964690102897292e-01
-6.816689241897935791e-02 4.342773575611894032e-02 6.726916596497765910e-02 5.858778400121945895e-02 -3.379340003788946362e-02 8.648636391189280792e-02 -3.843118715681979047e-01 1.215547741128577691e-01 -4.397795187811562867e-01 2.560930031986781708e-01 2.787348079953816948e-01 -1.135725265785077071e-01 -4.005696781097830422e-02 -1.089225318607585091e-01 -1.784849677689778480e-01 1.468445582742546884e-01 -2.024170550827973369e-01 3.684537173350387329e-01 3.101038632400322792e-02 -9.858438230498053900e-02 2.096277659167326279e-01
7.812523858437717128e-02 4.130976364090403058e-02 6.704306313428425729e-03 2.247291415828426564e-01 3.033107510160722442e-01 5.147158692730565560e-02 7.393259173476240433e-03 7.968949787700700671e-02 -2.446954562087529095e-01 4.688664112491400682e-04 -5.585291162690455558e-01 6.982283725791949003e-02 -1.243979516456913265e-01 1.663287395955069248e-01 2.447347940903722985e-01 -1.389098247302527622e-01 -4.126406999174456192e-01 -5.858876102050150289e-03 -4.740878079806862266e-02 3.805310126349335520e-01 -1.221792437002902909e-01
4.532783257143666034e-02 3.425696997618854489e-02 7.041840764343029746e-02 -4.899715704034485197e-02 -7.536392498296594356e-02 -1.052527445932430195e-02 -8.517844362563246896e-02 6.208669573851110374e-02 9.620554604145822907e-04 3.161881222638310979e-02 -4.925874109759692011e-03 -3.080228121692653309e-02 6.441128172084589765e-02 -5.091201198902828295e-02 3.381947102609995925e-02 3.978679626845768591e-02 1.187540197856922081e-01 -1.172251902975535581e-01 -4.696907069907856058e-02 -8.389587441863793904e-02 5.335286326592703771e-02
-1.975635832440443291e-03 -4.008530137015775541e-02 -9.748060762660121226e-02 1.628763134072138893e-02 1.652130349974730850e-01 7.805849274079289246e-02 5.339240683581633617e-02 1.723524234238187347e-01 3.075677268720998850e-02 5.783964434150638823e-02 5.254512543000891024e-03 5.450949982967204926e-02 7.252954062367085453e-02 -1.332036207465397970e-01 -6.509781774372232210e-02 -5.283018880327067235e-01 -8.635837438594425042e-02 4.507731454310549557e-01 3.302283007234322332e-01 -8.317267446165090006e-02 -4.515195367404739035e-01
-7.423665041974991663e-02 -2.778804303442625190e-01 4.722936920464371885e-02 6.556992374522246925e-02 1.168280576704339019e-01 1.110494514157143037e-01 1.889194822792064632e-01 -3.831926188475081457e-02 -9.236046094591596201e-02 -9.850719778169857513e-03 -5.601508654331138759e-02 -9.824036867356392144e-02 -1.165755753191251298e-01 2.957997867301426567e-02 7.288887803119542541e-02 1.393594592882657288e-02 1.698449805695380899e-01 2.125009739369723705e-01 -6.776235501414309970e-02 5.596171043727096728e-02 -2.530678429690458864e-01
1.100168963007896739e-01 4.655589438690627829e-02 3.763786806862202267e-02 4.951508010396640791e-02 1.924303753582200793e-01 1.544230397347806649e-01 1.893532788404367617e-01 3.957442312978045966e-04 -8.764644575415872496e-02 -1.647880830318487200e-01 -1.534337820006711206e-01 -3.463533354867934493e-03 -1.457825897367336088e-02 -1.211626808483508011e-01 1.346421016621225375e-01 -9.627542863115856608e-02 3.422509857876671613e-01 3.990811635225457454e-01 -7.324348460851216880e-02 -3.070365369150694357e-01 -6.346741424569768419e-01
-1.559903843514590660e-01 -2.114657448745389801e-01 -3.078177409641697504e-01 1.654465940279505609e-01 2.119979118508514560e-01 -7.902029109087009909e-03 3.806677953344205639e-02 -1.838745146611716133e-02 -1.482482778722234509e-02 -6.355207039538396385e-02 -4.398468816895502453e-02 8.459686004247521374e-02 1.117505913057539879e-01 4.749306156666231737e-02 1.009933004779764998e-01 9.373821239980915931e-02 -4.259408119819274585e-02 4.447597460162384941e-03 -1.894596710980452625e-01 5.694099229029012110e-02 1.405068913019324739e-01
4.632341007763906005e-01 -2.600485943172270442e-02 5.820278698202420442e-02 5.622967083089010221e-02 -1.577345180361210963e-01 2.874529567373854469e-02 -7.925606127024906189e-02 1.239652863699455126e-01 2.139636232242689631e-02 -5.080361427078818742e-02 -2.524293865792598401e-02 -4.861365126110641505e-02 3.922871257013711699e-02 -7.292003980408608144e-02 6.248182290499919300e-02 -4.352814248507321238e-01 -6.471096953009791708e-02 -1.392259161790297128e-01 6.648616214351564697e-03 2.226480390900082706e-01 1.701324813487982424e-02