ITEM: TIMESTEP
2650
ITEM: NUMBER OF ATOMS
7
ITEM: BOX BOUNDS xy xz yz ff ff ff
0.0000000000000000e+00 2.4572367362000001e+01 0.0000000000000000e+00
0.0000000000000000e+00 2.4572367362000001e+01 0.0000000000000000e+00
0.0000000000000000e+00 2.4572367362000001e+01 0.0000000000000000e+00
ITEM: ATOMS id type x y z fx fy fz
2 1 14.8593 10.587 12.5184 0.0761935 -0.131425 -0.0452544
3 1 7.35432 12.9487 12.5031 -0.195624 -0.0306822 -0.0517261
7 1 11.8075 11.6446 10.5971 -0.0105762 -0.0325965 -0.0692809
5 1 14.6568 12.5431 9.0597 -0.00623967 0.00916215 0.124637
4 1 10.1504 13.3804 13.1916 0.28125 0.00321229 0.166842
6 1 14.1049 13.7325 12.8603 -0.0395541 0.123827 -0.0798034
1 1 13.0701 11.1669 15.2732 -0.105449 0.0585024 -0.0454145
