 Set GAUSS_MDEF to "14GB".
 Entering Gaussian System, Link 0=g16
 Initial command:
 /home/sekinelabo/g16/l1.exe "/home/sekinelabo/g16temp/Gau-363167.inp" -scrdir="/home/sekinelabo/g16temp/"
 Entering Link 1 = /home/sekinelabo/g16/l1.exe PID=    363169.
  
 Copyright (c) 1988-2017, Gaussian, Inc.  All Rights Reserved.
  
 This is part of the Gaussian(R) 16 program.  It is based on
 the Gaussian(R) 09 system (copyright 2009, Gaussian, Inc.),
 the Gaussian(R) 03 system (copyright 2003, Gaussian, Inc.),
 the Gaussian(R) 98 system (copyright 1998, Gaussian, Inc.),
 the Gaussian(R) 94 system (copyright 1995, Gaussian, Inc.),
 the Gaussian 92(TM) system (copyright 1992, Gaussian, Inc.),
 the Gaussian 90(TM) system (copyright 1990, Gaussian, Inc.),
 the Gaussian 88(TM) system (copyright 1988, Gaussian, Inc.),
 the Gaussian 86(TM) system (copyright 1986, Carnegie Mellon
 University), and the Gaussian 82(TM) system (copyright 1983,
 Carnegie Mellon University). Gaussian is a federally registered
 trademark of Gaussian, Inc.
  
 This software contains proprietary and confidential information,
 including trade secrets, belonging to Gaussian, Inc.
  
 This software is provided under written license and may be
 used, copied, transmitted, or stored only in accord with that
 written license.
  
 The following legend is applicable only to US Government
 contracts under FAR:
  
                    RESTRICTED RIGHTS LEGEND
  
 Use, reproduction and disclosure by the US Government is
 subject to restrictions as set forth in subparagraphs (a)
 and (c) of the Commercial Computer Software - Restricted
 Rights clause in FAR 52.227-19.
  
 Gaussian, Inc.
 340 Quinnipiac St., Bldg. 40, Wallingford CT 06492
  
  
 ---------------------------------------------------------------
 Warning -- This program may not be used in any manner that
 competes with the business of Gaussian, Inc. or will provide
 assistance to any competitor of Gaussian, Inc.  The licensee
 of this program is prohibited from giving any competitor of
 Gaussian, Inc. access to this program.  By using this program,
 the user acknowledges that Gaussian, Inc. is engaged in the
 business of creating and licensing software in the field of
 computational chemistry and represents and warrants to the
 licensee that it is not a competitor of Gaussian, Inc. and that
 it will not use this program in any manner prohibited above.
 ---------------------------------------------------------------
  

 Cite this work as:
 Gaussian 16, Revision B.01,
 M. J. Frisch, G. W. Trucks, H. B. Schlegel, G. E. Scuseria, 
 M. A. Robb, J. R. Cheeseman, G. Scalmani, V. Barone, 
 G. A. Petersson, H. Nakatsuji, X. Li, M. Caricato, A. V. Marenich, 
 J. Bloino, B. G. Janesko, R. Gomperts, B. Mennucci, H. P. Hratchian, 
 J. V. Ortiz, A. F. Izmaylov, J. L. Sonnenberg, D. Williams-Young, 
 F. Ding, F. Lipparini, F. Egidi, J. Goings, B. Peng, A. Petrone, 
 T. Henderson, D. Ranasinghe, V. G. Zakrzewski, J. Gao, N. Rega, 
 G. Zheng, W. Liang, M. Hada, M. Ehara, K. Toyota, R. Fukuda, 
 J. Hasegawa, M. Ishida, T. Nakajima, Y. Honda, O. Kitao, H. Nakai, 
 T. Vreven, K. Throssell, J. A. Montgomery, Jr., J. E. Peralta, 
 F. Ogliaro, M. J. Bearpark, J. J. Heyd, E. N. Brothers, K. N. Kudin, 
 V. N. Staroverov, T. A. Keith, R. Kobayashi, J. Normand, 
 K. Raghavachari, A. P. Rendell, J. C. Burant, S. S. Iyengar, 
 J. Tomasi, M. Cossi, J. M. Millam, M. Klene, C. Adamo, R. Cammi, 
 J. W. Ochterski, R. L. Martin, K. Morokuma, O. Farkas, 
 J. B. Foresman, and D. J. Fox, Gaussian, Inc., Wallingford CT, 2016.
 
 ******************************************
 Gaussian 16:  ES64L-G16RevB.01 20-Dec-2017
                29-Nov-2023 
 ******************************************
 %nproc=15
 Will use up to   15 processors via shared memory.
 -------------------------
 #P B3LYP/6-311+g(d) force
 -------------------------
 1/10=7,30=1,38=1/1,3;
 2/12=2,17=6,18=5,40=1/2;
 3/5=4,6=6,7=11,11=2,25=1,30=1,71=1,74=-5/1,2,3;
 4//1;
 5/5=2,38=5/2;
 6/7=2,8=2,9=2,10=2,28=1/1;
 7/29=1/1,2,3,16;
 1/10=7,30=1/3;
 99//99;
 Leave Link    1 at Wed Nov 29 03:39:47 2023, MaxMem=           0 cpu:               0.3 elap:               0.0
 (Enter /home/sekinelabo/g16/l101.exe)
 -----
 DPGEN
 -----
 Symbolic Z-matrix:
 Charge =  0 Multiplicity = 2
 Na                    13.5167   16.6918   13.1616 
 Na                    14.0477   13.4541   12.0766 
 Na                    16.6611   12.1441   17.6809 
 Na                    15.2698   19.6046   13.0874 
 Na                    16.4405   13.0901   20.8309 
 Na                    14.9219   14.4659   14.9369 
 Na                    16.5677   17.975    15.6513 
 
 ITRead=  0  0  0  0  0  0  0
 MicOpt= -1 -1 -1 -1 -1 -1 -1
 NAtoms=      7 NQM=        7 NQMF=       0 NMMI=      0 NMMIF=      0
                NMic=       0 NMicF=      0.
                    Isotopes and Nuclear Properties:
 (Nuclear quadrupole moments (NQMom) in fm**2, nuclear magnetic moments (NMagM)
  in nuclear magnetons)

  Atom         1           2           3           4           5           6           7
 IAtWgt=          23          23          23          23          23          23          23
 AtmWgt=  22.9897697  22.9897697  22.9897697  22.9897697  22.9897697  22.9897697  22.9897697
 NucSpn=           3           3           3           3           3           3           3
 AtZEff=  -0.0000000  -0.0000000  -0.0000000  -0.0000000  -0.0000000  -0.0000000  -0.0000000
 NQMom=   10.4000000  10.4000000  10.4000000  10.4000000  10.4000000  10.4000000  10.4000000
 NMagM=    2.2175200   2.2175200   2.2175200   2.2175200   2.2175200   2.2175200   2.2175200
 AtZNuc=  11.0000000  11.0000000  11.0000000  11.0000000  11.0000000  11.0000000  11.0000000
 Leave Link  101 at Wed Nov 29 03:39:47 2023, MaxMem=  1879048192 cpu:               2.4 elap:               0.2
 (Enter /home/sekinelabo/g16/l103.exe)

 GradGradGradGradGradGradGradGradGradGradGradGradGradGradGradGradGradGrad
 Berny optimization.
 Initialization pass.
 Trust Radius=3.00D-01 FncErr=1.00D-07 GrdErr=1.00D-07 EigMax=2.50D+02 EigMin=1.00D-04
 Number of steps in this run=      2 maximum allowed number of steps=      2.
 GradGradGradGradGradGradGradGradGradGradGradGradGradGradGradGradGradGrad

 Leave Link  103 at Wed Nov 29 03:39:47 2023, MaxMem=  1879048192 cpu:               0.2 elap:               0.0
 (Enter /home/sekinelabo/g16/l202.exe)
                          Input orientation:                          
 ---------------------------------------------------------------------
 Center     Atomic      Atomic             Coordinates (Angstroms)
 Number     Number       Type             X           Y           Z
 ---------------------------------------------------------------------
      1         11           0       13.516700   16.691800   13.161600
      2         11           0       14.047700   13.454100   12.076600
      3         11           0       16.661100   12.144100   17.680900
      4         11           0       15.269800   19.604600   13.087400
      5         11           0       16.440500   13.090100   20.830900
      6         11           0       14.921900   14.465900   14.936900
      7         11           0       16.567700   17.975000   15.651300
 ---------------------------------------------------------------------
                    Distance matrix (angstroms):
                    1          2          3          4          5
     1  Na   0.000000
     2  Na   3.455704   0.000000
     3  Na   7.140931   6.320929   0.000000
     4  Na   3.400481   6.351684   8.871021   0.000000
     5  Na   8.963203   9.082717   3.296374  10.186807   0.000000
     6  Na   3.175045   3.157417   3.993133   5.472469   6.240049
     7  Na   4.141716   6.290264   6.174738   3.303593   7.120863
                    6          7
     6  Na   0.000000
     7  Na   3.941168   0.000000
 Stoichiometry    Na7(2)
 Framework group  C1[X(Na7)]
 Deg. of freedom    15
 Full point group                 C1      NOp   1
 Largest Abelian subgroup         C1      NOp   1
 Largest concise Abelian subgroup C1      NOp   1
                         Standard orientation:                         
 ---------------------------------------------------------------------
 Center     Atomic      Atomic             Coordinates (Angstroms)
 Number     Number       Type             X           Y           Z
 ---------------------------------------------------------------------
      1         11           0        2.899393    0.652647    1.048490
      2         11           0        1.707222    3.598701   -0.308485
      3         11           0       -3.996678    0.917066   -0.786499
      4         11           0        4.283607   -2.205294   -0.167815
      5         11           0       -5.828344   -1.363800    0.732951
      6         11           0       -0.107498    1.048851    0.109057
      7         11           0        1.042297   -2.648170   -0.627700
 ---------------------------------------------------------------------
 Rotational constants (GHZ):           0.6904546           0.2632804           0.2002711
 Leave Link  202 at Wed Nov 29 03:39:47 2023, MaxMem=  1879048192 cpu:               0.0 elap:               0.0
 (Enter /home/sekinelabo/g16/l301.exe)
 Standard basis: 6-311+G(d) (5D, 7F)
 Ernie: Thresh=  0.10000D-02 Tol=  0.10000D-05 Strict=F.
 There are   217 symmetry adapted cartesian basis functions of A   symmetry.
 There are   210 symmetry adapted basis functions of A   symmetry.
   210 basis functions,   350 primitive gaussians,   217 cartesian basis functions
    39 alpha electrons       38 beta electrons
       nuclear repulsion energy       272.7301300248 Hartrees.
 IExCor=  402 DFT=T Ex+Corr=B3LYP ExCW=0 ScaHFX=  0.200000
 ScaDFX=  0.800000  0.720000  1.000000  0.810000 ScalE2=  1.000000  1.000000
 IRadAn=      5 IRanWt=     -1 IRanGd=            0 ICorTp=0 IEmpDi=  4
 NAtoms=    7 NActive=    7 NUniq=    7 SFac= 1.00D+00 NAtFMM=   60 NAOKFM=F Big=F
 Integral buffers will be    131072 words long.
 Raffenetti 2 integral format.
 Two-electron integral symmetry is turned on.
 Leave Link  301 at Wed Nov 29 03:39:47 2023, MaxMem=  1879048192 cpu:               0.5 elap:               0.0
 (Enter /home/sekinelabo/g16/l302.exe)
 NPDir=0 NMtPBC=     1 NCelOv=     1 NCel=       1 NClECP=     1 NCelD=      1
         NCelK=      1 NCelE2=     1 NClLst=     1 CellRange=     0.0.
 One-electron integrals computed using PRISM.
 One-electron integral symmetry used in STVInt
 NBasis=   210 RedAO= T EigKep=  4.52D-06  NBF=   210
 NBsUse=   210 1.00D-06 EigRej= -1.00D+00 NBFU=   210
 Precomputing XC quadrature grid using
 IXCGrd= 4 IRadAn=           5 IRanWt=          -1 IRanGd=           0 AccXCQ= 0.00D+00.
 Generated NRdTot=       0 NPtTot=           0 NUsed=           0 NTot=          32
 NSgBfM=   205   205   205   205   205 MxSgAt=     7 MxSgA2=     7.
 Leave Link  302 at Wed Nov 29 03:39:48 2023, MaxMem=  1879048192 cpu:               2.0 elap:               0.1
 (Enter /home/sekinelabo/g16/l303.exe)
 DipDrv:  MaxL=1.
 Leave Link  303 at Wed Nov 29 03:39:48 2023, MaxMem=  1879048192 cpu:               0.5 elap:               0.0
 (Enter /home/sekinelabo/g16/l401.exe)
 ExpMin= 7.60D-03 ExpMax= 3.62D+04 ExpMxC= 1.21D+03 IAcc=3 IRadAn=         5 AccDes= 0.00D+00
 Harris functional with IExCor=  402 and IRadAn=       5 diagonalized for initial guess.
 HarFok:  IExCor=  402 AccDes= 0.00D+00 IRadAn=         5 IDoV= 1 UseB2=F ITyADJ=14
 ICtDFT=  3500011 ScaDFX=  1.000000  1.000000  1.000000  1.000000
 FoFCou: FMM=F IPFlag=           0 FMFlag=      100000 FMFlg1=           0
         NFxFlg=           0 DoJE=T BraDBF=F KetDBF=T FulRan=T
         wScrn=  0.000000 ICntrl=       500 IOpCl=  0 I1Cent=   200000004 NGrid=           0
         NMat0=    1 NMatS0=      1 NMatT0=    0 NMatD0=    1 NMtDS0=    0 NMtDT0=    0
 Petite list used in FoFCou.
 Harris En= -1135.88496958102    
 JPrj=0 DoOrth=F DoCkMO=F.
 Initial guess <Sx>= 0.0000 <Sy>= 0.0000 <Sz>= 0.5000 <S**2>= 0.7500 S= 0.5000
 Leave Link  401 at Wed Nov 29 03:39:48 2023, MaxMem=  1879048192 cpu:               4.2 elap:               0.3
 (Enter /home/sekinelabo/g16/l502.exe)
 Keep R1 and R2 ints in memory in canonical form, NReq=506573293.
 FoFCou: FMM=F IPFlag=           0 FMFlag=           0 FMFlg1=           0
         NFxFlg=           0 DoJE=F BraDBF=F KetDBF=F FulRan=T
         wScrn=  0.000000 ICntrl=       600 IOpCl=  0 I1Cent=           0 NGrid=           0
         NMat0=    1 NMatS0=  22155 NMatT0=    0 NMatD0=    1 NMtDS0=    0 NMtDT0=    0
 Symmetry not used in FoFCou.
 Two-electron integral symmetry not used.
 UHF open shell SCF:
 Using DIIS extrapolation, IDIIS=  1040.
 NGot=  1879048192 LenX=  1388082607 LenY=  1388035077
 Requested convergence on RMS density matrix=1.00D-08 within 128 cycles.
 Requested convergence on MAX density matrix=1.00D-06.
 Requested convergence on             energy=1.00D-06.
 No special actions if energy rises.

 Cycle   1  Pass 1  IDiag  1:
 E= -1136.08875585911    
 DIIS: error= 1.11D-02 at cycle   1 NSaved=   1.
 NSaved= 1 IEnMin= 1 EnMin= -1136.08875585911     IErMin= 1 ErrMin= 1.11D-02
 ErrMax= 1.11D-02  0.00D+00 EMaxC= 1.00D-01 BMatC= 1.83D-01 BMatP= 1.83D-01
 IDIUse=3 WtCom= 8.89D-01 WtEn= 1.11D-01
 Coeff-Com:  0.100D+01
 Coeff-En:   0.100D+01
 Coeff:      0.100D+01
 Gap=     0.039 Goal=   None    Shift=    0.000
 Gap=     0.052 Goal=   None    Shift=    0.000
 GapD=    0.039 DampG=0.250 DampE=0.500 DampFc=0.2500 IDamp=-1.
 Damping current iteration by 2.50D-01
 RMSDP=1.74D-02 MaxDP=1.73D+00              OVMax= 1.46D-01

 Cycle   2  Pass 1  IDiag  1:
 E= -1136.09707736157     Delta-E=       -0.008321502461 Rises=F Damp=T
 DIIS: error= 7.98D-03 at cycle   2 NSaved=   2.
 NSaved= 2 IEnMin= 2 EnMin= -1136.09707736157     IErMin= 2 ErrMin= 7.98D-03
 ErrMax= 7.98D-03  0.00D+00 EMaxC= 1.00D-01 BMatC= 7.10D-02 BMatP= 1.83D-01
 IDIUse=3 WtCom= 9.20D-01 WtEn= 7.98D-02
 Coeff-Com: -0.131D+01 0.231D+01
 Coeff-En:   0.000D+00 0.100D+01
 Coeff:     -0.121D+01 0.221D+01
 Gap=     0.040 Goal=   None    Shift=    0.000
 Gap=     0.050 Goal=   None    Shift=    0.000
 RMSDP=9.61D-03 MaxDP=1.05D+00 DE=-8.32D-03 OVMax= 8.80D-02

 Cycle   3  Pass 1  IDiag  1:
 E= -1136.11368500071     Delta-E=       -0.016607639139 Rises=F Damp=F
 DIIS: error= 1.18D-03 at cycle   3 NSaved=   3.
 NSaved= 3 IEnMin= 3 EnMin= -1136.11368500071     IErMin= 3 ErrMin= 1.18D-03
 ErrMax= 1.18D-03  0.00D+00 EMaxC= 1.00D-01 BMatC= 6.87D-04 BMatP= 7.10D-02
 IDIUse=3 WtCom= 9.88D-01 WtEn= 1.18D-02
 Coeff-Com: -0.583D-01 0.106D+00 0.953D+00
 Coeff-En:   0.000D+00 0.000D+00 0.100D+01
 Coeff:     -0.576D-01 0.105D+00 0.953D+00
 Gap=     0.039 Goal=   None    Shift=    0.000
 Gap=     0.053 Goal=   None    Shift=    0.000
 RMSDP=2.04D-03 MaxDP=1.56D-01 DE=-1.66D-02 OVMax= 6.89D-02

 Cycle   4  Pass 1  IDiag  1:
 E= -1136.11313830024     Delta-E=        0.000546700476 Rises=F Damp=F
 DIIS: error= 1.48D-03 at cycle   4 NSaved=   4.
 NSaved= 4 IEnMin= 3 EnMin= -1136.11368500071     IErMin= 3 ErrMin= 1.18D-03
 ErrMax= 1.48D-03  0.00D+00 EMaxC= 1.00D-01 BMatC= 1.22D-03 BMatP= 6.87D-04
 IDIUse=3 WtCom= 2.06D-01 WtEn= 7.94D-01
 Coeff-Com:  0.419D-02-0.549D-02 0.574D+00 0.428D+00
 Coeff-En:   0.000D+00 0.000D+00 0.615D+00 0.385D+00
 Coeff:      0.863D-03-0.113D-02 0.607D+00 0.393D+00
 Gap=     0.040 Goal=   None    Shift=    0.000
 Gap=     0.053 Goal=   None    Shift=    0.000
 RMSDP=1.16D-03 MaxDP=9.32D-02 DE= 5.47D-04 OVMax= 3.57D-02

 Cycle   5  Pass 1  IDiag  1:
 E= -1136.11449185696     Delta-E=       -0.001353556720 Rises=F Damp=F
 DIIS: error= 1.54D-04 at cycle   5 NSaved=   5.
 NSaved= 5 IEnMin= 5 EnMin= -1136.11449185696     IErMin= 5 ErrMin= 1.54D-04
 ErrMax= 1.54D-04  0.00D+00 EMaxC= 1.00D-01 BMatC= 1.73D-05 BMatP= 6.87D-04
 IDIUse=3 WtCom= 9.98D-01 WtEn= 1.54D-03
 Coeff-Com:  0.388D-03-0.132D-02 0.212D+00 0.116D+00 0.673D+00
 Coeff-En:   0.000D+00 0.000D+00 0.000D+00 0.000D+00 0.100D+01
 Coeff:      0.387D-03-0.132D-02 0.212D+00 0.116D+00 0.673D+00
 Gap=     0.040 Goal=   None    Shift=    0.000
 Gap=     0.053 Goal=   None    Shift=    0.000
 RMSDP=2.63D-04 MaxDP=1.39D-02 DE=-1.35D-03 OVMax= 9.66D-03

 Cycle   6  Pass 1  IDiag  1:
 E= -1136.11451519215     Delta-E=       -0.000023335191 Rises=F Damp=F
 DIIS: error= 1.15D-04 at cycle   6 NSaved=   6.
 NSaved= 6 IEnMin= 6 EnMin= -1136.11451519215     IErMin= 6 ErrMin= 1.15D-04
 ErrMax= 1.15D-04  0.00D+00 EMaxC= 1.00D-01 BMatC= 5.51D-06 BMatP= 1.73D-05
 IDIUse=3 WtCom= 9.99D-01 WtEn= 1.15D-03
 Coeff-Com: -0.175D-02 0.175D-02-0.497D-01-0.605D-01 0.358D+00 0.752D+00
 Coeff-En:   0.000D+00 0.000D+00 0.000D+00 0.000D+00 0.000D+00 0.100D+01
 Coeff:     -0.175D-02 0.174D-02-0.496D-01-0.604D-01 0.357D+00 0.753D+00
 Gap=     0.040 Goal=   None    Shift=    0.000
 Gap=     0.053 Goal=   None    Shift=    0.000
 RMSDP=2.07D-04 MaxDP=1.64D-02 DE=-2.33D-05 OVMax= 5.13D-03

 Cycle   7  Pass 1  IDiag  1:
 E= -1136.11452991686     Delta-E=       -0.000014724709 Rises=F Damp=F
 DIIS: error= 4.19D-05 at cycle   7 NSaved=   7.
 NSaved= 7 IEnMin= 7 EnMin= -1136.11452991686     IErMin= 7 ErrMin= 4.19D-05
 ErrMax= 4.19D-05  0.00D+00 EMaxC= 1.00D-01 BMatC= 9.06D-07 BMatP= 5.51D-06
 IDIUse=1 WtCom= 1.00D+00 WtEn= 0.00D+00
 Coeff-Com: -0.131D-02 0.178D-02-0.784D-01-0.517D-01-0.476D-01 0.228D+00
 Coeff-Com:  0.949D+00
 Coeff:     -0.131D-02 0.178D-02-0.784D-01-0.517D-01-0.476D-01 0.228D+00
 Coeff:      0.949D+00
 Gap=     0.040 Goal=   None    Shift=    0.000
 Gap=     0.053 Goal=   None    Shift=    0.000
 RMSDP=1.55D-04 MaxDP=8.55D-03 DE=-1.47D-05 OVMax= 4.08D-03

 Cycle   8  Pass 1  IDiag  1:
 E= -1136.11453533486     Delta-E=       -0.000005418002 Rises=F Damp=F
 DIIS: error= 1.96D-05 at cycle   8 NSaved=   8.
 NSaved= 8 IEnMin= 8 EnMin= -1136.11453533486     IErMin= 8 ErrMin= 1.96D-05
 ErrMax= 1.96D-05  0.00D+00 EMaxC= 1.00D-01 BMatC= 2.15D-07 BMatP= 9.06D-07
 IDIUse=1 WtCom= 1.00D+00 WtEn= 0.00D+00
 Coeff-Com:  0.540D-03-0.582D-03-0.158D-01-0.589D-02-0.650D-01-0.766D-01
 Coeff-Com:  0.200D+00 0.963D+00
 Coeff:      0.540D-03-0.582D-03-0.158D-01-0.589D-02-0.650D-01-0.766D-01
 Coeff:      0.200D+00 0.963D+00
 Gap=     0.040 Goal=   None    Shift=    0.000
 Gap=     0.053 Goal=   None    Shift=    0.000
 RMSDP=6.27D-05 MaxDP=3.55D-03 DE=-5.42D-06 OVMax= 2.45D-03

 Cycle   9  Pass 1  IDiag  1:
 E= -1136.11453698137     Delta-E=       -0.000001646505 Rises=F Damp=F
 DIIS: error= 1.16D-05 at cycle   9 NSaved=   9.
 NSaved= 9 IEnMin= 9 EnMin= -1136.11453698137     IErMin= 9 ErrMin= 1.16D-05
 ErrMax= 1.16D-05  0.00D+00 EMaxC= 1.00D-01 BMatC= 7.66D-08 BMatP= 2.15D-07
 IDIUse=1 WtCom= 1.00D+00 WtEn= 0.00D+00
 Coeff-Com:  0.744D-03-0.956D-03 0.160D-01 0.118D-01 0.560D-03-0.724D-01
 Coeff-Com: -0.269D+00 0.291D+00 0.102D+01
 Coeff:      0.744D-03-0.956D-03 0.160D-01 0.118D-01 0.560D-03-0.724D-01
 Coeff:     -0.269D+00 0.291D+00 0.102D+01
 Gap=     0.040 Goal=   None    Shift=    0.000
 Gap=     0.053 Goal=   None    Shift=    0.000
 RMSDP=3.41D-05 MaxDP=1.69D-03 DE=-1.65D-06 OVMax= 1.84D-03

 Cycle  10  Pass 1  IDiag  1:
 E= -1136.11453764573     Delta-E=       -0.000000664362 Rises=F Damp=F
 DIIS: error= 5.70D-06 at cycle  10 NSaved=  10.
 NSaved=10 IEnMin=10 EnMin= -1136.11453764573     IErMin=10 ErrMin= 5.70D-06
 ErrMax= 5.70D-06  0.00D+00 EMaxC= 1.00D-01 BMatC= 2.23D-08 BMatP= 7.66D-08
 IDIUse=1 WtCom= 1.00D+00 WtEn= 0.00D+00
 Coeff-Com: -0.196D-03 0.235D-03 0.853D-02 0.478D-02 0.219D-01 0.150D-01
 Coeff-Com: -0.151D+00-0.219D+00 0.296D+00 0.102D+01
 Coeff:     -0.196D-03 0.235D-03 0.853D-02 0.478D-02 0.219D-01 0.150D-01
 Coeff:     -0.151D+00-0.219D+00 0.296D+00 0.102D+01
 Gap=     0.040 Goal=   None    Shift=    0.000
 Gap=     0.053 Goal=   None    Shift=    0.000
 RMSDP=2.07D-05 MaxDP=9.97D-04 DE=-6.64D-07 OVMax= 1.08D-03

 Cycle  11  Pass 1  IDiag  1:
 E= -1136.11453782866     Delta-E=       -0.000000182928 Rises=F Damp=F
 DIIS: error= 3.77D-06 at cycle  11 NSaved=  11.
 NSaved=11 IEnMin=11 EnMin= -1136.11453782866     IErMin=11 ErrMin= 3.77D-06
 ErrMax= 3.77D-06  0.00D+00 EMaxC= 1.00D-01 BMatC= 7.34D-09 BMatP= 2.23D-08
 IDIUse=1 WtCom= 1.00D+00 WtEn= 0.00D+00
 Coeff-Com: -0.351D-03 0.441D-03 0.204D-03-0.414D-03 0.111D-01 0.274D-01
 Coeff-Com: -0.133D-01-0.180D+00-0.129D+00 0.518D+00 0.766D+00
 Coeff:     -0.351D-03 0.441D-03 0.204D-03-0.414D-03 0.111D-01 0.274D-01
 Coeff:     -0.133D-01-0.180D+00-0.129D+00 0.518D+00 0.766D+00
 Gap=     0.040 Goal=   None    Shift=    0.000
 Gap=     0.053 Goal=   None    Shift=    0.000
 RMSDP=6.93D-06 MaxDP=3.82D-04 DE=-1.83D-07 OVMax= 4.69D-04

 Cycle  12  Pass 1  IDiag  1:
 E= -1136.11453786437     Delta-E=       -0.000000035712 Rises=F Damp=F
 DIIS: error= 1.74D-06 at cycle  12 NSaved=  12.
 NSaved=12 IEnMin=12 EnMin= -1136.11453786437     IErMin=12 ErrMin= 1.74D-06
 ErrMax= 1.74D-06  0.00D+00 EMaxC= 1.00D-01 BMatC= 1.11D-09 BMatP= 7.34D-09
 IDIUse=1 WtCom= 1.00D+00 WtEn= 0.00D+00
 Coeff-Com: -0.208D-04 0.248D-04-0.172D-02-0.863D-03-0.265D-02 0.279D-02
 Coeff-Com:  0.266D-01 0.152D-01-0.107D+00-0.103D+00 0.232D+00 0.938D+00
 Coeff:     -0.208D-04 0.248D-04-0.172D-02-0.863D-03-0.265D-02 0.279D-02
 Coeff:      0.266D-01 0.152D-01-0.107D+00-0.103D+00 0.232D+00 0.938D+00
 Gap=     0.040 Goal=   None    Shift=    0.000
 Gap=     0.053 Goal=   None    Shift=    0.000
 RMSDP=2.65D-06 MaxDP=1.03D-04 DE=-3.57D-08 OVMax= 2.19D-04

 Cycle  13  Pass 1  IDiag  1:
 E= -1136.11453787002     Delta-E=       -0.000000005651 Rises=F Damp=F
 DIIS: error= 6.23D-07 at cycle  13 NSaved=  13.
 NSaved=13 IEnMin=13 EnMin= -1136.11453787002     IErMin=13 ErrMin= 6.23D-07
 ErrMax= 6.23D-07  0.00D+00 EMaxC= 1.00D-01 BMatC= 1.60D-10 BMatP= 1.11D-09
 IDIUse=1 WtCom= 1.00D+00 WtEn= 0.00D+00
 Coeff-Com:  0.947D-04-0.121D-03-0.803D-04 0.114D-03-0.284D-02-0.425D-02
 Coeff-Com:  0.341D-02 0.338D-01 0.260D-01-0.106D+00-0.159D+00 0.295D-01
 Coeff-Com:  0.118D+01
 Coeff:      0.947D-04-0.121D-03-0.803D-04 0.114D-03-0.284D-02-0.425D-02
 Coeff:      0.341D-02 0.338D-01 0.260D-01-0.106D+00-0.159D+00 0.295D-01
 Coeff:      0.118D+01
 Gap=     0.040 Goal=   None    Shift=    0.000
 Gap=     0.053 Goal=   None    Shift=    0.000
 RMSDP=2.42D-06 MaxDP=1.74D-04 DE=-5.65D-09 OVMax= 9.03D-05

 Cycle  14  Pass 1  IDiag  1:
 E= -1136.11453787109     Delta-E=       -0.000000001069 Rises=F Damp=F
 DIIS: error= 2.45D-07 at cycle  14 NSaved=  14.
 NSaved=14 IEnMin=14 EnMin= -1136.11453787109     IErMin=14 ErrMin= 2.45D-07
 ErrMax= 2.45D-07  0.00D+00 EMaxC= 1.00D-01 BMatC= 2.92D-11 BMatP= 1.60D-10
 IDIUse=1 WtCom= 1.00D+00 WtEn= 0.00D+00
 Coeff-Com:  0.184D-04-0.229D-04 0.185D-03 0.764D-04-0.679D-04-0.122D-02
 Coeff-Com: -0.387D-02 0.766D-02 0.183D-01-0.769D-02-0.556D-01-0.135D+00
 Coeff-Com:  0.228D+00 0.949D+00
 Coeff:      0.184D-04-0.229D-04 0.185D-03 0.764D-04-0.679D-04-0.122D-02
 Coeff:     -0.387D-02 0.766D-02 0.183D-01-0.769D-02-0.556D-01-0.135D+00
 Coeff:      0.228D+00 0.949D+00
 Gap=     0.040 Goal=   None    Shift=    0.000
 Gap=     0.053 Goal=   None    Shift=    0.000
 RMSDP=9.95D-07 MaxDP=6.45D-05 DE=-1.07D-09 OVMax= 2.30D-05

 Cycle  15  Pass 1  IDiag  1:
 E= -1136.11453787122     Delta-E=       -0.000000000131 Rises=F Damp=F
 DIIS: error= 9.30D-08 at cycle  15 NSaved=  15.
 NSaved=15 IEnMin=15 EnMin= -1136.11453787122     IErMin=15 ErrMin= 9.30D-08
 ErrMax= 9.30D-08  0.00D+00 EMaxC= 1.00D-01 BMatC= 6.09D-12 BMatP= 2.92D-11
 IDIUse=1 WtCom= 1.00D+00 WtEn= 0.00D+00
 Coeff-Com: -0.238D-04 0.311D-04 0.671D-04-0.528D-05 0.664D-03 0.950D-03
 Coeff-Com: -0.165D-02-0.801D-02-0.867D-03 0.256D-01 0.210D-01-0.462D-01
 Coeff-Com: -0.214D+00 0.265D+00 0.957D+00
 Coeff:     -0.238D-04 0.311D-04 0.671D-04-0.528D-05 0.664D-03 0.950D-03
 Coeff:     -0.165D-02-0.801D-02-0.867D-03 0.256D-01 0.210D-01-0.462D-01
 Coeff:     -0.214D+00 0.265D+00 0.957D+00
 Gap=     0.040 Goal=   None    Shift=    0.000
 Gap=     0.053 Goal=   None    Shift=    0.000
 RMSDP=4.61D-07 MaxDP=3.62D-05 DE=-1.31D-10 OVMax= 1.25D-05

 Cycle  16  Pass 1  IDiag  1:
 E= -1136.11453787124     Delta-E=       -0.000000000026 Rises=F Damp=F
 DIIS: error= 3.29D-08 at cycle  16 NSaved=  16.
 NSaved=16 IEnMin=16 EnMin= -1136.11453787124     IErMin=16 ErrMin= 3.29D-08
 ErrMax= 3.29D-08  0.00D+00 EMaxC= 1.00D-01 BMatC= 5.02D-13 BMatP= 6.09D-12
 IDIUse=1 WtCom= 1.00D+00 WtEn= 0.00D+00
 Coeff-Com: -0.195D-05 0.241D-05-0.942D-05-0.447D-05 0.402D-04 0.801D-04
 Coeff-Com:  0.315D-03-0.805D-03-0.192D-02 0.132D-02 0.690D-02 0.134D-01
 Coeff-Com: -0.421D-01-0.810D-01 0.551D-01 0.105D+01
 Coeff:     -0.195D-05 0.241D-05-0.942D-05-0.447D-05 0.402D-04 0.801D-04
 Coeff:      0.315D-03-0.805D-03-0.192D-02 0.132D-02 0.690D-02 0.134D-01
 Coeff:     -0.421D-01-0.810D-01 0.551D-01 0.105D+01
 Gap=     0.040 Goal=   None    Shift=    0.000
 Gap=     0.053 Goal=   None    Shift=    0.000
 RMSDP=9.25D-08 MaxDP=5.67D-06 DE=-2.59D-11 OVMax= 4.42D-06

 Cycle  17  Pass 1  IDiag  1:
 E= -1136.11453787125     Delta-E=       -0.000000000006 Rises=F Damp=F
 DIIS: error= 1.39D-08 at cycle  17 NSaved=  17.
 NSaved=17 IEnMin=17 EnMin= -1136.11453787125     IErMin=17 ErrMin= 1.39D-08
 ErrMax= 1.39D-08  0.00D+00 EMaxC= 1.00D-01 BMatC= 1.02D-13 BMatP= 5.02D-13
 IDIUse=1 WtCom= 1.00D+00 WtEn= 0.00D+00
 Coeff-Com:  0.472D-05-0.619D-05-0.146D-04-0.159D-05-0.128D-03-0.173D-03
 Coeff-Com:  0.364D-03 0.150D-02-0.105D-03-0.456D-02-0.400D-02 0.970D-02
 Coeff-Com:  0.382D-01-0.537D-01-0.172D+00 0.597D-01 0.112D+01
 Coeff:      0.472D-05-0.619D-05-0.146D-04-0.159D-05-0.128D-03-0.173D-03
 Coeff:      0.364D-03 0.150D-02-0.105D-03-0.456D-02-0.400D-02 0.970D-02
 Coeff:      0.382D-01-0.537D-01-0.172D+00 0.597D-01 0.112D+01
 Gap=     0.040 Goal=   None    Shift=    0.000
 Gap=     0.053 Goal=   None    Shift=    0.000
 RMSDP=3.23D-08 MaxDP=1.52D-06 DE=-6.37D-12 OVMax= 2.60D-06

 Cycle  18  Pass 1  IDiag  1:
 E= -1136.11453787125     Delta-E=        0.000000000003 Rises=F Damp=F
 DIIS: error= 5.81D-09 at cycle  18 NSaved=  18.
 NSaved=18 IEnMin=17 EnMin= -1136.11453787125     IErMin=18 ErrMin= 5.81D-09
 ErrMax= 5.81D-09  0.00D+00 EMaxC= 1.00D-01 BMatC= 1.83D-14 BMatP= 1.02D-13
 IDIUse=1 WtCom= 1.00D+00 WtEn= 0.00D+00
 Coeff-Com:  0.892D-06-0.114D-05-0.115D-05 0.618D-06-0.247D-04-0.431D-04
 Coeff-Com:  0.154D-04 0.332D-03 0.354D-03-0.106D-02-0.163D-02 0.706D-03
 Coeff-Com:  0.106D-01 0.373D-02-0.292D-01-0.150D+00 0.584D-01 0.111D+01
 Coeff:      0.892D-06-0.114D-05-0.115D-05 0.618D-06-0.247D-04-0.431D-04
 Coeff:      0.154D-04 0.332D-03 0.354D-03-0.106D-02-0.163D-02 0.706D-03
 Coeff:      0.106D-01 0.373D-02-0.292D-01-0.150D+00 0.584D-01 0.111D+01
 Gap=     0.040 Goal=   None    Shift=    0.000
 Gap=     0.053 Goal=   None    Shift=    0.000
 RMSDP=2.03D-08 MaxDP=9.93D-07 DE= 3.18D-12 OVMax= 1.22D-06

 Cycle  19  Pass 1  IDiag  1:
 E= -1136.11453787125     Delta-E=        0.000000000000 Rises=F Damp=F
 DIIS: error= 3.06D-09 at cycle  19 NSaved=  19.
 NSaved=19 IEnMin=17 EnMin= -1136.11453787125     IErMin=19 ErrMin= 3.06D-09
 ErrMax= 3.06D-09  0.00D+00 EMaxC= 1.00D-01 BMatC= 3.21D-15 BMatP= 1.83D-14
 IDIUse=1 WtCom= 1.00D+00 WtEn= 0.00D+00
 Large coefficients: NSaved= 19 BigCof=    0.00 CofMax=   10.00 Det=-7.95D-15
 Inversion failed.  Reducing to 18 matrices.
 Large coefficients: NSaved= 18 BigCof=    0.00 CofMax=   10.00 Det=-8.04D-15
 Inversion failed.  Reducing to 17 matrices.
 Large coefficients: NSaved= 17 BigCof=    0.00 CofMax=   10.00 Det=-8.07D-15
 Inversion failed.  Reducing to 16 matrices.
 Large coefficients: NSaved= 16 BigCof=    0.00 CofMax=   10.00 Det=-8.08D-15
 Inversion failed.  Reducing to 15 matrices.
 Coeff-Com: -0.995D-06-0.750D-05-0.435D-05 0.348D-04 0.803D-04-0.101D-03
 Coeff-Com: -0.243D-03-0.618D-03 0.120D-02 0.456D-02 0.780D-03-0.263D-01
 Coeff-Com: -0.119D+00 0.239D+00 0.901D+00
 Coeff:     -0.995D-06-0.750D-05-0.435D-05 0.348D-04 0.803D-04-0.101D-03
 Coeff:     -0.243D-03-0.618D-03 0.120D-02 0.456D-02 0.780D-03-0.263D-01
 Coeff:     -0.119D+00 0.239D+00 0.901D+00
 Gap=     0.040 Goal=   None    Shift=    0.000
 Gap=     0.053 Goal=   None    Shift=    0.000
 RMSDP=6.12D-09 MaxDP=3.45D-07 DE= 2.27D-13 OVMax= 3.53D-07

 SCF Done:  E(UB3LYP) =  -1136.11453787     A.U. after   19 cycles
            NFock= 19  Conv=0.61D-08     -V/T= 2.0029
 <Sx>= 0.0000 <Sy>= 0.0000 <Sz>= 0.5000 <S**2>= 0.7792 S= 0.5145
 <L.S>= 0.000000000000E+00
 KE= 1.132868697838D+03 PE=-3.274609532151D+03 EE= 7.328961664164D+02
 Annihilation of the first spin contaminant:
 S**2 before annihilation     0.7792,   after     0.7505
 Leave Link  502 at Wed Nov 29 03:40:03 2023, MaxMem=  1879048192 cpu:             163.1 elap:              15.0
 (Enter /home/sekinelabo/g16/l601.exe)
 Copying SCF densities to generalized density rwf, IOpCl= 1 IROHF=0.

 **********************************************************************

            Population analysis using the SCF Density.

 **********************************************************************

 Orbital symmetries:
 Alpha Orbitals:
       Occupied  (A) (A) (A) (A) (A) (A) (A) (A) (A) (A) (A) (A)
                 (A) (A) (A) (A) (A) (A) (A) (A) (A) (A) (A) (A)
                 (A) (A) (A) (A) (A) (A) (A) (A) (A) (A) (A) (A)
                 (A) (A) (A)
       Virtual   (A) (A) (A) (A) (A) (A) (A) (A) (A) (A) (A) (A)
                 (A) (A) (A) (A) (A) (A) (A) (A) (A) (A) (A) (A)
                 (A) (A) (A) (A) (A) (A) (A) (A) (A) (A) (A) (A)
                 (A) (A) (A) (A) (A) (A) (A) (A) (A) (A) (A) (A)
                 (A) (A) (A) (A) (A) (A) (A) (A) (A) (A) (A) (A)
                 (A) (A) (A) (A) (A) (A) (A) (A) (A) (A) (A) (A)
                 (A) (A) (A) (A) (A) (A) (A) (A) (A) (A) (A) (A)
                 (A) (A) (A) (A) (A) (A) (A) (A) (A) (A) (A) (A)
                 (A) (A) (A) (A) (A) (A) (A) (A) (A) (A) (A) (A)
                 (A) (A) (A) (A) (A) (A) (A) (A) (A) (A) (A) (A)
                 (A) (A) (A) (A) (A) (A) (A) (A) (A) (A) (A) (A)
                 (A) (A) (A) (A) (A) (A) (A) (A) (A) (A) (A) (A)
                 (A) (A) (A) (A) (A) (A) (A) (A) (A) (A) (A) (A)
                 (A) (A) (A) (A) (A) (A) (A) (A) (A) (A) (A) (A)
                 (A) (A) (A)
 Beta  Orbitals:
       Occupied  (A) (A) (A) (A) (A) (A) (A) (A) (A) (A) (A) (A)
                 (A) (A) (A) (A) (A) (A) (A) (A) (A) (A) (A) (A)
                 (A) (A) (A) (A) (A) (A) (A) (A) (A) (A) (A) (A)
                 (A) (A)
       Virtual   (A) (A) (A) (A) (A) (A) (A) (A) (A) (A) (A) (A)
                 (A) (A) (A) (A) (A) (A) (A) (A) (A) (A) (A) (A)
                 (A) (A) (A) (A) (A) (A) (A) (A) (A) (A) (A) (A)
                 (A) (A) (A) (A) (A) (A) (A) (A) (A) (A) (A) (A)
                 (A) (A) (A) (A) (A) (A) (A) (A) (A) (A) (A) (A)
                 (A) (A) (A) (A) (A) (A) (A) (A) (A) (A) (A) (A)
                 (A) (A) (A) (A) (A) (A) (A) (A) (A) (A) (A) (A)
                 (A) (A) (A) (A) (A) (A) (A) (A) (A) (A) (A) (A)
                 (A) (A) (A) (A) (A) (A) (A) (A) (A) (A) (A) (A)
                 (A) (A) (A) (A) (A) (A) (A) (A) (A) (A) (A) (A)
                 (A) (A) (A) (A) (A) (A) (A) (A) (A) (A) (A) (A)
                 (A) (A) (A) (A) (A) (A) (A) (A) (A) (A) (A) (A)
                 (A) (A) (A) (A) (A) (A) (A) (A) (A) (A) (A) (A)
                 (A) (A) (A) (A) (A) (A) (A) (A) (A) (A) (A) (A)
                 (A) (A) (A) (A)
 The electronic state is 2-A.
 Alpha  occ. eigenvalues --  -38.44423 -38.44347 -38.44321 -38.44183 -38.43970
 Alpha  occ. eigenvalues --  -38.43957 -38.43764  -2.20247  -2.20223  -2.20120
 Alpha  occ. eigenvalues --   -2.19962  -2.19779  -2.19730  -2.19652  -1.13947
 Alpha  occ. eigenvalues --   -1.13925  -1.13916  -1.13900  -1.13885  -1.13799
 Alpha  occ. eigenvalues --   -1.13791  -1.13769  -1.13753  -1.13614  -1.13612
 Alpha  occ. eigenvalues --   -1.13601  -1.13439  -1.13437  -1.13409  -1.13407
 Alpha  occ. eigenvalues --   -1.13395  -1.13370  -1.13344  -1.13309  -1.13250
 Alpha  occ. eigenvalues --   -0.16791  -0.13322  -0.12689  -0.10412
 Alpha virt. eigenvalues --   -0.06365  -0.06145  -0.04067  -0.03888  -0.02869
 Alpha virt. eigenvalues --   -0.02404  -0.02067  -0.01421  -0.01079  -0.00817
 Alpha virt. eigenvalues --   -0.00218  -0.00107  -0.00059   0.00379   0.00575
 Alpha virt. eigenvalues --    0.00689   0.00795   0.00899   0.01175   0.01226
 Alpha virt. eigenvalues --    0.01296   0.01448   0.01563   0.01650   0.01851
 Alpha virt. eigenvalues --    0.01860   0.01945   0.02099   0.02246   0.02307
 Alpha virt. eigenvalues --    0.02368   0.02570   0.02663   0.02879   0.02982
 Alpha virt. eigenvalues --    0.03064   0.03141   0.03297   0.03342   0.03402
 Alpha virt. eigenvalues --    0.03501   0.03771   0.03930   0.04256   0.04367
 Alpha virt. eigenvalues --    0.04438   0.04552   0.04948   0.05072   0.05210
 Alpha virt. eigenvalues --    0.05657   0.06252   0.06562   0.07011   0.07224
 Alpha virt. eigenvalues --    0.07544   0.07826   0.08016   0.08250   0.08305
 Alpha virt. eigenvalues --    0.08588   0.09329   0.09385   0.09774   0.10015
 Alpha virt. eigenvalues --    0.10297   0.10644   0.10910   0.11491   0.11914
 Alpha virt. eigenvalues --    0.12092   0.12269   0.12795   0.13300   0.13494
 Alpha virt. eigenvalues --    0.13979   0.14962   0.15173   0.16098   0.17283
 Alpha virt. eigenvalues --    0.26306   0.27347   0.29145   0.29844   0.30006
 Alpha virt. eigenvalues --    0.30604   0.30881   0.31214   0.31705   0.32349
 Alpha virt. eigenvalues --    0.33012   0.33667   0.34072   0.35493   0.36194
 Alpha virt. eigenvalues --    0.36773   0.37942   0.38544   0.39334   0.40037
 Alpha virt. eigenvalues --    0.41631   0.42286   0.42822   0.42887   0.43347
 Alpha virt. eigenvalues --    0.43667   0.43829   0.43894   0.43986   0.44211
 Alpha virt. eigenvalues --    0.44529   0.44791   0.45148   0.45690   0.45907
 Alpha virt. eigenvalues --    0.46071   0.46435   0.46812   0.47056   0.47311
 Alpha virt. eigenvalues --    0.48128   0.48274   0.48847   0.49958   0.50452
 Alpha virt. eigenvalues --    0.51165   0.52249   0.52674   0.53393   0.54806
 Alpha virt. eigenvalues --    0.59087   0.60081   0.63257   0.63508   0.66860
 Alpha virt. eigenvalues --    0.68675   2.02731   2.06162   2.09633   2.14128
 Alpha virt. eigenvalues --    2.14521   2.17781   2.21174   4.42689   4.42951
 Alpha virt. eigenvalues --    4.43429   4.43821   4.44059   4.44493   4.44762
 Alpha virt. eigenvalues --    4.44990   4.45122   4.45336   4.45661   4.45980
 Alpha virt. eigenvalues --    4.46776   4.47355   4.48932   4.49978   4.52291
 Alpha virt. eigenvalues --    4.55443   4.55971   4.59322   4.63484  96.21954
 Alpha virt. eigenvalues --   96.26242  96.30416  96.35902  96.36504  96.40559
 Alpha virt. eigenvalues --   96.45000
  Beta  occ. eigenvalues --  -38.44417 -38.44310 -38.44278 -38.44133 -38.43986
  Beta  occ. eigenvalues --  -38.43936 -38.43723  -2.20236  -2.20156  -2.20040
  Beta  occ. eigenvalues --   -2.19870  -2.19762  -2.19740  -2.19577  -1.13918
  Beta  occ. eigenvalues --   -1.13897  -1.13887  -1.13875  -1.13853  -1.13755
  Beta  occ. eigenvalues --   -1.13738  -1.13711  -1.13696  -1.13551  -1.13548
  Beta  occ. eigenvalues --   -1.13548  -1.13434  -1.13416  -1.13413  -1.13400
  Beta  occ. eigenvalues --   -1.13381  -1.13366  -1.13295  -1.13262  -1.13183
  Beta  occ. eigenvalues --   -0.16191  -0.13042  -0.12395
  Beta virt. eigenvalues --   -0.07083  -0.06028  -0.05638  -0.03748  -0.03547
  Beta virt. eigenvalues --   -0.02461  -0.02286  -0.01967  -0.01113  -0.01002
  Beta virt. eigenvalues --   -0.00443  -0.00002   0.00084   0.00162   0.00517
  Beta virt. eigenvalues --    0.00673   0.00758   0.00864   0.00922   0.01246
  Beta virt. eigenvalues --    0.01315   0.01375   0.01553   0.01629   0.01730
  Beta virt. eigenvalues --    0.01885   0.01928   0.02003   0.02206   0.02347
  Beta virt. eigenvalues --    0.02422   0.02450   0.02675   0.02767   0.02896
  Beta virt. eigenvalues --    0.03028   0.03132   0.03164   0.03327   0.03399
  Beta virt. eigenvalues --    0.03490   0.03642   0.03795   0.03971   0.04355
  Beta virt. eigenvalues --    0.04450   0.04604   0.04698   0.05030   0.05121
  Beta virt. eigenvalues --    0.05279   0.05753   0.06274   0.06680   0.07159
  Beta virt. eigenvalues --    0.07316   0.07553   0.07945   0.08075   0.08361
  Beta virt. eigenvalues --    0.08531   0.08696   0.09439   0.09524   0.09985
  Beta virt. eigenvalues --    0.10126   0.10413   0.10845   0.11095   0.11695
  Beta virt. eigenvalues --    0.12131   0.12348   0.12394   0.13143   0.13469
  Beta virt. eigenvalues --    0.13631   0.14203   0.15013   0.15408   0.16292
  Beta virt. eigenvalues --    0.17492   0.26534   0.27705   0.29386   0.30069
  Beta virt. eigenvalues --    0.30292   0.30885   0.31037   0.31480   0.31831
  Beta virt. eigenvalues --    0.32500   0.33273   0.33706   0.34238   0.35894
  Beta virt. eigenvalues --    0.36672   0.37135   0.38128   0.38548   0.39582
  Beta virt. eigenvalues --    0.40255   0.41818   0.42410   0.42942   0.43098
  Beta virt. eigenvalues --    0.43457   0.43850   0.43968   0.44078   0.44114
  Beta virt. eigenvalues --    0.44259   0.44627   0.44939   0.45298   0.45875
  Beta virt. eigenvalues --    0.45983   0.46285   0.46511   0.46969   0.47122
  Beta virt. eigenvalues --    0.47460   0.48202   0.48450   0.49010   0.50124
  Beta virt. eigenvalues --    0.50603   0.51331   0.52540   0.52869   0.53582
  Beta virt. eigenvalues --    0.54989   0.59306   0.60309   0.63334   0.63688
  Beta virt. eigenvalues --    0.67018   0.68874   2.02843   2.06267   2.09728
  Beta virt. eigenvalues --    2.14147   2.14667   2.17886   2.21347   4.42720
  Beta virt. eigenvalues --    4.42995   4.43472   4.43861   4.44113   4.44532
  Beta virt. eigenvalues --    4.44804   4.45037   4.45163   4.45396   4.45674
  Beta virt. eigenvalues --    4.45992   4.46826   4.47361   4.48982   4.50026
  Beta virt. eigenvalues --    4.52351   4.55468   4.56001   4.59369   4.63528
  Beta virt. eigenvalues --   96.21994  96.26278  96.30452  96.35913  96.36549
  Beta virt. eigenvalues --   96.40591  96.45051
          Condensed to atoms (all electrons):
               1          2          3          4          5          6
     1  Na  11.287088   0.439937  -0.249384   0.185795   0.002358  -1.203602
     2  Na   0.439937  11.185952  -0.314035   0.326005  -0.087346  -1.313721
     3  Na  -0.249384  -0.314035  11.195786  -0.122447   0.366129   0.518213
     4  Na   0.185795   0.326005  -0.122447  10.624833  -0.053027  -0.532605
     5  Na   0.002358  -0.087346   0.366129  -0.053027  10.723666   0.003524
     6  Na  -1.203602  -1.313721   0.518213  -0.532605   0.003524  14.974091
     7  Na  -0.062884  -0.251844   0.065515  -0.015280  -0.025918   0.263428
               7
     1  Na  -0.062884
     2  Na  -0.251844
     3  Na   0.065515
     4  Na  -0.015280
     5  Na  -0.025918
     6  Na   0.263428
     7  Na  11.130959
          Atomic-Atomic Spin Densities.
               1          2          3          4          5          6
     1  Na   0.386819  -0.184974   0.124029  -0.082903   0.121413   0.018007
     2  Na  -0.184974  -0.208619   0.155494  -0.098982   0.066119   0.362569
     3  Na   0.124029   0.155494  -0.179478   0.059075  -0.026650  -0.130400
     4  Na  -0.082903  -0.098982   0.059075   0.047026   0.004819   0.215459
     5  Na   0.121413   0.066119  -0.026650   0.004819   0.263940  -0.174251
     6  Na   0.018007   0.362569  -0.130400   0.215459  -0.174251  -0.328553
     7  Na   0.081753   0.104122  -0.107344   0.093885  -0.069542  -0.025092
               7
     1  Na   0.081753
     2  Na   0.104122
     3  Na  -0.107344
     4  Na   0.093885
     5  Na  -0.069542
     6  Na  -0.025092
     7  Na   0.005655
 Mulliken charges and spin densities:
               1          2
     1  Na   0.600691   0.464144
     2  Na   1.015053   0.195729
     3  Na  -0.459778  -0.105274
     4  Na   0.586726   0.238379
     5  Na   0.070614   0.185848
     6  Na  -1.709329  -0.062261
     7  Na  -0.103977   0.083436
 Sum of Mulliken charges =  -0.00000   1.00000
 Mulliken charges and spin densities with hydrogens summed into heavy atoms:
               1          2
     1  Na   0.600691   0.464144
     2  Na   1.015053   0.195729
     3  Na  -0.459778  -0.105274
     4  Na   0.586726   0.238379
     5  Na   0.070614   0.185848
     6  Na  -1.709329  -0.062261
     7  Na  -0.103977   0.083436
 Electronic spatial extent (au):  <R**2>=           4567.6453
 Charge=              0.0000 electrons
 Dipole moment (field-independent basis, Debye):
    X=              0.9693    Y=              0.2222    Z=             -0.3102  Tot=              1.0417
 Quadrupole moment (field-independent basis, Debye-Ang):
   XX=            -70.0327   YY=            -57.0890   ZZ=            -69.9386
   XY=              3.0459   XZ=             -3.1028   YZ=             -3.9020
 Traceless Quadrupole moment (field-independent basis, Debye-Ang):
   XX=             -4.3459   YY=              8.5978   ZZ=             -4.2519
   XY=              3.0459   XZ=             -3.1028   YZ=             -3.9020
 Octapole moment (field-independent basis, Debye-Ang**2):
  XXX=             35.4459  YYY=             32.8096  ZZZ=              1.5986  XYY=              7.5524
  XXY=            -46.3763  XXZ=             11.6016  XZZ=              1.8851  YZZ=              2.8302
  YYZ=            -19.0680  XYZ=             16.6301
 Hexadecapole moment (field-independent basis, Debye-Ang**3):
 XXXX=          -5184.8669 YYYY=          -1710.6229 ZZZZ=           -427.5383 XXXY=             94.3255
 XXXZ=           -209.4813 YYYX=             94.0429 YYYZ=            -57.8186 ZZZX=             -2.6162
 ZZZY=            -17.8179 XXYY=          -1044.3251 XXZZ=           -941.4332 YYZZ=           -403.2430
 XXYZ=            -83.1931 YYXZ=            -47.7467 ZZXY=             10.3388
 N-N= 2.727301300248D+02 E-N=-3.274609532214D+03  KE= 1.132868697838D+03
                          Isotropic Fermi Contact Couplings
        Atom                 a.u.       MegaHertz       Gauss      10(-4) cm-1
     1  Na(23)             0.12589     148.93729      53.14453      49.68013
     2  Na(23)             0.01663      19.67879       7.02188       6.56414
     3  Na(23)            -0.10247    -121.22276     -43.25529     -40.43556
     4  Na(23)             0.07334      86.76534      30.96003      28.94180
     5  Na(23)             0.21710     256.82966      91.64321      85.66915
     6  Na(23)             0.15529     183.70914      65.55199      61.27877
     7  Na(23)             0.17203     203.51325      72.61859      67.88471
 --------------------------------------------------------
       Center         ----  Spin Dipole Couplings  ----
                      3XX-RR        3YY-RR        3ZZ-RR
 --------------------------------------------------------
     1   Atom        0.021783     -0.006655     -0.015129
     2   Atom        0.009381     -0.006084     -0.003297
     3   Atom        0.021123     -0.008694     -0.012429
     4   Atom       -0.006627      0.009200     -0.002573
     5   Atom       -0.000422     -0.000422      0.000844
     6   Atom       -0.009015      0.013920     -0.004906
     7   Atom        0.003529      0.001491     -0.005020
 --------------------------------------------------------
                        XY            XZ            YZ
 --------------------------------------------------------
     1   Atom        0.004187     -0.000616      0.000501
     2   Atom       -0.002310      0.006043     -0.000008
     3   Atom        0.010813     -0.006671     -0.003440
     4   Atom        0.007224      0.004129      0.008943
     5   Atom       -0.004025      0.002526      0.001608
     6   Atom        0.010411      0.004655      0.008598
     7   Atom       -0.009457     -0.000019     -0.000285
 --------------------------------------------------------


 ---------------------------------------------------------------------------------
              Anisotropic Spin Dipole Couplings in Principal Axis System
 ---------------------------------------------------------------------------------

       Atom             a.u.   MegaHertz   Gauss  10(-4) cm-1        Axes

              Baa    -0.0152    -2.144    -0.765    -0.715  0.0246 -0.0707  0.9972
     1 Na(23) Bbb    -0.0072    -1.019    -0.364    -0.340 -0.1410  0.9873  0.0734
              Bcc     0.0224     3.162     1.128     1.055  0.9897  0.1424 -0.0143
 
              Baa    -0.0069    -0.978    -0.349    -0.326  0.2993  0.8148 -0.4964
     2 Na(23) Bbb    -0.0051    -0.724    -0.258    -0.242 -0.2379  0.5676  0.7882
              Bcc     0.0121     1.702     0.607     0.568  0.9240 -0.1178  0.3638
 
              Baa    -0.0145    -2.045    -0.730    -0.682  0.0136  0.4922  0.8704
     3 Na(23) Bbb    -0.0116    -1.635    -0.584    -0.546 -0.3618  0.8139 -0.4546
              Bcc     0.0261     3.680     1.313     1.227  0.9321  0.3088 -0.1892
 
              Baa    -0.0096    -1.353    -0.483    -0.451  0.9394 -0.2491 -0.2357
     4 Na(23) Bbb    -0.0074    -1.042    -0.372    -0.347  0.0833 -0.5010  0.8614
              Bcc     0.0170     2.394     0.854     0.799  0.3327  0.8288  0.4499
 
              Baa    -0.0058    -0.812    -0.290    -0.271  0.6655  0.6255 -0.4073
     5 Na(23) Bbb     0.0019     0.273     0.097     0.091  0.0424  0.5131  0.8573
              Bcc     0.0038     0.539     0.193     0.180  0.7452 -0.5878  0.3150
 
              Baa    -0.0133    -1.881    -0.671    -0.628  0.9319 -0.2855 -0.2237
     6 Na(23) Bbb    -0.0082    -1.156    -0.412    -0.386  0.0963 -0.3999  0.9115
              Bcc     0.0215     3.037     1.084     1.013  0.3497  0.8710  0.3451
 
              Baa    -0.0070    -0.992    -0.354    -0.331  0.6632  0.7401  0.1114
     7 Na(23) Bbb    -0.0050    -0.706    -0.252    -0.235 -0.0821 -0.0760  0.9937
              Bcc     0.0120     1.698     0.606     0.566  0.7439 -0.6682  0.0104
 

 ---------------------------------------------------------------------------------

 No NMR shielding tensors so no spin-rotation constants.
 Leave Link  601 at Wed Nov 29 03:40:03 2023, MaxMem=  1879048192 cpu:               2.3 elap:               0.2
 (Enter /home/sekinelabo/g16/l701.exe)
 ... and contract with generalized density number  0.
 Compute integral first derivatives.
 Leave Link  701 at Wed Nov 29 03:40:03 2023, MaxMem=  1879048192 cpu:               1.5 elap:               0.1
 (Enter /home/sekinelabo/g16/l702.exe)
 L702 exits ... SP integral derivatives will be done elsewhere.
 Leave Link  702 at Wed Nov 29 03:40:03 2023, MaxMem=  1879048192 cpu:               0.4 elap:               0.0
 (Enter /home/sekinelabo/g16/l703.exe)
 Integral derivatives from FoFJK, PRISM(SPDF).
 Compute integral first derivatives, UseDBF=F ICtDFT=           0.
 Calling FoFJK, ICntrl=      2127 FMM=F ISym2X=0 I1Cent= 0 IOpClX= 1 NMat=1 NMatS=1 NMatT=0.
 FoFJK:  IHMeth= 1 ICntrl=    2127 DoSepK=F KAlg= 0 I1Cent=           0 FoldK=F
 IRaf=         0 NMat=       1 IRICut=       1 DoRegI=T DoRafI=F ISym2E= 0 IDoP0=0 IntGTp=1.
 FoFCou: FMM=F IPFlag=           0 FMFlag=      100000 FMFlg1=         800
         NFxFlg=           0 DoJE=F BraDBF=F KetDBF=F FulRan=T
         wScrn=  0.000000 ICntrl=      2127 IOpCl=  1 I1Cent=           0 NGrid=           0
         NMat0=    1 NMatS0=      1 NMatT0=    0 NMatD0=    1 NMtDS0=    0 NMtDT0=    0
 Symmetry not used in FoFCou.
 Leave Link  703 at Wed Nov 29 03:40:05 2023, MaxMem=  1879048192 cpu:              28.0 elap:               1.9
 (Enter /home/sekinelabo/g16/l716.exe)
 Dipole        = 3.81336595D-01 8.74377432D-02-1.22033670D-01
 ***** Axes restored to original set *****
 -------------------------------------------------------------------
 Center     Atomic                   Forces (Hartrees/Bohr)
 Number     Number              X              Y              Z
 -------------------------------------------------------------------
      1       11           0.000271045    0.002260900   -0.002724622
      2       11          -0.001734531    0.000304316   -0.001542266
      3       11          -0.000706560    0.002359348    0.001726097
      4       11          -0.000520949    0.000196482    0.000028010
      5       11           0.000152697   -0.001063193   -0.002657630
      6       11           0.004247506   -0.001626900    0.005758778
      7       11          -0.001709207   -0.002430954   -0.000588367
 -------------------------------------------------------------------
 Cartesian Forces:  Max     0.005758778 RMS     0.002167837
 Z-matrix is all fixed cartesians, so copy forces.
 Force constants in Cartesian coordinates: 
                1             2             3             4             5 
      1  0.855350D-01
      2 -0.408633D-02  0.760924D-01
      3  0.135856D-01  0.753535D-03  0.539851D-01
      4 -0.168625D-01  0.125118D-01  0.526942D-02  0.183674D-01
      5 -0.158570D-02 -0.212372D-01 -0.128480D-01 -0.133910D-02  0.415445D-01
      6 -0.288940D-02  0.275245D-02 -0.787094D-02  0.865184D-02  0.981067D-02
      7  0.713644D-02  0.189546D-02 -0.327214D-02  0.127177D-02  0.483582D-03
      8  0.242285D-02  0.347954D-02  0.244496D-02 -0.118886D-02  0.402730D-02
      9 -0.247315D-02  0.174279D-02  0.414271D-02 -0.181202D-02  0.310114D-02
     10 -0.233221D-01 -0.131992D-01  0.324565D-02  0.433995D-02  0.131739D-02
     11  0.465035D-02 -0.201237D-01  0.696482D-02 -0.269687D-02 -0.808836D-03
     12 -0.376467D-02 -0.301725D-02 -0.113317D-01 -0.270289D-02 -0.900947D-03
     13 -0.301885D-03 -0.116783D-03  0.925263D-04  0.640159D-04  0.175095D-04
     14 -0.185339D-03 -0.716975D-04  0.568053D-04  0.393017D-04  0.107497D-04
     15  0.345189D-04  0.133535D-04 -0.105799D-04 -0.731985D-05 -0.200211D-05
     16 -0.375941D-01  0.355904D-02 -0.979016D-02 -0.101095D-01  0.135820D-02
     17 -0.618959D-02 -0.332582D-01  0.409519D-02 -0.356145D-02 -0.247707D-01
     18 -0.132466D-02  0.523299D-03 -0.306951D-01 -0.629181D-02  0.575892D-02
     19 -0.145909D-01 -0.563993D-03 -0.913086D-02  0.292883D-02 -0.251880D-03
     20  0.497377D-02 -0.488103D-02 -0.146726D-02 -0.376485D-02  0.123415D-02
     21 -0.316820D-02 -0.276817D-02 -0.821949D-02 -0.310722D-02 -0.491974D-02
                6             7             8             9            10 
      6  0.376243D-01
      7 -0.559757D-03  0.136700D-01
      8 -0.106126D-02 -0.587831D-02  0.255043D-01
      9 -0.543185D-03 -0.158839D-02  0.100247D-01  0.328229D-01
     10 -0.170206D-02 -0.103357D-03 -0.597020D-04  0.149936D-04  0.228308D-01
     11  0.105969D-02  0.756912D-04  0.356701D-04 -0.177927D-04  0.526252D-02
     12  0.129080D-02  0.190860D-03  0.878766D-04 -0.466154D-04  0.983653D-02
     13 -0.257591D-04 -0.316871D-02  0.471181D-02  0.270225D-02  0.000000D+00
     14 -0.158145D-04  0.420320D-02 -0.895468D-02 -0.817962D-02  0.000000D+00
     15  0.294541D-05  0.201085D-03 -0.420781D-02 -0.214189D-01  0.000000D+00
     16 -0.451584D-02 -0.205259D-01 -0.170527D-02  0.281000D-02  0.603894D-02
     17 -0.978470D-02  0.303068D-03 -0.227316D-01 -0.620626D-02  0.180837D-02
     18 -0.327216D-01  0.367207D-02 -0.100608D-01 -0.164430D-01  0.169716D-02
     19  0.104098D-02  0.171973D-02  0.169748D-02  0.346310D-03 -0.978415D-02
     20 -0.276103D-02 -0.108268D-02 -0.136054D-02 -0.464979D-03  0.487063D-02
     21  0.221762D-02  0.135626D-02  0.277233D-02  0.148614D-02 -0.130923D-01
               11            12            13            14            15 
     11  0.398664D-01
     12 -0.120102D-01  0.260622D-01
     13  0.000000D+00  0.000000D+00  0.204896D-02
     14  0.000000D+00  0.000000D+00 -0.308439D-02  0.620820D-02
     15  0.000000D+00  0.000000D+00 -0.615503D-03  0.514660D-02  0.224759D-01
     16 -0.889265D-03  0.221100D-02  0.139319D-02 -0.950941D-03  0.383152D-03
     17 -0.329103D-02  0.193860D-02 -0.153847D-02  0.280109D-02 -0.948958D-03
     18  0.392764D-02  0.322118D-02 -0.218479D-02  0.297283D-02 -0.104580D-02
     19 -0.640242D-02 -0.577084D-02 -0.355671D-04 -0.218360D-04  0.406690D-05
     20 -0.156785D-01  0.139019D-01  0.103150D-04  0.633276D-05 -0.117946D-05
     21  0.758297D-04 -0.191959D-01  0.312710D-04  0.191985D-04 -0.357566D-05
               16            17            18            19            20 
     16  0.705920D-01
     17  0.632107D-02  0.950062D-01
     18  0.110048D-01  0.123600D-02  0.960358D-01
     19 -0.979469D-02  0.285700D-02 -0.657282D-02  0.295567D-01
     20 -0.769283D-02 -0.137558D-01 -0.435789D-02  0.268564D-02  0.344354D-01
     21 -0.210300D-02  0.967013D-02 -0.183515D-01  0.200832D-01 -0.484957D-02
               21 
     21  0.420666D-01
 Leave Link  716 at Wed Nov 29 03:40:05 2023, MaxMem=  1879048192 cpu:               0.4 elap:               0.0
 (Enter /home/sekinelabo/g16/l103.exe)

 GradGradGradGradGradGradGradGradGradGradGradGradGradGradGradGradGradGrad
 Berny optimization.
 Search for a local minimum.
 Step number   1 out of a maximum of    2
 All quantities printed in internal units (Hartrees-Bohrs-Radians)
 Second derivative matrix not updated -- first step.
 ITU=  0
     Eigenvalues ---    0.00134   0.00523   0.01143   0.01501   0.02234
     Eigenvalues ---    0.02848   0.04288   0.05143   0.05845   0.06953
     Eigenvalues ---    0.07885   0.09036   0.12056   0.12899   0.14376
 Quadratic step=3.272D-01 exceeds max=3.000D-01 adjusted using Lamda=-2.540D-04.
 Angle between NR and scaled steps=   4.00 degrees.
 Angle between quadratic step and forces=  60.71 degrees.
 Linear search not attempted -- first point.
 B after Tr=     0.000000    0.000000    0.000000
         Rot=    1.000000   -0.000000   -0.000000    0.000000 Ang=   0.00 deg.
 Variable       Old X    -DE/DX   Delta X   Delta X   Delta X     New X
                                 (Linear)    (Quad)   (Total)
    X1       25.54286   0.00027   0.00000   0.01664   0.01664  25.55950
    Y1       31.54293   0.00226   0.00000   0.01277   0.01277  31.55570
    Z1       24.87182  -0.00272   0.00000   0.01375   0.01375  24.88557
    X2       26.54631  -0.00173   0.00000  -0.07334  -0.07334  26.47296
    Y2       25.42456   0.00030   0.00000  -0.02346  -0.02346  25.40111
    Z2       22.82147  -0.00154   0.00000   0.06788   0.06788  22.88934
    X3       31.48492  -0.00071   0.00000   0.09831   0.09831  31.58323
    Y3       22.94902   0.00236   0.00000   0.14552   0.14552  23.09454
    Z3       33.41206   0.00173   0.00000  -0.03329  -0.03329  33.37877
    X4       28.85574  -0.00052   0.00000   0.01391   0.01391  28.86965
    Y4       37.04732   0.00020   0.00000  -0.03239  -0.03239  37.01493
    Z4       24.73160   0.00003   0.00000  -0.01850  -0.01850  24.71310
    X5       31.06804   0.00015   0.00000  -0.12239  -0.12239  30.94565
    Y5       24.73670  -0.00106   0.00000  -0.06356  -0.06356  24.67314
    Z5       39.36470  -0.00266   0.00000  -0.10893  -0.10893  39.25576
    X6       28.19830   0.00425   0.00000   0.07979   0.07979  28.27810
    Y6       27.33659  -0.00163   0.00000   0.00385   0.00385  27.34044
    Z6       28.22665   0.00576   0.00000   0.07783   0.07783  28.30448
    X7       31.30842  -0.00171   0.00000  -0.01291  -0.01291  31.29551
    Y7       33.96783  -0.00243   0.00000  -0.04273  -0.04273  33.92510
    Z7       29.57667  -0.00059   0.00000   0.00127   0.00127  29.57794
         Item               Value     Threshold  Converged?
 Maximum Force            0.005759     0.000450     NO 
 RMS     Force            0.002168     0.000300     NO 
 Maximum Displacement     0.145519     0.001800     NO 
 RMS     Displacement     0.065472     0.001200     NO 
 Predicted change in Energy=-7.404417D-04
 GradGradGradGradGradGradGradGradGradGradGradGradGradGradGradGradGradGrad

 Leave Link  103 at Wed Nov 29 03:40:05 2023, MaxMem=  1879048192 cpu:               0.2 elap:               0.0
 (Enter /home/sekinelabo/g16/l9999.exe)
 1\1\GINC-SEKINELABO-XA7R-R37\Force\UB3LYP\6-311+G(d)\Na7(2)\SEKINELABO
 \29-Nov-2023\0\\#P B3LYP/6-311+g(d) force\\DPGEN\\0,2\Na,13.5167,16.69
 18,13.1616\Na,14.0477,13.4541,12.0766\Na,16.6611,12.1441,17.6809\Na,15
 .2698,19.6046,13.0874\Na,16.4405,13.0901,20.8309\Na,14.9219,14.4659,14
 .9369\Na,16.5677,17.975,15.6513\\Version=ES64L-G16RevB.01\State=2-A\HF
 =-1136.1145379\S2=0.779172\S2-1=0.\S2A=0.75048\RMSD=6.123e-09\RMSF=2.1
 68e-03\Dipole=-0.0031414,0.1384499,-0.3857161\Quadrupole=-4.4869231,0.
 9803718,3.5065513,1.8433937,0.0162377,5.4239942\PG=C01 [X(Na7)]\\@


  ON THE CHOICE OF THE CORRECT LANGUAGE -
 I SPEAK SPANISH TO GOD, ITALIAN TO WOMEN,
 FRENCH TO MEN, AND GERMAN TO MY HORSE.
          -- CHARLES V
 Job cpu time:       0 days  0 hours  3 minutes 26.9 seconds.
 Elapsed time:       0 days  0 hours  0 minutes 18.0 seconds.
 File lengths (MBytes):  RWF=     32 Int=      0 D2E=      0 Chk=      4 Scr=      1
 Normal termination of Gaussian 16 at Wed Nov 29 03:40:05 2023.
