 Set GAUSS_MDEF to "14GB".
 Entering Gaussian System, Link 0=g16
 Initial command:
 /home/sekinelabo/g16/l1.exe "/home/sekinelabo/g16temp/Gau-286650.inp" -scrdir="/home/sekinelabo/g16temp/"
 Entering Link 1 = /home/sekinelabo/g16/l1.exe PID=    286652.
  
 Copyright (c) 1988-2017, Gaussian, Inc.  All Rights Reserved.
  
 This is part of the Gaussian(R) 16 program.  It is based on
 the Gaussian(R) 09 system (copyright 2009, Gaussian, Inc.),
 the Gaussian(R) 03 system (copyright 2003, Gaussian, Inc.),
 the Gaussian(R) 98 system (copyright 1998, Gaussian, Inc.),
 the Gaussian(R) 94 system (copyright 1995, Gaussian, Inc.),
 the Gaussian 92(TM) system (copyright 1992, Gaussian, Inc.),
 the Gaussian 90(TM) system (copyright 1990, Gaussian, Inc.),
 the Gaussian 88(TM) system (copyright 1988, Gaussian, Inc.),
 the Gaussian 86(TM) system (copyright 1986, Carnegie Mellon
 University), and the Gaussian 82(TM) system (copyright 1983,
 Carnegie Mellon University). Gaussian is a federally registered
 trademark of Gaussian, Inc.
  
 This software contains proprietary and confidential information,
 including trade secrets, belonging to Gaussian, Inc.
  
 This software is provided under written license and may be
 used, copied, transmitted, or stored only in accord with that
 written license.
  
 The following legend is applicable only to US Government
 contracts under FAR:
  
                    RESTRICTED RIGHTS LEGEND
  
 Use, reproduction and disclosure by the US Government is
 subject to restrictions as set forth in subparagraphs (a)
 and (c) of the Commercial Computer Software - Restricted
 Rights clause in FAR 52.227-19.
  
 Gaussian, Inc.
 340 Quinnipiac St., Bldg. 40, Wallingford CT 06492
  
  
 ---------------------------------------------------------------
 Warning -- This program may not be used in any manner that
 competes with the business of Gaussian, Inc. or will provide
 assistance to any competitor of Gaussian, Inc.  The licensee
 of this program is prohibited from giving any competitor of
 Gaussian, Inc. access to this program.  By using this program,
 the user acknowledges that Gaussian, Inc. is engaged in the
 business of creating and licensing software in the field of
 computational chemistry and represents and warrants to the
 licensee that it is not a competitor of Gaussian, Inc. and that
 it will not use this program in any manner prohibited above.
 ---------------------------------------------------------------
  

 Cite this work as:
 Gaussian 16, Revision B.01,
 M. J. Frisch, G. W. Trucks, H. B. Schlegel, G. E. Scuseria, 
 M. A. Robb, J. R. Cheeseman, G. Scalmani, V. Barone, 
 G. A. Petersson, H. Nakatsuji, X. Li, M. Caricato, A. V. Marenich, 
 J. Bloino, B. G. Janesko, R. Gomperts, B. Mennucci, H. P. Hratchian, 
 J. V. Ortiz, A. F. Izmaylov, J. L. Sonnenberg, D. Williams-Young, 
 F. Ding, F. Lipparini, F. Egidi, J. Goings, B. Peng, A. Petrone, 
 T. Henderson, D. Ranasinghe, V. G. Zakrzewski, J. Gao, N. Rega, 
 G. Zheng, W. Liang, M. Hada, M. Ehara, K. Toyota, R. Fukuda, 
 J. Hasegawa, M. Ishida, T. Nakajima, Y. Honda, O. Kitao, H. Nakai, 
 T. Vreven, K. Throssell, J. A. Montgomery, Jr., J. E. Peralta, 
 F. Ogliaro, M. J. Bearpark, J. J. Heyd, E. N. Brothers, K. N. Kudin, 
 V. N. Staroverov, T. A. Keith, R. Kobayashi, J. Normand, 
 K. Raghavachari, A. P. Rendell, J. C. Burant, S. S. Iyengar, 
 J. Tomasi, M. Cossi, J. M. Millam, M. Klene, C. Adamo, R. Cammi, 
 J. W. Ochterski, R. L. Martin, K. Morokuma, O. Farkas, 
 J. B. Foresman, and D. J. Fox, Gaussian, Inc., Wallingford CT, 2016.
 
 ******************************************
 Gaussian 16:  ES64L-G16RevB.01 20-Dec-2017
                29-Nov-2023 
 ******************************************
 %nproc=15
 Will use up to   15 processors via shared memory.
 -------------------------
 #P B3LYP/6-311+g(d) force
 -------------------------
 1/10=7,30=1,38=1/1,3;
 2/12=2,17=6,18=5,40=1/2;
 3/5=4,6=6,7=11,11=2,25=1,30=1,71=1,74=-5/1,2,3;
 4//1;
 5/5=2,38=5/2;
 6/7=2,8=2,9=2,10=2,28=1/1;
 7/29=1/1,2,3,16;
 1/10=7,30=1/3;
 99//99;
 Leave Link    1 at Wed Nov 29 01:45:10 2023, MaxMem=           0 cpu:               0.3 elap:               0.0
 (Enter /home/sekinelabo/g16/l101.exe)
 -----
 DPGEN
 -----
 Symbolic Z-matrix:
 Charge =  0 Multiplicity = 2
 Na                    14.3076   15.9296   15.308 
 Na                    13.2702   18.3801   17.9173 
 Na                    14.3804   15.4347   18.3024 
 Na                    17.6893   14.2937   15.9306 
 Na                    16.4242   14.8235   12.4194 
 Na                    16.1367   12.1047   17.6595 
 Na                    15.2172   16.4592   9.88829 
 
 ITRead=  0  0  0  0  0  0  0
 MicOpt= -1 -1 -1 -1 -1 -1 -1
 NAtoms=      7 NQM=        7 NQMF=       0 NMMI=      0 NMMIF=      0
                NMic=       0 NMicF=      0.
                    Isotopes and Nuclear Properties:
 (Nuclear quadrupole moments (NQMom) in fm**2, nuclear magnetic moments (NMagM)
  in nuclear magnetons)

  Atom         1           2           3           4           5           6           7
 IAtWgt=          23          23          23          23          23          23          23
 AtmWgt=  22.9897697  22.9897697  22.9897697  22.9897697  22.9897697  22.9897697  22.9897697
 NucSpn=           3           3           3           3           3           3           3
 AtZEff=  -0.0000000  -0.0000000  -0.0000000  -0.0000000  -0.0000000  -0.0000000  -0.0000000
 NQMom=   10.4000000  10.4000000  10.4000000  10.4000000  10.4000000  10.4000000  10.4000000
 NMagM=    2.2175200   2.2175200   2.2175200   2.2175200   2.2175200   2.2175200   2.2175200
 AtZNuc=  11.0000000  11.0000000  11.0000000  11.0000000  11.0000000  11.0000000  11.0000000
 Leave Link  101 at Wed Nov 29 01:45:10 2023, MaxMem=  1879048192 cpu:               2.4 elap:               0.2
 (Enter /home/sekinelabo/g16/l103.exe)

 GradGradGradGradGradGradGradGradGradGradGradGradGradGradGradGradGradGrad
 Berny optimization.
 Initialization pass.
 Trust Radius=3.00D-01 FncErr=1.00D-07 GrdErr=1.00D-07 EigMax=2.50D+02 EigMin=1.00D-04
 Number of steps in this run=      2 maximum allowed number of steps=      2.
 GradGradGradGradGradGradGradGradGradGradGradGradGradGradGradGradGradGrad

 Leave Link  103 at Wed Nov 29 01:45:10 2023, MaxMem=  1879048192 cpu:               0.2 elap:               0.0
 (Enter /home/sekinelabo/g16/l202.exe)
                          Input orientation:                          
 ---------------------------------------------------------------------
 Center     Atomic      Atomic             Coordinates (Angstroms)
 Number     Number       Type             X           Y           Z
 ---------------------------------------------------------------------
      1         11           0       14.307600   15.929600   15.308000
      2         11           0       13.270200   18.380100   17.917300
      3         11           0       14.380400   15.434700   18.302400
      4         11           0       17.689300   14.293700   15.930600
      5         11           0       16.424200   14.823500   12.419400
      6         11           0       16.136700   12.104700   17.659500
      7         11           0       15.217200   16.459200    9.888290
 ---------------------------------------------------------------------
                    Distance matrix (angstroms):
                    1          2          3          4          5
     1  Na   0.000000
     2  Na   3.726875   0.000000
     3  Na   3.035895   3.171156   0.000000
     4  Na   3.807846   6.338303   4.228018   0.000000
     5  Na   3.747994   7.268014   6.257825   3.769574   0.000000
     6  Na   4.848198   6.903907   3.819268   3.192395   5.910430
     7  Na   5.520970   8.482079   8.517457   6.878240   3.246364
                    6          7
     6  Na   0.000000
     7  Na   8.955381   0.000000
 Stoichiometry    Na7(2)
 Framework group  C1[X(Na7)]
 Deg. of freedom    15
 Full point group                 C1      NOp   1
 Largest Abelian subgroup         C1      NOp   1
 Largest concise Abelian subgroup C1      NOp   1
                         Standard orientation:                         
 ---------------------------------------------------------------------
 Center     Atomic      Atomic             Coordinates (Angstroms)
 Number     Number       Type             X           Y           Z
 ---------------------------------------------------------------------
      1         11           0       -0.058700    1.073111   -0.515576
      2         11           0       -2.593766    3.633886    0.435985
      3         11           0       -3.044366    0.577162   -0.277898
      4         11           0       -0.339376   -2.213001    1.387680
      5         11           0        2.998493   -0.998014    0.125885
      6         11           0       -2.420763   -3.147922   -0.845062
      7         11           0        5.458478    1.074780   -0.311014
 ---------------------------------------------------------------------
 Rotational constants (GHZ):           0.6292791           0.3432345           0.2378877
 Leave Link  202 at Wed Nov 29 01:45:10 2023, MaxMem=  1879048192 cpu:               0.0 elap:               0.0
 (Enter /home/sekinelabo/g16/l301.exe)
 Standard basis: 6-311+G(d) (5D, 7F)
 Ernie: Thresh=  0.10000D-02 Tol=  0.10000D-05 Strict=F.
 There are   217 symmetry adapted cartesian basis functions of A   symmetry.
 There are   210 symmetry adapted basis functions of A   symmetry.
   210 basis functions,   350 primitive gaussians,   217 cartesian basis functions
    39 alpha electrons       38 beta electrons
       nuclear repulsion energy       286.6215265929 Hartrees.
 IExCor=  402 DFT=T Ex+Corr=B3LYP ExCW=0 ScaHFX=  0.200000
 ScaDFX=  0.800000  0.720000  1.000000  0.810000 ScalE2=  1.000000  1.000000
 IRadAn=      5 IRanWt=     -1 IRanGd=            0 ICorTp=0 IEmpDi=  4
 NAtoms=    7 NActive=    7 NUniq=    7 SFac= 1.00D+00 NAtFMM=   60 NAOKFM=F Big=F
 Integral buffers will be    131072 words long.
 Raffenetti 2 integral format.
 Two-electron integral symmetry is turned on.
 Leave Link  301 at Wed Nov 29 01:45:10 2023, MaxMem=  1879048192 cpu:               0.5 elap:               0.0
 (Enter /home/sekinelabo/g16/l302.exe)
 NPDir=0 NMtPBC=     1 NCelOv=     1 NCel=       1 NClECP=     1 NCelD=      1
         NCelK=      1 NCelE2=     1 NClLst=     1 CellRange=     0.0.
 One-electron integrals computed using PRISM.
 One-electron integral symmetry used in STVInt
 NBasis=   210 RedAO= T EigKep=  7.28D-06  NBF=   210
 NBsUse=   210 1.00D-06 EigRej= -1.00D+00 NBFU=   210
 Precomputing XC quadrature grid using
 IXCGrd= 4 IRadAn=           5 IRanWt=          -1 IRanGd=           0 AccXCQ= 0.00D+00.
 Generated NRdTot=       0 NPtTot=           0 NUsed=           0 NTot=          32
 NSgBfM=   208   208   208   208   208 MxSgAt=     7 MxSgA2=     7.
 Leave Link  302 at Wed Nov 29 01:45:10 2023, MaxMem=  1879048192 cpu:               2.0 elap:               0.1
 (Enter /home/sekinelabo/g16/l303.exe)
 DipDrv:  MaxL=1.
 Leave Link  303 at Wed Nov 29 01:45:10 2023, MaxMem=  1879048192 cpu:               0.6 elap:               0.0
 (Enter /home/sekinelabo/g16/l401.exe)
 ExpMin= 7.60D-03 ExpMax= 3.62D+04 ExpMxC= 1.21D+03 IAcc=3 IRadAn=         5 AccDes= 0.00D+00
 Harris functional with IExCor=  402 and IRadAn=       5 diagonalized for initial guess.
 HarFok:  IExCor=  402 AccDes= 0.00D+00 IRadAn=         5 IDoV= 1 UseB2=F ITyADJ=14
 ICtDFT=  3500011 ScaDFX=  1.000000  1.000000  1.000000  1.000000
 FoFCou: FMM=F IPFlag=           0 FMFlag=      100000 FMFlg1=           0
         NFxFlg=           0 DoJE=T BraDBF=F KetDBF=T FulRan=T
         wScrn=  0.000000 ICntrl=       500 IOpCl=  0 I1Cent=   200000004 NGrid=           0
         NMat0=    1 NMatS0=      1 NMatT0=    0 NMatD0=    1 NMtDS0=    0 NMtDT0=    0
 Petite list used in FoFCou.
 Harris En= -1135.88816551444    
 JPrj=0 DoOrth=F DoCkMO=F.
 Initial guess <Sx>= 0.0000 <Sy>= 0.0000 <Sz>= 0.5000 <S**2>= 0.7500 S= 0.5000
 Leave Link  401 at Wed Nov 29 01:45:10 2023, MaxMem=  1879048192 cpu:               4.2 elap:               0.3
 (Enter /home/sekinelabo/g16/l502.exe)
 Keep R1 and R2 ints in memory in canonical form, NReq=506573307.
 FoFCou: FMM=F IPFlag=           0 FMFlag=           0 FMFlg1=           0
         NFxFlg=           0 DoJE=F BraDBF=F KetDBF=F FulRan=T
         wScrn=  0.000000 ICntrl=       600 IOpCl=  0 I1Cent=           0 NGrid=           0
         NMat0=    1 NMatS0=  22155 NMatT0=    0 NMatD0=    1 NMtDS0=    0 NMtDT0=    0
 Symmetry not used in FoFCou.
 Two-electron integral symmetry not used.
 UHF open shell SCF:
 Using DIIS extrapolation, IDIIS=  1040.
 NGot=  1879048192 LenX=  1388082593 LenY=  1388035063
 Requested convergence on RMS density matrix=1.00D-08 within 128 cycles.
 Requested convergence on MAX density matrix=1.00D-06.
 Requested convergence on             energy=1.00D-06.
 No special actions if energy rises.

 Cycle   1  Pass 1  IDiag  1:
 E= -1136.09206494323    
 DIIS: error= 9.16D-03 at cycle   1 NSaved=   1.
 NSaved= 1 IEnMin= 1 EnMin= -1136.09206494323     IErMin= 1 ErrMin= 9.16D-03
 ErrMax= 9.16D-03  0.00D+00 EMaxC= 1.00D-01 BMatC= 1.83D-01 BMatP= 1.83D-01
 IDIUse=3 WtCom= 9.08D-01 WtEn= 9.16D-02
 Coeff-Com:  0.100D+01
 Coeff-En:   0.100D+01
 Coeff:      0.100D+01
 Gap=     0.028 Goal=   None    Shift=    0.000
 Gap=     0.054 Goal=   None    Shift=    0.000
 GapD=    0.028 DampG=0.250 DampE=1.000 DampFc=0.2500 IDamp=-1.
 Damping current iteration by 2.50D-01
 RMSDP=1.52D-02 MaxDP=1.26D+00              OVMax= 1.67D-01

 Cycle   2  Pass 1  IDiag  1:
 E= -1136.10083050910     Delta-E=       -0.008765565877 Rises=F Damp=T
 DIIS: error= 6.43D-03 at cycle   2 NSaved=   2.
 NSaved= 2 IEnMin= 2 EnMin= -1136.10083050910     IErMin= 2 ErrMin= 6.43D-03
 ErrMax= 6.43D-03  0.00D+00 EMaxC= 1.00D-01 BMatC= 7.10D-02 BMatP= 1.83D-01
 IDIUse=3 WtCom= 9.36D-01 WtEn= 6.43D-02
 Coeff-Com: -0.130D+01 0.230D+01
 Coeff-En:   0.000D+00 0.100D+01
 Coeff:     -0.122D+01 0.222D+01
 Gap=     0.036 Goal=   None    Shift=    0.000
 Gap=     0.057 Goal=   None    Shift=    0.000
 RMSDP=7.95D-03 MaxDP=6.97D-01 DE=-8.77D-03 OVMax= 1.33D-01

 Cycle   3  Pass 1  IDiag  1:
 E= -1136.11747873074     Delta-E=       -0.016648221637 Rises=F Damp=F
 DIIS: error= 1.73D-03 at cycle   3 NSaved=   3.
 NSaved= 3 IEnMin= 3 EnMin= -1136.11747873074     IErMin= 3 ErrMin= 1.73D-03
 ErrMax= 1.73D-03  0.00D+00 EMaxC= 1.00D-01 BMatC= 1.32D-03 BMatP= 7.10D-02
 IDIUse=3 WtCom= 9.83D-01 WtEn= 1.73D-02
 Coeff-Com: -0.138D+00 0.232D+00 0.906D+00
 Coeff-En:   0.000D+00 0.000D+00 0.100D+01
 Coeff:     -0.135D+00 0.228D+00 0.907D+00
 Gap=     0.036 Goal=   None    Shift=    0.000
 Gap=     0.051 Goal=   None    Shift=    0.000
 RMSDP=2.52D-03 MaxDP=1.70D-01 DE=-1.66D-02 OVMax= 8.81D-02

 Cycle   4  Pass 1  IDiag  1:
 E= -1136.11663090844     Delta-E=        0.000847822301 Rises=F Damp=F
 DIIS: error= 2.05D-03 at cycle   4 NSaved=   4.
 NSaved= 4 IEnMin= 3 EnMin= -1136.11747873074     IErMin= 3 ErrMin= 1.73D-03
 ErrMax= 2.05D-03  0.00D+00 EMaxC= 1.00D-01 BMatC= 2.10D-03 BMatP= 1.32D-03
 IDIUse=3 WtCom= 1.81D-01 WtEn= 8.19D-01
 Coeff-Com: -0.142D-01 0.186D-01 0.558D+00 0.437D+00
 Coeff-En:   0.000D+00 0.000D+00 0.594D+00 0.406D+00
 Coeff:     -0.257D-02 0.336D-02 0.588D+00 0.412D+00
 Gap=     0.035 Goal=   None    Shift=    0.000
 Gap=     0.052 Goal=   None    Shift=    0.000
 RMSDP=1.29D-03 MaxDP=9.92D-02 DE= 8.48D-04 OVMax= 5.01D-02

 Cycle   5  Pass 1  IDiag  1:
 E= -1136.11902571687     Delta-E=       -0.002394808431 Rises=F Damp=F
 DIIS: error= 2.60D-04 at cycle   5 NSaved=   5.
 NSaved= 5 IEnMin= 5 EnMin= -1136.11902571687     IErMin= 5 ErrMin= 2.60D-04
 ErrMax= 2.60D-04  0.00D+00 EMaxC= 1.00D-01 BMatC= 2.54D-05 BMatP= 1.32D-03
 IDIUse=3 WtCom= 9.97D-01 WtEn= 2.60D-03
 Coeff-Com:  0.328D-02-0.548D-02 0.200D+00 0.116D+00 0.687D+00
 Coeff-En:   0.000D+00 0.000D+00 0.000D+00 0.000D+00 0.100D+01
 Coeff:      0.327D-02-0.547D-02 0.199D+00 0.116D+00 0.687D+00
 Gap=     0.035 Goal=   None    Shift=    0.000
 Gap=     0.052 Goal=   None    Shift=    0.000
 RMSDP=3.17D-04 MaxDP=1.89D-02 DE=-2.39D-03 OVMax= 8.21D-03

 Cycle   6  Pass 1  IDiag  1:
 E= -1136.11906013998     Delta-E=       -0.000034423107 Rises=F Damp=F
 DIIS: error= 1.15D-04 at cycle   6 NSaved=   6.
 NSaved= 6 IEnMin= 6 EnMin= -1136.11906013998     IErMin= 6 ErrMin= 1.15D-04
 ErrMax= 1.15D-04  0.00D+00 EMaxC= 1.00D-01 BMatC= 6.51D-06 BMatP= 2.54D-05
 IDIUse=3 WtCom= 9.99D-01 WtEn= 1.15D-03
 Coeff-Com:  0.514D-02-0.743D-02-0.725D-01-0.761D-01 0.335D+00 0.816D+00
 Coeff-En:   0.000D+00 0.000D+00 0.000D+00 0.000D+00 0.000D+00 0.100D+01
 Coeff:      0.513D-02-0.742D-02-0.725D-01-0.761D-01 0.334D+00 0.816D+00
 Gap=     0.035 Goal=   None    Shift=    0.000
 Gap=     0.052 Goal=   None    Shift=    0.000
 RMSDP=2.48D-04 MaxDP=2.07D-02 DE=-3.44D-05 OVMax= 1.09D-02

 Cycle   7  Pass 1  IDiag  1:
 E= -1136.11908141037     Delta-E=       -0.000021270395 Rises=F Damp=F
 DIIS: error= 4.99D-05 at cycle   7 NSaved=   7.
 NSaved= 7 IEnMin= 7 EnMin= -1136.11908141037     IErMin= 7 ErrMin= 4.99D-05
 ErrMax= 4.99D-05  0.00D+00 EMaxC= 1.00D-01 BMatC= 1.34D-06 BMatP= 6.51D-06
 IDIUse=1 WtCom= 1.00D+00 WtEn= 0.00D+00
 Coeff-Com:  0.868D-03-0.106D-02-0.743D-01-0.519D-01-0.536D-01 0.276D+00
 Coeff-Com:  0.904D+00
 Coeff:      0.868D-03-0.106D-02-0.743D-01-0.519D-01-0.536D-01 0.276D+00
 Coeff:      0.904D+00
 Gap=     0.035 Goal=   None    Shift=    0.000
 Gap=     0.053 Goal=   None    Shift=    0.000
 RMSDP=1.40D-04 MaxDP=8.47D-03 DE=-2.13D-05 OVMax= 6.45D-03

 Cycle   8  Pass 1  IDiag  1:
 E= -1136.11908864870     Delta-E=       -0.000007238325 Rises=F Damp=F
 DIIS: error= 2.17D-05 at cycle   8 NSaved=   8.
 NSaved= 8 IEnMin= 8 EnMin= -1136.11908864870     IErMin= 8 ErrMin= 2.17D-05
 ErrMax= 2.17D-05  0.00D+00 EMaxC= 1.00D-01 BMatC= 2.77D-07 BMatP= 1.34D-06
 IDIUse=1 WtCom= 1.00D+00 WtEn= 0.00D+00
 Coeff-Com: -0.128D-03 0.314D-03-0.286D-02 0.478D-02-0.802D-01-0.107D+00
 Coeff-Com:  0.122D+00 0.106D+01
 Coeff:     -0.128D-03 0.314D-03-0.286D-02 0.478D-02-0.802D-01-0.107D+00
 Coeff:      0.122D+00 0.106D+01
 Gap=     0.036 Goal=   None    Shift=    0.000
 Gap=     0.053 Goal=   None    Shift=    0.000
 RMSDP=8.55D-05 MaxDP=4.17D-03 DE=-7.24D-06 OVMax= 5.25D-03

 Cycle   9  Pass 1  IDiag  1:
 E= -1136.11909113952     Delta-E=       -0.000002490826 Rises=F Damp=F
 DIIS: error= 2.35D-05 at cycle   9 NSaved=   9.
 NSaved= 9 IEnMin= 9 EnMin= -1136.11909113952     IErMin= 8 ErrMin= 2.17D-05
 ErrMax= 2.35D-05  0.00D+00 EMaxC= 1.00D-01 BMatC= 1.17D-07 BMatP= 2.77D-07
 IDIUse=1 WtCom= 1.00D+00 WtEn= 0.00D+00
 Coeff-Com: -0.105D-03 0.188D-03 0.132D-01 0.110D-01-0.172D-01-0.723D-01
 Coeff-Com: -0.188D+00 0.392D+00 0.861D+00
 Coeff:     -0.105D-03 0.188D-03 0.132D-01 0.110D-01-0.172D-01-0.723D-01
 Coeff:     -0.188D+00 0.392D+00 0.861D+00
 Gap=     0.035 Goal=   None    Shift=    0.000
 Gap=     0.053 Goal=   None    Shift=    0.000
 RMSDP=4.26D-05 MaxDP=2.20D-03 DE=-2.49D-06 OVMax= 2.78D-03

 Cycle  10  Pass 1  IDiag  1:
 E= -1136.11909191610     Delta-E=       -0.000000776579 Rises=F Damp=F
 DIIS: error= 1.19D-05 at cycle  10 NSaved=  10.
 NSaved=10 IEnMin=10 EnMin= -1136.11909191610     IErMin=10 ErrMin= 1.19D-05
 ErrMax= 1.19D-05  0.00D+00 EMaxC= 1.00D-01 BMatC= 4.89D-08 BMatP= 1.17D-07
 IDIUse=1 WtCom= 1.00D+00 WtEn= 0.00D+00
 Coeff-Com: -0.108D-03 0.107D-03 0.808D-02 0.349D-02 0.234D-01 0.153D-01
 Coeff-Com: -0.160D+00-0.243D+00 0.439D+00 0.914D+00
 Coeff:     -0.108D-03 0.107D-03 0.808D-02 0.349D-02 0.234D-01 0.153D-01
 Coeff:     -0.160D+00-0.243D+00 0.439D+00 0.914D+00
 Gap=     0.035 Goal=   None    Shift=    0.000
 Gap=     0.053 Goal=   None    Shift=    0.000
 RMSDP=3.37D-05 MaxDP=1.59D-03 DE=-7.77D-07 OVMax= 2.22D-03

 Cycle  11  Pass 1  IDiag  1:
 E= -1136.11909227946     Delta-E=       -0.000000363362 Rises=F Damp=F
 DIIS: error= 5.01D-06 at cycle  11 NSaved=  11.
 NSaved=11 IEnMin=11 EnMin= -1136.11909227946     IErMin=11 ErrMin= 5.01D-06
 ErrMax= 5.01D-06  0.00D+00 EMaxC= 1.00D-01 BMatC= 8.43D-09 BMatP= 4.89D-08
 IDIUse=1 WtCom= 1.00D+00 WtEn= 0.00D+00
 Coeff-Com: -0.117D-03 0.132D-03-0.277D-02-0.271D-02 0.869D-02 0.227D-01
 Coeff-Com:  0.367D-01-0.164D+00-0.226D+00 0.131D+00 0.120D+01
 Coeff:     -0.117D-03 0.132D-03-0.277D-02-0.271D-02 0.869D-02 0.227D-01
 Coeff:      0.367D-01-0.164D+00-0.226D+00 0.131D+00 0.120D+01
 Gap=     0.035 Goal=   None    Shift=    0.000
 Gap=     0.053 Goal=   None    Shift=    0.000
 RMSDP=2.30D-05 MaxDP=1.10D-03 DE=-3.63D-07 OVMax= 1.49D-03

 Cycle  12  Pass 1  IDiag  1:
 E= -1136.11909237872     Delta-E=       -0.000000099256 Rises=F Damp=F
 DIIS: error= 1.70D-06 at cycle  12 NSaved=  12.
 NSaved=12 IEnMin=12 EnMin= -1136.11909237872     IErMin=12 ErrMin= 1.70D-06
 ErrMax= 1.70D-06  0.00D+00 EMaxC= 1.00D-01 BMatC= 1.19D-09 BMatP= 8.43D-09
 IDIUse=1 WtCom= 1.00D+00 WtEn= 0.00D+00
 Coeff-Com:  0.935D-04-0.122D-03-0.132D-02-0.384D-03-0.444D-02-0.400D-02
 Coeff-Com:  0.260D-01 0.604D-01-0.766D-01-0.187D+00-0.955D-03 0.119D+01
 Coeff:      0.935D-04-0.122D-03-0.132D-02-0.384D-03-0.444D-02-0.400D-02
 Coeff:      0.260D-01 0.604D-01-0.766D-01-0.187D+00-0.955D-03 0.119D+01
 Gap=     0.035 Goal=   None    Shift=    0.000
 Gap=     0.053 Goal=   None    Shift=    0.000
 RMSDP=7.52D-06 MaxDP=3.88D-04 DE=-9.93D-08 OVMax= 4.23D-04

 Cycle  13  Pass 1  IDiag  1:
 E= -1136.11909238960     Delta-E=       -0.000000010876 Rises=F Damp=F
 DIIS: error= 7.54D-07 at cycle  13 NSaved=  13.
 NSaved=13 IEnMin=13 EnMin= -1136.11909238960     IErMin=13 ErrMin= 7.54D-07
 ErrMax= 7.54D-07  0.00D+00 EMaxC= 1.00D-01 BMatC= 2.81D-10 BMatP= 1.19D-09
 IDIUse=1 WtCom= 1.00D+00 WtEn= 0.00D+00
 Coeff-Com:  0.404D-04-0.493D-04-0.513D-04 0.257D-03-0.350D-02-0.432D-02
 Coeff-Com:  0.598D-02 0.368D-01 0.129D-01-0.742D-01-0.184D+00 0.351D+00
 Coeff-Com:  0.860D+00
 Coeff:      0.404D-04-0.493D-04-0.513D-04 0.257D-03-0.350D-02-0.432D-02
 Coeff:      0.598D-02 0.368D-01 0.129D-01-0.742D-01-0.184D+00 0.351D+00
 Coeff:      0.860D+00
 Gap=     0.035 Goal=   None    Shift=    0.000
 Gap=     0.053 Goal=   None    Shift=    0.000
 RMSDP=2.11D-06 MaxDP=9.73D-05 DE=-1.09D-08 OVMax= 1.08D-04

 Cycle  14  Pass 1  IDiag  1:
 E= -1136.11909239095     Delta-E=       -0.000000001349 Rises=F Damp=F
 DIIS: error= 2.52D-07 at cycle  14 NSaved=  14.
 NSaved=14 IEnMin=14 EnMin= -1136.11909239095     IErMin=14 ErrMin= 2.52D-07
 ErrMax= 2.52D-07  0.00D+00 EMaxC= 1.00D-01 BMatC= 5.95D-11 BMatP= 2.81D-10
 IDIUse=1 WtCom= 1.00D+00 WtEn= 0.00D+00
 Coeff-Com: -0.196D-04 0.266D-04 0.267D-03 0.801D-04 0.362D-03 0.272D-03
 Coeff-Com: -0.484D-02-0.707D-02 0.192D-01 0.336D-01-0.369D-01-0.246D+00
 Coeff-Com:  0.235D+00 0.101D+01
 Coeff:     -0.196D-04 0.266D-04 0.267D-03 0.801D-04 0.362D-03 0.272D-03
 Coeff:     -0.484D-02-0.707D-02 0.192D-01 0.336D-01-0.369D-01-0.246D+00
 Coeff:      0.235D+00 0.101D+01
 Gap=     0.035 Goal=   None    Shift=    0.000
 Gap=     0.053 Goal=   None    Shift=    0.000
 RMSDP=1.02D-06 MaxDP=4.73D-05 DE=-1.35D-09 OVMax= 4.66D-05

 Cycle  15  Pass 1  IDiag  1:
 E= -1136.11909239124     Delta-E=       -0.000000000295 Rises=F Damp=F
 DIIS: error= 1.04D-07 at cycle  15 NSaved=  15.
 NSaved=15 IEnMin=15 EnMin= -1136.11909239124     IErMin=15 ErrMin= 1.04D-07
 ErrMax= 1.04D-07  0.00D+00 EMaxC= 1.00D-01 BMatC= 8.15D-12 BMatP= 5.95D-11
 IDIUse=1 WtCom= 1.00D+00 WtEn= 0.00D+00
 Coeff-Com: -0.147D-04 0.190D-04 0.773D-04-0.175D-04 0.636D-03 0.579D-03
 Coeff-Com: -0.174D-02-0.676D-02-0.723D-03 0.195D-01 0.291D-01-0.129D+00
 Coeff-Com: -0.504D-01 0.205D+00 0.933D+00
 Coeff:     -0.147D-04 0.190D-04 0.773D-04-0.175D-04 0.636D-03 0.579D-03
 Coeff:     -0.174D-02-0.676D-02-0.723D-03 0.195D-01 0.291D-01-0.129D+00
 Coeff:     -0.504D-01 0.205D+00 0.933D+00
 Gap=     0.035 Goal=   None    Shift=    0.000
 Gap=     0.053 Goal=   None    Shift=    0.000
 RMSDP=3.12D-07 MaxDP=1.39D-05 DE=-2.95D-10 OVMax= 1.29D-05

 Cycle  16  Pass 1  IDiag  1:
 E= -1136.11909239126     Delta-E=       -0.000000000019 Rises=F Damp=F
 DIIS: error= 7.01D-08 at cycle  16 NSaved=  16.
 NSaved=16 IEnMin=16 EnMin= -1136.11909239126     IErMin=16 ErrMin= 7.01D-08
 ErrMax= 7.01D-08  0.00D+00 EMaxC= 1.00D-01 BMatC= 1.44D-12 BMatP= 8.15D-12
 IDIUse=1 WtCom= 1.00D+00 WtEn= 0.00D+00
 Coeff-Com:  0.173D-05-0.249D-05-0.370D-04-0.141D-04-0.890D-05-0.666D-05
 Coeff-Com:  0.940D-03-0.745D-04-0.287D-02-0.316D-02 0.970D-02 0.297D-01
 Coeff-Com: -0.422D-01-0.174D+00 0.126D+00 0.106D+01
 Coeff:      0.173D-05-0.249D-05-0.370D-04-0.141D-04-0.890D-05-0.666D-05
 Coeff:      0.940D-03-0.745D-04-0.287D-02-0.316D-02 0.970D-02 0.297D-01
 Coeff:     -0.422D-01-0.174D+00 0.126D+00 0.106D+01
 Gap=     0.035 Goal=   None    Shift=    0.000
 Gap=     0.053 Goal=   None    Shift=    0.000
 RMSDP=1.56D-07 MaxDP=1.03D-05 DE=-1.91D-11 OVMax= 8.32D-06

 Cycle  17  Pass 1  IDiag  1:
 E= -1136.11909239128     Delta-E=       -0.000000000025 Rises=F Damp=F
 DIIS: error= 3.10D-08 at cycle  17 NSaved=  17.
 NSaved=17 IEnMin=17 EnMin= -1136.11909239128     IErMin=17 ErrMin= 3.10D-08
 ErrMax= 3.10D-08  0.00D+00 EMaxC= 1.00D-01 BMatC= 2.53D-13 BMatP= 1.44D-12
 IDIUse=1 WtCom= 1.00D+00 WtEn= 0.00D+00
 Coeff-Com:  0.336D-05-0.435D-05-0.107D-04 0.264D-05-0.117D-03-0.142D-03
 Coeff-Com:  0.209D-03 0.148D-02 0.150D-03-0.354D-02-0.577D-02 0.196D-01
 Coeff-Com:  0.998D-02-0.126D-01-0.184D+00-0.135D+00 0.131D+01
 Coeff:      0.336D-05-0.435D-05-0.107D-04 0.264D-05-0.117D-03-0.142D-03
 Coeff:      0.209D-03 0.148D-02 0.150D-03-0.354D-02-0.577D-02 0.196D-01
 Coeff:      0.998D-02-0.126D-01-0.184D+00-0.135D+00 0.131D+01
 Gap=     0.035 Goal=   None    Shift=    0.000
 Gap=     0.053 Goal=   None    Shift=    0.000
 RMSDP=1.04D-07 MaxDP=5.88D-06 DE=-2.46D-11 OVMax= 3.43D-06

 Cycle  18  Pass 1  IDiag  1:
 E= -1136.11909239128     Delta-E=        0.000000000003 Rises=F Damp=F
 DIIS: error= 1.35D-08 at cycle  18 NSaved=  18.
 NSaved=18 IEnMin=17 EnMin= -1136.11909239128     IErMin=18 ErrMin= 1.35D-08
 ErrMax= 1.35D-08  0.00D+00 EMaxC= 1.00D-01 BMatC= 6.03D-14 BMatP= 2.53D-13
 IDIUse=1 WtCom= 1.00D+00 WtEn= 0.00D+00
 Coeff-Com: -0.511D-07 0.128D-06 0.378D-05 0.299D-05-0.235D-04-0.145D-04
 Coeff-Com: -0.100D-03 0.223D-03 0.459D-03-0.114D-03-0.236D-02-0.664D-03
 Coeff-Com:  0.773D-02 0.210D-01-0.401D-01-0.177D+00 0.164D+00 0.103D+01
 Coeff:     -0.511D-07 0.128D-06 0.378D-05 0.299D-05-0.235D-04-0.145D-04
 Coeff:     -0.100D-03 0.223D-03 0.459D-03-0.114D-03-0.236D-02-0.664D-03
 Coeff:      0.773D-02 0.210D-01-0.401D-01-0.177D+00 0.164D+00 0.103D+01
 Gap=     0.035 Goal=   None    Shift=    0.000
 Gap=     0.053 Goal=   None    Shift=    0.000
 RMSDP=5.11D-08 MaxDP=2.83D-06 DE= 3.41D-12 OVMax= 1.47D-06

 Cycle  19  Pass 1  IDiag  1:
 E= -1136.11909239128     Delta-E=        0.000000000003 Rises=F Damp=F
 DIIS: error= 8.25D-09 at cycle  19 NSaved=  19.
 NSaved=19 IEnMin=17 EnMin= -1136.11909239128     IErMin=19 ErrMin= 8.25D-09
 ErrMax= 8.25D-09  0.00D+00 EMaxC= 1.00D-01 BMatC= 1.98D-14 BMatP= 6.03D-14
 IDIUse=1 WtCom= 1.00D+00 WtEn= 0.00D+00
 Coeff-Com: -0.121D-05 0.158D-05 0.423D-05-0.122D-05 0.466D-04 0.488D-04
 Coeff-Com: -0.122D-03-0.516D-03 0.989D-04 0.139D-02 0.154D-02-0.829D-02
 Coeff-Com: -0.212D-02 0.141D-01 0.546D-01-0.173D-01-0.363D+00 0.175D+00
 Coeff-Com:  0.114D+01
 Coeff:     -0.121D-05 0.158D-05 0.423D-05-0.122D-05 0.466D-04 0.488D-04
 Coeff:     -0.122D-03-0.516D-03 0.989D-04 0.139D-02 0.154D-02-0.829D-02
 Coeff:     -0.212D-02 0.141D-01 0.546D-01-0.173D-01-0.363D+00 0.175D+00
 Coeff:      0.114D+01
 Gap=     0.035 Goal=   None    Shift=    0.000
 Gap=     0.053 Goal=   None    Shift=    0.000
 RMSDP=4.36D-08 MaxDP=2.41D-06 DE= 2.73D-12 OVMax= 1.08D-06

 Cycle  20  Pass 1  IDiag  1:
 E= -1136.11909239129     Delta-E=       -0.000000000016 Rises=F Damp=F
 DIIS: error= 2.62D-09 at cycle  20 NSaved=  20.
 NSaved=20 IEnMin=20 EnMin= -1136.11909239129     IErMin=20 ErrMin= 2.62D-09
 ErrMax= 2.62D-09  0.00D+00 EMaxC= 1.00D-01 BMatC= 3.20D-15 BMatP= 1.98D-14
 IDIUse=1 WtCom= 1.00D+00 WtEn= 0.00D+00
 Large coefficients: NSaved= 20 BigCof=    0.00 CofMax=   10.00 Det=-4.93D-15
 Inversion failed.  Reducing to 19 matrices.
 Large coefficients: NSaved= 19 BigCof=    0.00 CofMax=   10.00 Det=-7.79D-15
 Inversion failed.  Reducing to 18 matrices.
 Large coefficients: NSaved= 18 BigCof=    0.00 CofMax=   10.00 Det=-8.22D-15
 Inversion failed.  Reducing to 17 matrices.
 Large coefficients: NSaved= 17 BigCof=    0.00 CofMax=   10.00 Det=-8.38D-15
 Inversion failed.  Reducing to 16 matrices.
 Large coefficients: NSaved= 16 BigCof=    0.00 CofMax=   10.00 Det=-8.42D-15
 Inversion failed.  Reducing to 15 matrices.
 Coeff-Com: -0.202D-05 0.176D-04-0.239D-04-0.484D-04 0.243D-04 0.322D-03
 Coeff-Com: -0.342D-04-0.983D-03-0.371D-02 0.866D-02 0.384D-01-0.296D-01
 Coeff-Com: -0.252D+00-0.542D-01 0.129D+01
 Coeff:     -0.202D-05 0.176D-04-0.239D-04-0.484D-04 0.243D-04 0.322D-03
 Coeff:     -0.342D-04-0.983D-03-0.371D-02 0.866D-02 0.384D-01-0.296D-01
 Coeff:     -0.252D+00-0.542D-01 0.129D+01
 Gap=     0.035 Goal=   None    Shift=    0.000
 Gap=     0.053 Goal=   None    Shift=    0.000
 RMSDP=2.43D-08 MaxDP=1.58D-06 DE=-1.61D-11 OVMax= 5.63D-07

 Cycle  21  Pass 1  IDiag  1:
 E= -1136.11909239128     Delta-E=        0.000000000018 Rises=F Damp=F
 DIIS: error= 7.99D-10 at cycle  21 NSaved=  16.
 NSaved=16 IEnMin=15 EnMin= -1136.11909239129     IErMin=16 ErrMin= 7.99D-10
 ErrMax= 7.99D-10  0.00D+00 EMaxC= 1.00D-01 BMatC= 4.60D-16 BMatP= 3.20D-15
 IDIUse=1 WtCom= 1.00D+00 WtEn= 0.00D+00
 Large coefficients: NSaved= 16 BigCof=    0.00 CofMax=   10.00 Det=-7.14D-16
 Inversion failed.  Reducing to 15 matrices.
 Coeff-Com:  0.918D-05-0.350D-05-0.373D-04-0.348D-04 0.143D-03 0.230D-03
 Coeff-Com: -0.331D-03-0.188D-02-0.351D-03 0.756D-02 0.161D-01-0.419D-01
 Coeff-Com: -0.111D+00 0.156D+00 0.976D+00
 Coeff:      0.918D-05-0.350D-05-0.373D-04-0.348D-04 0.143D-03 0.230D-03
 Coeff:     -0.331D-03-0.188D-02-0.351D-03 0.756D-02 0.161D-01-0.419D-01
 Coeff:     -0.111D+00 0.156D+00 0.976D+00
 Gap=     0.035 Goal=   None    Shift=    0.000
 Gap=     0.053 Goal=   None    Shift=    0.000
 RMSDP=5.62D-09 MaxDP=3.40D-07 DE= 1.80D-11 OVMax= 1.32D-07

 SCF Done:  E(UB3LYP) =  -1136.11909239     A.U. after   21 cycles
            NFock= 21  Conv=0.56D-08     -V/T= 2.0029
 <Sx>= 0.0000 <Sy>= 0.0000 <Sz>= 0.5000 <S**2>= 0.7834 S= 0.5166
 <L.S>= 0.000000000000E+00
 KE= 1.132880071382D+03 PE=-3.302401672743D+03 EE= 7.467809823773D+02
 Annihilation of the first spin contaminant:
 S**2 before annihilation     0.7834,   after     0.7504
 Leave Link  502 at Wed Nov 29 01:45:27 2023, MaxMem=  1879048192 cpu:             185.6 elap:              16.9
 (Enter /home/sekinelabo/g16/l601.exe)
 Copying SCF densities to generalized density rwf, IOpCl= 1 IROHF=0.

 **********************************************************************

            Population analysis using the SCF Density.

 **********************************************************************

 Orbital symmetries:
 Alpha Orbitals:
       Occupied  (A) (A) (A) (A) (A) (A) (A) (A) (A) (A) (A) (A)
                 (A) (A) (A) (A) (A) (A) (A) (A) (A) (A) (A) (A)
                 (A) (A) (A) (A) (A) (A) (A) (A) (A) (A) (A) (A)
                 (A) (A) (A)
       Virtual   (A) (A) (A) (A) (A) (A) (A) (A) (A) (A) (A) (A)
                 (A) (A) (A) (A) (A) (A) (A) (A) (A) (A) (A) (A)
                 (A) (A) (A) (A) (A) (A) (A) (A) (A) (A) (A) (A)
                 (A) (A) (A) (A) (A) (A) (A) (A) (A) (A) (A) (A)
                 (A) (A) (A) (A) (A) (A) (A) (A) (A) (A) (A) (A)
                 (A) (A) (A) (A) (A) (A) (A) (A) (A) (A) (A) (A)
                 (A) (A) (A) (A) (A) (A) (A) (A) (A) (A) (A) (A)
                 (A) (A) (A) (A) (A) (A) (A) (A) (A) (A) (A) (A)
                 (A) (A) (A) (A) (A) (A) (A) (A) (A) (A) (A) (A)
                 (A) (A) (A) (A) (A) (A) (A) (A) (A) (A) (A) (A)
                 (A) (A) (A) (A) (A) (A) (A) (A) (A) (A) (A) (A)
                 (A) (A) (A) (A) (A) (A) (A) (A) (A) (A) (A) (A)
                 (A) (A) (A) (A) (A) (A) (A) (A) (A) (A) (A) (A)
                 (A) (A) (A) (A) (A) (A) (A) (A) (A) (A) (A) (A)
                 (A) (A) (A)
 Beta  Orbitals:
       Occupied  (A) (A) (A) (A) (A) (A) (A) (A) (A) (A) (A) (A)
                 (A) (A) (A) (A) (A) (A) (A) (A) (A) (A) (A) (A)
                 (A) (A) (A) (A) (A) (A) (A) (A) (A) (A) (A) (A)
                 (A) (A)
       Virtual   (A) (A) (A) (A) (A) (A) (A) (A) (A) (A) (A) (A)
                 (A) (A) (A) (A) (A) (A) (A) (A) (A) (A) (A) (A)
                 (A) (A) (A) (A) (A) (A) (A) (A) (A) (A) (A) (A)
                 (A) (A) (A) (A) (A) (A) (A) (A) (A) (A) (A) (A)
                 (A) (A) (A) (A) (A) (A) (A) (A) (A) (A) (A) (A)
                 (A) (A) (A) (A) (A) (A) (A) (A) (A) (A) (A) (A)
                 (A) (A) (A) (A) (A) (A) (A) (A) (A) (A) (A) (A)
                 (A) (A) (A) (A) (A) (A) (A) (A) (A) (A) (A) (A)
                 (A) (A) (A) (A) (A) (A) (A) (A) (A) (A) (A) (A)
                 (A) (A) (A) (A) (A) (A) (A) (A) (A) (A) (A) (A)
                 (A) (A) (A) (A) (A) (A) (A) (A) (A) (A) (A) (A)
                 (A) (A) (A) (A) (A) (A) (A) (A) (A) (A) (A) (A)
                 (A) (A) (A) (A) (A) (A) (A) (A) (A) (A) (A) (A)
                 (A) (A) (A) (A) (A) (A) (A) (A) (A) (A) (A) (A)
                 (A) (A) (A) (A)
 The electronic state is 2-A.
 Alpha  occ. eigenvalues --  -38.45171 -38.44993 -38.44458 -38.44173 -38.43637
 Alpha  occ. eigenvalues --  -38.43426 -38.42985  -2.21010  -2.20798  -2.20348
 Alpha  occ. eigenvalues --   -2.20007  -2.19459  -2.19240  -2.18804  -1.14743
 Alpha  occ. eigenvalues --   -1.14697  -1.14587  -1.14482  -1.14457  -1.14423
 Alpha  occ. eigenvalues --   -1.14071  -1.14021  -1.13908  -1.13698  -1.13666
 Alpha  occ. eigenvalues --   -1.13640  -1.13117  -1.13108  -1.13085  -1.12884
 Alpha  occ. eigenvalues --   -1.12875  -1.12867  -1.12492  -1.12479  -1.12447
 Alpha  occ. eigenvalues --   -0.17170  -0.13690  -0.12781  -0.10242
 Alpha virt. eigenvalues --   -0.06694  -0.05387  -0.04843  -0.03410  -0.02742
 Alpha virt. eigenvalues --   -0.02348  -0.02202  -0.01730  -0.01073  -0.00527
 Alpha virt. eigenvalues --   -0.00358  -0.00212   0.00394   0.00501   0.00551
 Alpha virt. eigenvalues --    0.00675   0.00833   0.01063   0.01173   0.01304
 Alpha virt. eigenvalues --    0.01373   0.01433   0.01463   0.01709   0.01797
 Alpha virt. eigenvalues --    0.01879   0.02001   0.02068   0.02278   0.02540
 Alpha virt. eigenvalues --    0.02674   0.02808   0.02843   0.02957   0.03022
 Alpha virt. eigenvalues --    0.03081   0.03269   0.03344   0.03367   0.03531
 Alpha virt. eigenvalues --    0.03649   0.03751   0.03880   0.04139   0.04150
 Alpha virt. eigenvalues --    0.04495   0.04904   0.05016   0.05308   0.05589
 Alpha virt. eigenvalues --    0.05944   0.06107   0.06687   0.07115   0.07220
 Alpha virt. eigenvalues --    0.07780   0.07851   0.08045   0.08289   0.08628
 Alpha virt. eigenvalues --    0.08646   0.09172   0.09414   0.09614   0.09957
 Alpha virt. eigenvalues --    0.10364   0.10824   0.11345   0.11525   0.12004
 Alpha virt. eigenvalues --    0.12518   0.13222   0.13436   0.13655   0.14254
 Alpha virt. eigenvalues --    0.14709   0.14987   0.16241   0.16462   0.17192
 Alpha virt. eigenvalues --    0.25730   0.27923   0.28239   0.28797   0.29722
 Alpha virt. eigenvalues --    0.30621   0.31441   0.31609   0.32375   0.33380
 Alpha virt. eigenvalues --    0.34003   0.34225   0.35191   0.35469   0.36421
 Alpha virt. eigenvalues --    0.36938   0.37034   0.37710   0.39448   0.40047
 Alpha virt. eigenvalues --    0.40610   0.42399   0.42611   0.43189   0.43385
 Alpha virt. eigenvalues --    0.43731   0.43907   0.44208   0.44334   0.44598
 Alpha virt. eigenvalues --    0.45063   0.45242   0.45448   0.45894   0.46329
 Alpha virt. eigenvalues --    0.46508   0.46818   0.47742   0.47961   0.48740
 Alpha virt. eigenvalues --    0.49131   0.49302   0.50454   0.50564   0.51416
 Alpha virt. eigenvalues --    0.52384   0.52939   0.54563   0.54775   0.55552
 Alpha virt. eigenvalues --    0.55726   0.58423   0.65474   0.67147   0.67716
 Alpha virt. eigenvalues --    0.70908   2.02950   2.08027   2.10365   2.13958
 Alpha virt. eigenvalues --    2.16983   2.18073   2.19369   4.42223   4.42502
 Alpha virt. eigenvalues --    4.43643   4.43990   4.44273   4.44956   4.45313
 Alpha virt. eigenvalues --    4.45447   4.45788   4.46088   4.46368   4.47156
 Alpha virt. eigenvalues --    4.47750   4.47882   4.48375   4.49424   4.50778
 Alpha virt. eigenvalues --    4.58549   4.58934   4.59545   4.65482  96.22349
 Alpha virt. eigenvalues --   96.28491  96.31400  96.35923  96.39473  96.40408
 Alpha virt. eigenvalues --   96.43008
  Beta  occ. eigenvalues --  -38.45146 -38.44993 -38.44440 -38.44153 -38.43598
  Beta  occ. eigenvalues --  -38.43337 -38.42984  -2.20964  -2.20798  -2.20316
  Beta  occ. eigenvalues --   -2.19972  -2.19386  -2.19073  -2.18810  -1.14721
  Beta  occ. eigenvalues --   -1.14662  -1.14547  -1.14480  -1.14457  -1.14422
  Beta  occ. eigenvalues --   -1.14047  -1.13997  -1.13879  -1.13677  -1.13647
  Beta  occ. eigenvalues --   -1.13590  -1.13069  -1.13056  -1.13033  -1.12775
  Beta  occ. eigenvalues --   -1.12761  -1.12756  -1.12504  -1.12491  -1.12389
  Beta  occ. eigenvalues --   -0.16729  -0.13305  -0.12169
  Beta virt. eigenvalues --   -0.06890  -0.06556  -0.05112  -0.04436  -0.03093
  Beta virt. eigenvalues --   -0.02513  -0.02198  -0.01942  -0.01440  -0.00830
  Beta virt. eigenvalues --   -0.00182  -0.00141   0.00060   0.00463   0.00592
  Beta virt. eigenvalues --    0.00627   0.00791   0.00891   0.01126   0.01223
  Beta virt. eigenvalues --    0.01378   0.01429   0.01525   0.01582   0.01764
  Beta virt. eigenvalues --    0.01857   0.02028   0.02073   0.02242   0.02433
  Beta virt. eigenvalues --    0.02612   0.02732   0.02852   0.02865   0.03017
  Beta virt. eigenvalues --    0.03111   0.03178   0.03317   0.03370   0.03457
  Beta virt. eigenvalues --    0.03585   0.03725   0.03831   0.03932   0.04182
  Beta virt. eigenvalues --    0.04227   0.04571   0.05006   0.05053   0.05442
  Beta virt. eigenvalues --    0.05688   0.06004   0.06175   0.06758   0.07121
  Beta virt. eigenvalues --    0.07445   0.07838   0.08000   0.08176   0.08446
  Beta virt. eigenvalues --    0.08725   0.08827   0.09275   0.09593   0.09838
  Beta virt. eigenvalues --    0.10134   0.10578   0.10990   0.11460   0.11663
  Beta virt. eigenvalues --    0.12197   0.12679   0.13336   0.13603   0.13719
  Beta virt. eigenvalues --    0.14407   0.14852   0.15134   0.16371   0.16614
  Beta virt. eigenvalues --    0.17470   0.25866   0.28174   0.28458   0.29043
  Beta virt. eigenvalues --    0.29897   0.30893   0.31672   0.31843   0.32566
  Beta virt. eigenvalues --    0.33556   0.34144   0.34468   0.35391   0.36024
  Beta virt. eigenvalues --    0.37061   0.37207   0.37502   0.37877   0.39462
  Beta virt. eigenvalues --    0.40325   0.40945   0.42572   0.42798   0.43317
  Beta virt. eigenvalues --    0.43491   0.43808   0.44140   0.44299   0.44541
  Beta virt. eigenvalues --    0.44884   0.45228   0.45428   0.45674   0.46110
  Beta virt. eigenvalues --    0.46408   0.46542   0.46842   0.47862   0.48067
  Beta virt. eigenvalues --    0.48832   0.49087   0.49437   0.50547   0.50760
  Beta virt. eigenvalues --    0.51567   0.52498   0.53053   0.54717   0.54944
  Beta virt. eigenvalues --    0.55683   0.55846   0.58521   0.65663   0.67232
  Beta virt. eigenvalues --    0.67858   0.71034   2.03024   2.08246   2.10469
  Beta virt. eigenvalues --    2.14093   2.17063   2.18140   2.19475   4.42248
  Beta virt. eigenvalues --    4.42529   4.43668   4.44005   4.44338   4.44995
  Beta virt. eigenvalues --    4.45398   4.45508   4.45855   4.46156   4.46431
  Beta virt. eigenvalues --    4.47158   4.47815   4.47935   4.48387   4.49446
  Beta virt. eigenvalues --    4.50821   4.58599   4.58979   4.59571   4.65509
  Beta virt. eigenvalues --   96.22377  96.28563  96.31438  96.35964  96.39501
  Beta virt. eigenvalues --   96.40433  96.43039
          Condensed to atoms (all electrons):
               1          2          3          4          5          6
     1  Na  12.994355  -0.273054  -0.641848  -0.145720  -0.155180   0.022950
     2  Na  -0.273054  10.983007  -0.145717  -0.233657   0.116776  -0.199926
     3  Na  -0.641848  -0.145717  11.281096   0.158800   0.201940   0.224716
     4  Na  -0.145720  -0.233657   0.158800  10.955489   0.083887   0.158763
     5  Na  -0.155180   0.116776   0.201940   0.083887  11.227077  -0.098852
     6  Na   0.022950  -0.199926   0.224716   0.158763  -0.098852  10.659741
     7  Na   0.342397   0.022389  -0.171804  -0.168806   0.037161  -0.011522
               7
     1  Na   0.342397
     2  Na   0.022389
     3  Na  -0.171804
     4  Na  -0.168806
     5  Na   0.037161
     6  Na  -0.011522
     7  Na  10.651846
          Atomic-Atomic Spin Densities.
               1          2          3          4          5          6
     1  Na   0.057590   0.030166   0.086509  -0.250951   0.084196  -0.123850
     2  Na   0.030166   0.024095   0.005553  -0.112066   0.016976  -0.006749
     3  Na   0.086509   0.005553   0.049271   0.119720  -0.075199   0.130084
     4  Na  -0.250951  -0.112066   0.119720   0.276661   0.008748   0.068913
     5  Na   0.084196   0.016976  -0.075199   0.008748   0.034325  -0.049135
     6  Na  -0.123850  -0.006749   0.130084   0.068913  -0.049135   0.217225
     7  Na  -0.028721  -0.000935   0.055512  -0.031720   0.144019  -0.010873
               7
     1  Na  -0.028721
     2  Na  -0.000935
     3  Na   0.055512
     4  Na  -0.031720
     5  Na   0.144019
     6  Na  -0.010873
     7  Na   0.220438
 Mulliken charges and spin densities:
               1          2
     1  Na  -1.143900  -0.145061
     2  Na   0.730182  -0.042959
     3  Na   0.092816   0.371449
     4  Na   0.191243   0.079305
     5  Na  -0.412810   0.163930
     6  Na   0.244130   0.225614
     7  Na   0.298339   0.347721
 Sum of Mulliken charges =  -0.00000   1.00000
 Mulliken charges and spin densities with hydrogens summed into heavy atoms:
               1          2
     1  Na  -1.143900  -0.145061
     2  Na   0.730182  -0.042959
     3  Na   0.092816   0.371449
     4  Na   0.191243   0.079305
     5  Na  -0.412810   0.163930
     6  Na   0.244130   0.225614
     7  Na   0.298339   0.347721
 Electronic spatial extent (au):  <R**2>=           3909.1185
 Charge=             -0.0000 electrons
 Dipole moment (field-independent basis, Debye):
    X=             -2.1444    Y=              1.3528    Z=              0.4916  Tot=              2.5826
 Quadrupole moment (field-independent basis, Debye-Ang):
   XX=            -77.2548   YY=            -56.3695   ZZ=            -68.2725
   XY=             -5.7372   XZ=             -1.1064   YZ=              1.0782
 Traceless Quadrupole moment (field-independent basis, Debye-Ang):
   XX=             -9.9559   YY=             10.9294   ZZ=             -0.9736
   XY=             -5.7372   XZ=             -1.1064   YZ=              1.0782
 Octapole moment (field-independent basis, Debye-Ang**2):
  XXX=            -41.1725  YYY=             46.5986  ZZZ=              9.9740  XYY=            -30.0533
  XXY=             37.1163  XXZ=              4.8698  XZZ=            -13.5420  YZZ=             -7.6614
  YYZ=             11.7760  XYZ=            -15.9444
 Hexadecapole moment (field-independent basis, Debye-Ang**3):
 XXXX=          -4272.4788 YYYY=          -1800.0583 ZZZZ=           -437.6713 XXXY=            -17.9131
 XXXZ=            -16.4832 YYYX=           -186.9305 YYYZ=             80.0716 ZZZX=             -8.5861
 ZZZY=            -11.7951 XXYY=           -942.1696 XXZZ=           -804.4714 YYZZ=           -399.2632
 XXYZ=             28.9309 YYXZ=            -14.7735 ZZXY=            -10.9235
 N-N= 2.866215265929D+02 E-N=-3.302401672788D+03  KE= 1.132880071381D+03
                          Isotropic Fermi Contact Couplings
        Atom                 a.u.       MegaHertz       Gauss      10(-4) cm-1
     1  Na(23)             0.09834     116.33792      41.51226      38.80615
     2  Na(23)            -0.00497      -5.87461      -2.09621      -1.95956
     3  Na(23)             0.05532      65.44523      23.35249      21.83018
     4  Na(23)             0.05017      59.35249      21.17844      19.79786
     5  Na(23)            -0.08024     -94.92540     -33.87174     -31.66371
     6  Na(23)             0.16809     198.85205      70.95535      66.32990
     7  Na(23)             0.39255     464.39612     165.70808     154.90587
 --------------------------------------------------------
       Center         ----  Spin Dipole Couplings  ----
                      3XX-RR        3YY-RR        3ZZ-RR
 --------------------------------------------------------
     1   Atom       -0.008091      0.004499      0.003591
     2   Atom        0.003628     -0.001327     -0.002301
     3   Atom        0.004617      0.002718     -0.007335
     4   Atom        0.015667     -0.000384     -0.015283
     5   Atom        0.056278     -0.027282     -0.028996
     6   Atom        0.005245      0.001555     -0.006799
     7   Atom       -0.004833      0.001559      0.003274
 --------------------------------------------------------
                        XY            XZ            YZ
 --------------------------------------------------------
     1   Atom       -0.008298      0.008799     -0.007664
     2   Atom        0.000704      0.001077      0.000409
     3   Atom        0.011945      0.005614      0.006579
     4   Atom        0.020610     -0.000773     -0.000959
     5   Atom        0.024064     -0.018865     -0.004263
     6   Atom       -0.006287     -0.003428     -0.002784
     7   Atom       -0.005360      0.000874      0.000562
 --------------------------------------------------------


 ---------------------------------------------------------------------------------
              Anisotropic Spin Dipole Couplings in Principal Axis System
 ---------------------------------------------------------------------------------

       Atom             a.u.   MegaHertz   Gauss  10(-4) cm-1        Axes

              Baa    -0.0138    -1.955    -0.697    -0.652  0.9024  0.2670 -0.3381
     1 Na(23) Bbb    -0.0036    -0.508    -0.181    -0.169  0.0507  0.7135  0.6988
              Bcc     0.0174     2.463     0.879     0.821 -0.4278  0.6477 -0.6304
 
              Baa    -0.0026    -0.362    -0.129    -0.121 -0.1401 -0.2390  0.9609
     2 Na(23) Bbb    -0.0014    -0.193    -0.069    -0.064 -0.1811  0.9603  0.2124
              Bcc     0.0039     0.555     0.198     0.185  0.9734  0.1443  0.1778
 
              Baa    -0.0106    -1.497    -0.534    -0.499  0.0555 -0.4817  0.8746
     3 Na(23) Bbb    -0.0079    -1.116    -0.398    -0.372  0.7228 -0.5849 -0.3680
              Bcc     0.0185     2.614     0.933     0.872  0.6888  0.6526  0.3158
 
              Baa    -0.0154    -2.181    -0.778    -0.727 -0.1741  0.2981  0.9385
     4 Na(23) Bbb    -0.0143    -2.026    -0.723    -0.676 -0.5375  0.7698 -0.3442
              Bcc     0.0298     4.207     1.501     1.403  0.8251  0.5644 -0.0262
 
              Baa    -0.0342    -4.823    -1.721    -1.609 -0.3185  0.8060 -0.4989
     5 Na(23) Bbb    -0.0325    -4.584    -1.636    -1.529  0.0341  0.5357  0.8437
              Bcc     0.0666     9.408     3.357     3.138  0.9473  0.2518 -0.1981
 
              Baa    -0.0097    -1.366    -0.487    -0.456  0.3654  0.4116  0.8349
     6 Na(23) Bbb    -0.0004    -0.050    -0.018    -0.017  0.4553  0.7033 -0.5460
              Bcc     0.0100     1.416     0.505     0.472  0.8119 -0.5797 -0.0695
 
              Baa    -0.0080    -1.126    -0.402    -0.376  0.8656  0.4922 -0.0919
     7 Na(23) Bbb     0.0034     0.475     0.170     0.159  0.1024  0.0055  0.9947
              Bcc     0.0046     0.651     0.232     0.217 -0.4901  0.8705  0.0457
 

 ---------------------------------------------------------------------------------

 No NMR shielding tensors so no spin-rotation constants.
 Leave Link  601 at Wed Nov 29 01:45:28 2023, MaxMem=  1879048192 cpu:               2.2 elap:               0.2
 (Enter /home/sekinelabo/g16/l701.exe)
 ... and contract with generalized density number  0.
 Compute integral first derivatives.
 Leave Link  701 at Wed Nov 29 01:45:28 2023, MaxMem=  1879048192 cpu:               1.6 elap:               0.1
 (Enter /home/sekinelabo/g16/l702.exe)
 L702 exits ... SP integral derivatives will be done elsewhere.
 Leave Link  702 at Wed Nov 29 01:45:28 2023, MaxMem=  1879048192 cpu:               0.4 elap:               0.0
 (Enter /home/sekinelabo/g16/l703.exe)
 Integral derivatives from FoFJK, PRISM(SPDF).
 Compute integral first derivatives, UseDBF=F ICtDFT=           0.
 Calling FoFJK, ICntrl=      2127 FMM=F ISym2X=0 I1Cent= 0 IOpClX= 1 NMat=1 NMatS=1 NMatT=0.
 FoFJK:  IHMeth= 1 ICntrl=    2127 DoSepK=F KAlg= 0 I1Cent=           0 FoldK=F
 IRaf=         0 NMat=       1 IRICut=       1 DoRegI=T DoRafI=F ISym2E= 0 IDoP0=0 IntGTp=1.
 FoFCou: FMM=F IPFlag=           0 FMFlag=      100000 FMFlg1=         800
         NFxFlg=           0 DoJE=F BraDBF=F KetDBF=F FulRan=T
         wScrn=  0.000000 ICntrl=      2127 IOpCl=  1 I1Cent=           0 NGrid=           0
         NMat0=    1 NMatS0=      1 NMatT0=    0 NMatD0=    1 NMtDS0=    0 NMtDT0=    0
 Symmetry not used in FoFCou.
 Leave Link  703 at Wed Nov 29 01:45:30 2023, MaxMem=  1879048192 cpu:              29.2 elap:               2.0
 (Enter /home/sekinelabo/g16/l716.exe)
 Dipole        =-8.43655376D-01 5.32240280D-01 1.93394019D-01
 ***** Axes restored to original set *****
 -------------------------------------------------------------------
 Center     Atomic                   Forces (Hartrees/Bohr)
 Number     Number              X              Y              Z
 -------------------------------------------------------------------
      1       11           0.003059346    0.002073198   -0.006050747
      2       11          -0.000558062   -0.000247150   -0.002244962
      3       11           0.002959919   -0.005211857    0.005790166
      4       11          -0.002649090    0.001811428   -0.001943775
      5       11          -0.000567251    0.001055998    0.001904235
      6       11          -0.001920298    0.000644148    0.002303073
      7       11          -0.000324564   -0.000125764    0.000242011
 -------------------------------------------------------------------
 Cartesian Forces:  Max     0.006050747 RMS     0.002706771
 Z-matrix is all fixed cartesians, so copy forces.
 Force constants in Cartesian coordinates: 
                1             2             3             4             5 
      1  0.671268D-01
      2 -0.126812D-01  0.658819D-01
      3  0.841567D-02 -0.353680D-02  0.831184D-01
      4 -0.120163D-01 -0.448128D-02 -0.476806D-02  0.161062D-01
      5 -0.287334D-03 -0.134212D-01  0.181441D-02 -0.112017D-01  0.392019D-01
      6  0.533816D-02 -0.143318D-01 -0.142775D-01 -0.289241D-02  0.154447D-02
      7 -0.217409D-01  0.113898D-01 -0.597692D-02 -0.966706D-02  0.901081D-02
      8  0.984976D-02 -0.238864D-01  0.122805D-02  0.786486D-02 -0.292327D-01
      9  0.559178D-03  0.666241D-02 -0.387024D-01  0.531102D-02 -0.252668D-02
     10 -0.167634D-01 -0.114446D-02 -0.354472D-02  0.571974D-03  0.634026D-05
     11  0.224419D-02 -0.744953D-02  0.643059D-03  0.275386D-02 -0.190312D-03
     12 -0.410694D-02  0.201452D-03 -0.144775D-01  0.347487D-02 -0.820856D-03
     13 -0.217532D-01  0.495991D-02  0.604084D-02  0.266734D-02  0.168935D-02
     14  0.208529D-02 -0.203871D-01 -0.795668D-04  0.355253D-02  0.323470D-02
     15 -0.629752D-02  0.270035D-02 -0.139028D-01  0.594143D-03  0.000000D+00
     16  0.294025D-02  0.420158D-02 -0.264313D-02  0.238869D-02  0.751908D-03
     17 -0.273481D-03 -0.256621D-02  0.131775D-02  0.157151D-02  0.371637D-03
     18 -0.225063D-02  0.605246D-02  0.319043D-03 -0.170518D-02 -0.192486D-04
     19  0.220667D-02 -0.224433D-02  0.247632D-02 -0.508534D-04  0.306429D-04
     20 -0.937175D-03  0.182860D-02 -0.138691D-02 -0.597700D-04  0.360158D-04
     21 -0.165792D-02  0.225196D-02 -0.207715D-02 -0.143754D-04  0.866223D-05
                6             7             8             9            10 
      6  0.259087D-01
      7 -0.938781D-03  0.379285D-01
      8  0.147384D-01 -0.187642D-01  0.603916D-01
      9 -0.189445D-01 -0.104940D-01 -0.814764D-02  0.753036D-01
     10  0.168795D-03 -0.314023D-02 -0.683413D-03  0.239418D-02  0.487918D-01
     11  0.125862D-02  0.273465D-02  0.285372D-02 -0.225585D-02  0.596242D-02
     12  0.208618D-02  0.714730D-02 -0.116102D-02 -0.155191D-02 -0.383983D-03
     13 -0.526065D-03  0.378404D-02 -0.126251D-02 -0.276091D-03 -0.105080D-01
     14 -0.162543D-02 -0.190810D-02  0.301317D-02  0.516671D-03 -0.151719D-02
     15  0.236937D-03  0.346966D-02 -0.208848D-02 -0.442564D-03  0.352738D-02
     16 -0.110071D-02 -0.719935D-02  0.294728D-02  0.249856D-02 -0.195638D-01
     17 -0.152670D-02 -0.250403D-02 -0.131961D-01  0.574272D-02 -0.220437D-02
     18  0.500409D-02  0.678284D-02 -0.458299D-02 -0.156642D-01 -0.159900D-02
     19 -0.489962D-04  0.349389D-04  0.482505D-04  0.712518D-05  0.611647D-03
     20 -0.575871D-04  0.410651D-04  0.567107D-04  0.837450D-05 -0.419325D-03
     21 -0.138504D-04  0.987664D-05  0.136396D-04  0.201417D-05 -0.562657D-03
               11            12            13            14            15 
     11  0.331444D-01
     12 -0.489543D-02  0.401694D-01
     13 -0.142524D-02 -0.122303D-01  0.339774D-01
     14 -0.145314D-01 -0.269554D-03 -0.124739D-01  0.482021D-01
     15 -0.454596D-02 -0.157796D-01  0.609243D-02 -0.152865D-02  0.494079D-01
     16 -0.129014D-01  0.622415D-02  0.231602D-02  0.236056D-02 -0.489856D-03
     17 -0.191554D-01  0.599032D-02  0.911457D-03  0.852233D-03 -0.205773D-03
     18  0.665322D-02 -0.111234D-01  0.328229D-02  0.326575D-02 -0.690564D-03
     19  0.631557D-03 -0.125084D-03 -0.104836D-01  0.790080D-02 -0.689624D-02
     20  0.532855D-02  0.955101D-03  0.760092D-02 -0.203836D-01  0.566928D-02
     21  0.314234D-02  0.676871D-03 -0.238311D-02 -0.279229D-03 -0.188293D-01
               16            17            18            19            20 
     16  0.190147D-01
     17  0.261574D-02  0.337213D-01
     18 -0.445538D-02 -0.113563D-01  0.221372D-01
     19  0.103549D-03 -0.116835D-03 -0.549381D-04  0.757762D-02
     20  0.243662D-04 -0.274927D-04 -0.129276D-04 -0.625008D-02  0.131612D-01
     21 -0.336324D-04  0.379478D-04  0.178438D-04  0.464182D-02 -0.517532D-02
               21 
     21  0.202236D-01
 Leave Link  716 at Wed Nov 29 01:45:30 2023, MaxMem=  1879048192 cpu:               0.4 elap:               0.0
 (Enter /home/sekinelabo/g16/l103.exe)

 GradGradGradGradGradGradGradGradGradGradGradGradGradGradGradGradGradGrad
 Berny optimization.
 Search for a local minimum.
 Step number   1 out of a maximum of    2
 All quantities printed in internal units (Hartrees-Bohrs-Radians)
 Second derivative matrix not updated -- first step.
 ITU=  0
     Eigenvalues ---    0.00736   0.00829   0.01588   0.02158   0.02353
     Eigenvalues ---    0.03187   0.05071   0.05444   0.06638   0.06886
     Eigenvalues ---    0.07025   0.08117   0.08900   0.11698   0.13226
 Quadratic step=3.007D-01 exceeds max=3.000D-01 adjusted using Lamda= 0.000D+00.
 Angle between NR and scaled steps=   0.00 degrees.
 Angle between quadratic step and forces=  43.56 degrees.
 Linear search not attempted -- first point.
 B after Tr=    -0.000000    0.000000    0.000000
         Rot=    1.000000    0.000000    0.000000    0.000000 Ang=   0.00 deg.
 Variable       Old X    -DE/DX   Delta X   Delta X   Delta X     New X
                                 (Linear)    (Quad)   (Total)
    X1       27.03745   0.00306   0.00000   0.10361   0.10361  27.14106
    Y1       30.10258   0.00207   0.00000  -0.02222  -0.02222  30.08036
    Z1       28.92793  -0.00605   0.00000  -0.08238  -0.08238  28.84555
    X2       25.07704  -0.00056   0.00000   0.02130   0.02130  25.09834
    Y2       34.73336  -0.00025   0.00000  -0.07731  -0.07731  34.65604
    Z2       33.85879  -0.00224   0.00000  -0.10576  -0.10576  33.75303
    X3       27.17502   0.00296   0.00000   0.08462   0.08462  27.25963
    Y3       29.16736  -0.00521   0.00000  -0.07583  -0.07583  29.09152
    Z3       34.58652   0.00579   0.00000   0.02972   0.02972  34.61624
    X4       33.42793  -0.00265   0.00000  -0.05949  -0.05949  33.36844
    Y4       27.01118   0.00181   0.00000   0.04445   0.04445  27.05563
    Z4       30.10447  -0.00194   0.00000  -0.02555  -0.02555  30.07892
    X5       31.03724  -0.00057   0.00000   0.01982   0.01982  31.05706
    Y5       28.01236   0.00106   0.00000   0.05369   0.05369  28.06604
    Z5       23.46926   0.00190   0.00000   0.03223   0.03223  23.50149
    X6       30.49394  -0.00192   0.00000  -0.10555  -0.10555  30.38839
    Y6       22.87457   0.00064   0.00000   0.05058   0.05058  22.92515
    Z6       33.37162   0.00230   0.00000   0.09057   0.09057  33.46218
    X7       28.75634  -0.00032   0.00000  -0.06431  -0.06431  28.69203
    Y7       31.10338  -0.00013   0.00000   0.02665   0.02665  31.13003
    Z7       18.68616   0.00024   0.00000   0.06118   0.06118  18.74734
         Item               Value     Threshold  Converged?
 Maximum Force            0.006051     0.000450     NO 
 RMS     Force            0.002707     0.000300     NO 
 Maximum Displacement     0.105761     0.001800     NO 
 RMS     Displacement     0.065609     0.001200     NO 
 Predicted change in Energy=-1.351262D-03
 GradGradGradGradGradGradGradGradGradGradGradGradGradGradGradGradGradGrad

 Leave Link  103 at Wed Nov 29 01:45:30 2023, MaxMem=  1879048192 cpu:               0.2 elap:               0.0
 (Enter /home/sekinelabo/g16/l9999.exe)
 1\1\GINC-SEKINELABO-XA7R-R37\Force\UB3LYP\6-311+G(d)\Na7(2)\SEKINELABO
 \29-Nov-2023\0\\#P B3LYP/6-311+g(d) force\\DPGEN\\0,2\Na,14.3076,15.92
 96,15.308\Na,13.2702,18.3801,17.9173\Na,14.3804,15.4347,18.3024\Na,17.
 6893,14.2937,15.9306\Na,16.4242,14.8235,12.4194\Na,16.1367,12.1047,17.
 6595\Na,15.2172,16.4592,9.88829\\Version=ES64L-G16RevB.01\State=2-A\HF
 =-1136.1190924\S2=0.783419\S2-1=0.\S2A=0.750386\RMSD=5.625e-09\RMSF=2.
 707e-03\Dipole=-0.2619378,0.4831705,0.854617\Quadrupole=1.7876662,5.34
 38029,-7.1314691,-4.3500222,-0.8689633,4.38188\PG=C01 [X(Na7)]\\@


 IT MATTERS NOT HOW DEEP YOU PLOW,
 BUT HOW LONG YOU STAY IN THE FURROW.
 Job cpu time:       0 days  0 hours  3 minutes 50.6 seconds.
 Elapsed time:       0 days  0 hours  0 minutes 19.9 seconds.
 File lengths (MBytes):  RWF=     32 Int=      0 D2E=      0 Chk=      4 Scr=      1
 Normal termination of Gaussian 16 at Wed Nov 29 01:45:30 2023.
