
7 atoms
1 atom types
   0.0000000000   23.1289802173 xlo xhi
   0.0000000000   23.1289802173 ylo yhi
   0.0000000000   23.1289802173 zlo zhi
   0.0000000000    0.0000000000    0.0000000000 xy xz yz

Atoms # atomic

     1      1   11.5620946801   11.6302782515    9.8804966801
     2      1   11.5688706801    9.6181002515   11.5110296801
     3      1    9.1343356801   10.7548422515   11.6206726801
     4      1   10.1574866801   13.2463642515   11.5306116801
     5      1   11.5641436801   11.6893392515   13.2592116801
     6      1   12.9641646801   13.2481652515   11.5298496801
     7      1   14.0003346801   10.7643412515   11.6195586801
