
7 atoms
1 atom types
   0.0000000000   24.2345807633 xlo xhi
   0.0000000000   24.2345807633 ylo yhi
   0.0000000000   24.2345807633 zlo zhi
   0.0000000000    0.0000000000    0.0000000000 xy xz yz

Atoms # atomic

     1      1   11.5432733816   11.1488409531   10.8618892388
     2      1   13.3570813816   10.0542489531   12.9733582388
     3      1   14.4788183816   11.7978029531   10.8042412388
     4      1   14.3004383816   13.9831809531   12.8589492388
     5      1   11.7438273816   12.5372719531   13.5088312388
     6      1   10.2906193816   13.8458079531   11.2323802388
     7      1    9.1069743816   11.4538789531   12.5813832388
