
7 atoms
1 atom types
   0.0000000000   24.6743279041 xlo xhi
   0.0000000000   24.6743279041 ylo yhi
   0.0000000000   24.6743279041 zlo zhi
   0.0000000000    0.0000000000    0.0000000000 xy xz yz

Atoms # atomic

     1      1   12.4185253806   11.9566115235   12.1322605235
     2      1   14.8172483806   10.3745355235   11.2723005235
     3      1   15.1827083806   12.9787805235   12.7108615235
     4      1   12.7880683806   14.5277925235   13.6355905235
     5      1   11.0448723806   14.4523145235   11.1957045235
     6      1    9.4487803806   11.9652205235   11.6986675235
     7      1   10.6599443806   10.1048925235   13.7147625235
