
7 atoms
1 atom types
   0.0000000000   23.4349266838 xlo xhi
   0.0000000000   23.4349266838 ylo yhi
   0.0000000000   23.4349266838 zlo zhi
   0.0000000000    0.0000000000    0.0000000000 xy xz yz

Atoms # atomic

     1      1   13.7939276276   10.2204921990   12.0647776276
     2      1   11.8094496276   11.6112681990   10.0913126276
     3      1   10.9015106276    9.3438491990   11.5706806276
     4      1    9.0000016276   11.7187791990   11.7201306276
     5      1   11.8112616276   11.8270811990   13.3453186276
     6      1   10.9062756276   14.0935651990   11.8592036276
     7      1   13.7998166276   13.2072081990   11.3708196276
