
7 atoms
1 atom types
   0.0000000000   24.8398647103 xlo xhi
   0.0000000000   24.8398647103 ylo yhi
   0.0000000000   24.8398647103 zlo zhi
   0.0000000000    0.0000000000    0.0000000000 xy xz yz

Atoms # atomic

     1      1   12.4843917837   11.1252089266   11.7291483552
     2      1   15.3356897837   11.7687149266   11.0417743552
     3      1   13.4475887837   11.4870569266   14.5515873552
     4      1   14.7076897837   13.8175199266   13.1416323552
     5      1   12.1224397837   14.1080229266   11.6465603552
     6      1    9.2945217837   13.7990499266   12.5804963552
     7      1    9.5472047837   10.8339529266   12.2483273552
