 Set GAUSS_MDEF to "14GB".
 Entering Gaussian System, Link 0=g16
 Initial command:
 /home/sekinelabo/g16/l1.exe "/home/sekinelabo/g16temp/Gau-347047.inp" -scrdir="/home/sekinelabo/g16temp/"
 Entering Link 1 = /home/sekinelabo/g16/l1.exe PID=    347049.
  
 Copyright (c) 1988-2017, Gaussian, Inc.  All Rights Reserved.
  
 This is part of the Gaussian(R) 16 program.  It is based on
 the Gaussian(R) 09 system (copyright 2009, Gaussian, Inc.),
 the Gaussian(R) 03 system (copyright 2003, Gaussian, Inc.),
 the Gaussian(R) 98 system (copyright 1998, Gaussian, Inc.),
 the Gaussian(R) 94 system (copyright 1995, Gaussian, Inc.),
 the Gaussian 92(TM) system (copyright 1992, Gaussian, Inc.),
 the Gaussian 90(TM) system (copyright 1990, Gaussian, Inc.),
 the Gaussian 88(TM) system (copyright 1988, Gaussian, Inc.),
 the Gaussian 86(TM) system (copyright 1986, Carnegie Mellon
 University), and the Gaussian 82(TM) system (copyright 1983,
 Carnegie Mellon University). Gaussian is a federally registered
 trademark of Gaussian, Inc.
  
 This software contains proprietary and confidential information,
 including trade secrets, belonging to Gaussian, Inc.
  
 This software is provided under written license and may be
 used, copied, transmitted, or stored only in accord with that
 written license.
  
 The following legend is applicable only to US Government
 contracts under FAR:
  
                    RESTRICTED RIGHTS LEGEND
  
 Use, reproduction and disclosure by the US Government is
 subject to restrictions as set forth in subparagraphs (a)
 and (c) of the Commercial Computer Software - Restricted
 Rights clause in FAR 52.227-19.
  
 Gaussian, Inc.
 340 Quinnipiac St., Bldg. 40, Wallingford CT 06492
  
  
 ---------------------------------------------------------------
 Warning -- This program may not be used in any manner that
 competes with the business of Gaussian, Inc. or will provide
 assistance to any competitor of Gaussian, Inc.  The licensee
 of this program is prohibited from giving any competitor of
 Gaussian, Inc. access to this program.  By using this program,
 the user acknowledges that Gaussian, Inc. is engaged in the
 business of creating and licensing software in the field of
 computational chemistry and represents and warrants to the
 licensee that it is not a competitor of Gaussian, Inc. and that
 it will not use this program in any manner prohibited above.
 ---------------------------------------------------------------
  

 Cite this work as:
 Gaussian 16, Revision B.01,
 M. J. Frisch, G. W. Trucks, H. B. Schlegel, G. E. Scuseria, 
 M. A. Robb, J. R. Cheeseman, G. Scalmani, V. Barone, 
 G. A. Petersson, H. Nakatsuji, X. Li, M. Caricato, A. V. Marenich, 
 J. Bloino, B. G. Janesko, R. Gomperts, B. Mennucci, H. P. Hratchian, 
 J. V. Ortiz, A. F. Izmaylov, J. L. Sonnenberg, D. Williams-Young, 
 F. Ding, F. Lipparini, F. Egidi, J. Goings, B. Peng, A. Petrone, 
 T. Henderson, D. Ranasinghe, V. G. Zakrzewski, J. Gao, N. Rega, 
 G. Zheng, W. Liang, M. Hada, M. Ehara, K. Toyota, R. Fukuda, 
 J. Hasegawa, M. Ishida, T. Nakajima, Y. Honda, O. Kitao, H. Nakai, 
 T. Vreven, K. Throssell, J. A. Montgomery, Jr., J. E. Peralta, 
 F. Ogliaro, M. J. Bearpark, J. J. Heyd, E. N. Brothers, K. N. Kudin, 
 V. N. Staroverov, T. A. Keith, R. Kobayashi, J. Normand, 
 K. Raghavachari, A. P. Rendell, J. C. Burant, S. S. Iyengar, 
 J. Tomasi, M. Cossi, J. M. Millam, M. Klene, C. Adamo, R. Cammi, 
 J. W. Ochterski, R. L. Martin, K. Morokuma, O. Farkas, 
 J. B. Foresman, and D. J. Fox, Gaussian, Inc., Wallingford CT, 2016.
 
 ******************************************
 Gaussian 16:  ES64L-G16RevB.01 20-Dec-2017
                29-Nov-2023 
 ******************************************
 %nproc=15
 Will use up to   15 processors via shared memory.
 -------------------------
 #P B3LYP/6-311+g(d) force
 -------------------------
 1/10=7,30=1,38=1/1,3;
 2/12=2,17=6,18=5,40=1/2;
 3/5=4,6=6,7=11,11=2,25=1,30=1,71=1,74=-5/1,2,3;
 4//1;
 5/5=2,38=5/2;
 6/7=2,8=2,9=2,10=2,28=1/1;
 7/29=1/1,2,3,16;
 1/10=7,30=1/3;
 99//99;
 Leave Link    1 at Wed Nov 29 03:16:14 2023, MaxMem=           0 cpu:               0.3 elap:               0.0
 (Enter /home/sekinelabo/g16/l101.exe)
 -----
 DPGEN
 -----
 Symbolic Z-matrix:
 Charge =  0 Multiplicity = 2
 Na                    14.6584   16.2823   15.4143 
 Na                    9.59293   15.512    17.6719 
 Na                    12.5153   14.3188   17.5801 
 Na                    14.6413   13.4286   14.8574 
 Na                    17.719    15.7244   13.2858 
 Na                    17.8122   16.4372   16.9477 
 Na                    20.4864   15.7222   11.6682 
 
 ITRead=  0  0  0  0  0  0  0
 MicOpt= -1 -1 -1 -1 -1 -1 -1
 NAtoms=      7 NQM=        7 NQMF=       0 NMMI=      0 NMMIF=      0
                NMic=       0 NMicF=      0.
                    Isotopes and Nuclear Properties:
 (Nuclear quadrupole moments (NQMom) in fm**2, nuclear magnetic moments (NMagM)
  in nuclear magnetons)

  Atom         1           2           3           4           5           6           7
 IAtWgt=          23          23          23          23          23          23          23
 AtmWgt=  22.9897697  22.9897697  22.9897697  22.9897697  22.9897697  22.9897697  22.9897697
 NucSpn=           3           3           3           3           3           3           3
 AtZEff=  -0.0000000  -0.0000000  -0.0000000  -0.0000000  -0.0000000  -0.0000000  -0.0000000
 NQMom=   10.4000000  10.4000000  10.4000000  10.4000000  10.4000000  10.4000000  10.4000000
 NMagM=    2.2175200   2.2175200   2.2175200   2.2175200   2.2175200   2.2175200   2.2175200
 AtZNuc=  11.0000000  11.0000000  11.0000000  11.0000000  11.0000000  11.0000000  11.0000000
 Leave Link  101 at Wed Nov 29 03:16:14 2023, MaxMem=  1879048192 cpu:               2.4 elap:               0.2
 (Enter /home/sekinelabo/g16/l103.exe)

 GradGradGradGradGradGradGradGradGradGradGradGradGradGradGradGradGradGrad
 Berny optimization.
 Initialization pass.
 Trust Radius=3.00D-01 FncErr=1.00D-07 GrdErr=1.00D-07 EigMax=2.50D+02 EigMin=1.00D-04
 Number of steps in this run=      2 maximum allowed number of steps=      2.
 GradGradGradGradGradGradGradGradGradGradGradGradGradGradGradGradGradGrad

 Leave Link  103 at Wed Nov 29 03:16:14 2023, MaxMem=  1879048192 cpu:               0.2 elap:               0.0
 (Enter /home/sekinelabo/g16/l202.exe)
                          Input orientation:                          
 ---------------------------------------------------------------------
 Center     Atomic      Atomic             Coordinates (Angstroms)
 Number     Number       Type             X           Y           Z
 ---------------------------------------------------------------------
      1         11           0       14.658400   16.282300   15.414300
      2         11           0        9.592930   15.512000   17.671900
      3         11           0       12.515300   14.318800   17.580100
      4         11           0       14.641300   13.428600   14.857400
      5         11           0       17.719000   15.724400   13.285800
      6         11           0       17.812200   16.437200   16.947700
      7         11           0       20.486400   15.722200   11.668200
 ---------------------------------------------------------------------
                    Distance matrix (angstroms):
                    1          2          3          4          5
     1  Na   0.000000
     2  Na   5.599027   0.000000
     3  Na   3.624762   3.157911   0.000000
     4  Na   2.907582   6.143941   3.567272   0.000000
     5  Na   3.769488   9.236666   6.891677   4.148839   0.000000
     6  Na   3.510237   8.302822   5.739747   4.845166   3.731793
     7  Na   6.950724  12.440108  10.022900   7.042499   3.205486
                    6          7
     6  Na   0.000000
     7  Na   5.961182   0.000000
 Stoichiometry    Na7(2)
 Framework group  C1[X(Na7)]
 Deg. of freedom    15
 Full point group                 C1      NOp   1
 Largest Abelian subgroup         C1      NOp   1
 Largest concise Abelian subgroup C1      NOp   1
                         Standard orientation:                         
 ---------------------------------------------------------------------
 Center     Atomic      Atomic             Coordinates (Angstroms)
 Number     Number       Type             X           Y           Z
 ---------------------------------------------------------------------
      1         11           0       -0.557204    0.286027   -0.980571
      2         11           0       -6.128025   -0.274656   -0.954168
      3         11           0       -3.629113    0.118123    0.936219
      4         11           0       -0.537277   -1.642193    1.195573
      5         11           0        3.092492   -0.496962   -0.455514
      6         11           0        1.473086    2.716275    0.533886
      7         11           0        6.286040   -0.706615   -0.275425
 ---------------------------------------------------------------------
 Rotational constants (GHZ):           1.3967367           0.2048410           0.1935743
 Leave Link  202 at Wed Nov 29 03:16:14 2023, MaxMem=  1879048192 cpu:               0.0 elap:               0.0
 (Enter /home/sekinelabo/g16/l301.exe)
 Standard basis: 6-311+G(d) (5D, 7F)
 Ernie: Thresh=  0.10000D-02 Tol=  0.10000D-05 Strict=F.
 There are   217 symmetry adapted cartesian basis functions of A   symmetry.
 There are   210 symmetry adapted basis functions of A   symmetry.
   210 basis functions,   350 primitive gaussians,   217 cartesian basis functions
    39 alpha electrons       38 beta electrons
       nuclear repulsion energy       276.4510466452 Hartrees.
 IExCor=  402 DFT=T Ex+Corr=B3LYP ExCW=0 ScaHFX=  0.200000
 ScaDFX=  0.800000  0.720000  1.000000  0.810000 ScalE2=  1.000000  1.000000
 IRadAn=      5 IRanWt=     -1 IRanGd=            0 ICorTp=0 IEmpDi=  4
 NAtoms=    7 NActive=    7 NUniq=    7 SFac= 1.00D+00 NAtFMM=   60 NAOKFM=F Big=F
 Integral buffers will be    131072 words long.
 Raffenetti 2 integral format.
 Two-electron integral symmetry is turned on.
 Leave Link  301 at Wed Nov 29 03:16:14 2023, MaxMem=  1879048192 cpu:               0.5 elap:               0.0
 (Enter /home/sekinelabo/g16/l302.exe)
 NPDir=0 NMtPBC=     1 NCelOv=     1 NCel=       1 NClECP=     1 NCelD=      1
         NCelK=      1 NCelE2=     1 NClLst=     1 CellRange=     0.0.
 One-electron integrals computed using PRISM.
 One-electron integral symmetry used in STVInt
 NBasis=   210 RedAO= T EigKep=  2.19D-06  NBF=   210
 NBsUse=   210 1.00D-06 EigRej= -1.00D+00 NBFU=   210
 Precomputing XC quadrature grid using
 IXCGrd= 4 IRadAn=           5 IRanWt=          -1 IRanGd=           0 AccXCQ= 0.00D+00.
 Generated NRdTot=       0 NPtTot=           0 NUsed=           0 NTot=          32
 NSgBfM=   203   203   203   203   203 MxSgAt=     7 MxSgA2=     7.
 Leave Link  302 at Wed Nov 29 03:16:14 2023, MaxMem=  1879048192 cpu:               1.9 elap:               0.1
 (Enter /home/sekinelabo/g16/l303.exe)
 DipDrv:  MaxL=1.
 Leave Link  303 at Wed Nov 29 03:16:14 2023, MaxMem=  1879048192 cpu:               0.5 elap:               0.0
 (Enter /home/sekinelabo/g16/l401.exe)
 ExpMin= 7.60D-03 ExpMax= 3.62D+04 ExpMxC= 1.21D+03 IAcc=3 IRadAn=         5 AccDes= 0.00D+00
 Harris functional with IExCor=  402 and IRadAn=       5 diagonalized for initial guess.
 HarFok:  IExCor=  402 AccDes= 0.00D+00 IRadAn=         5 IDoV= 1 UseB2=F ITyADJ=14
 ICtDFT=  3500011 ScaDFX=  1.000000  1.000000  1.000000  1.000000
 FoFCou: FMM=F IPFlag=           0 FMFlag=      100000 FMFlg1=           0
         NFxFlg=           0 DoJE=T BraDBF=F KetDBF=T FulRan=T
         wScrn=  0.000000 ICntrl=       500 IOpCl=  0 I1Cent=   200000004 NGrid=           0
         NMat0=    1 NMatS0=      1 NMatT0=    0 NMatD0=    1 NMtDS0=    0 NMtDT0=    0
 Petite list used in FoFCou.
 Harris En= -1135.88043522802    
 JPrj=0 DoOrth=F DoCkMO=F.
 Initial guess <Sx>= 0.0000 <Sy>= 0.0000 <Sz>= 0.5000 <S**2>= 0.7500 S= 0.5000
 Leave Link  401 at Wed Nov 29 03:16:15 2023, MaxMem=  1879048192 cpu:               4.2 elap:               0.3
 (Enter /home/sekinelabo/g16/l502.exe)
 Keep R1 and R2 ints in memory in canonical form, NReq=506573307.
 FoFCou: FMM=F IPFlag=           0 FMFlag=           0 FMFlg1=           0
         NFxFlg=           0 DoJE=F BraDBF=F KetDBF=F FulRan=T
         wScrn=  0.000000 ICntrl=       600 IOpCl=  0 I1Cent=           0 NGrid=           0
         NMat0=    1 NMatS0=  22155 NMatT0=    0 NMatD0=    1 NMtDS0=    0 NMtDT0=    0
 Symmetry not used in FoFCou.
 Two-electron integral symmetry not used.
 UHF open shell SCF:
 Using DIIS extrapolation, IDIIS=  1040.
 NGot=  1879048192 LenX=  1388082593 LenY=  1388035063
 Requested convergence on RMS density matrix=1.00D-08 within 128 cycles.
 Requested convergence on MAX density matrix=1.00D-06.
 Requested convergence on             energy=1.00D-06.
 No special actions if energy rises.

 Cycle   1  Pass 1  IDiag  1:
 E= -1136.08365225226    
 DIIS: error= 9.36D-03 at cycle   1 NSaved=   1.
 NSaved= 1 IEnMin= 1 EnMin= -1136.08365225226     IErMin= 1 ErrMin= 9.36D-03
 ErrMax= 9.36D-03  0.00D+00 EMaxC= 1.00D-01 BMatC= 1.82D-01 BMatP= 1.82D-01
 IDIUse=3 WtCom= 9.06D-01 WtEn= 9.36D-02
 Coeff-Com:  0.100D+01
 Coeff-En:   0.100D+01
 Coeff:      0.100D+01
 Gap=     0.048 Goal=   None    Shift=    0.000
 Gap=     0.022 Goal=   None    Shift=    0.000
 GapD=    0.022 DampG=0.250 DampE=1.000 DampFc=0.2500 IDamp=-1.
 Damping current iteration by 2.50D-01
 RMSDP=3.35D-02 MaxDP=3.15D+00              OVMax= 1.45D-01

 Cycle   2  Pass 1  IDiag  1:
 E= -1136.09162977011     Delta-E=       -0.007977517844 Rises=F Damp=T
 DIIS: error= 6.56D-03 at cycle   2 NSaved=   2.
 NSaved= 2 IEnMin= 2 EnMin= -1136.09162977011     IErMin= 2 ErrMin= 6.56D-03
 ErrMax= 6.56D-03  0.00D+00 EMaxC= 1.00D-01 BMatC= 7.10D-02 BMatP= 1.82D-01
 IDIUse=3 WtCom= 9.34D-01 WtEn= 6.56D-02
 Coeff-Com: -0.132D+01 0.232D+01
 Coeff-En:   0.000D+00 0.100D+01
 Coeff:     -0.124D+01 0.224D+01
 Gap=     0.048 Goal=   None    Shift=    0.000
 Gap=     0.029 Goal=   None    Shift=    0.000
 RMSDP=1.80D-02 MaxDP=2.12D+00 DE=-7.98D-03 OVMax= 1.06D-01

 Cycle   3  Pass 1  IDiag  1:
 E= -1136.10826705039     Delta-E=       -0.016637280283 Rises=F Damp=F
 DIIS: error= 1.06D-03 at cycle   3 NSaved=   3.
 NSaved= 3 IEnMin= 3 EnMin= -1136.10826705039     IErMin= 3 ErrMin= 1.06D-03
 ErrMax= 1.06D-03  0.00D+00 EMaxC= 1.00D-01 BMatC= 3.89D-04 BMatP= 7.10D-02
 IDIUse=3 WtCom= 9.89D-01 WtEn= 1.06D-02
 Coeff-Com: -0.571D-01 0.921D-01 0.965D+00
 Coeff-En:   0.000D+00 0.000D+00 0.100D+01
 Coeff:     -0.565D-01 0.911D-01 0.965D+00
 Gap=     0.050 Goal=   None    Shift=    0.000
 Gap=     0.032 Goal=   None    Shift=    0.000
 RMSDP=6.04D-03 MaxDP=5.19D-01 DE=-1.66D-02 OVMax= 9.48D-02

 Cycle   4  Pass 1  IDiag  1:
 E= -1136.10761239026     Delta-E=        0.000654660131 Rises=F Damp=F
 DIIS: error= 1.88D-03 at cycle   4 NSaved=   4.
 NSaved= 4 IEnMin= 3 EnMin= -1136.10826705039     IErMin= 3 ErrMin= 1.06D-03
 ErrMax= 1.88D-03  0.00D+00 EMaxC= 1.00D-01 BMatC= 8.06D-04 BMatP= 3.89D-04
 IDIUse=3 WtCom= 1.87D-01 WtEn= 8.13D-01
 Coeff-Com: -0.137D-01 0.192D-01 0.595D+00 0.399D+00
 Coeff-En:   0.000D+00 0.000D+00 0.661D+00 0.339D+00
 Coeff:     -0.256D-02 0.359D-02 0.649D+00 0.350D+00
 Gap=     0.047 Goal=   None    Shift=    0.000
 Gap=     0.031 Goal=   None    Shift=    0.000
 RMSDP=4.01D-03 MaxDP=4.27D-01 DE= 6.55D-04 OVMax= 6.32D-02

 Cycle   5  Pass 1  IDiag  1:
 E= -1136.10885845726     Delta-E=       -0.001246067003 Rises=F Damp=F
 DIIS: error= 1.85D-04 at cycle   5 NSaved=   5.
 NSaved= 5 IEnMin= 5 EnMin= -1136.10885845726     IErMin= 5 ErrMin= 1.85D-04
 ErrMax= 1.85D-04  0.00D+00 EMaxC= 1.00D-01 BMatC= 1.77D-05 BMatP= 3.89D-04
 IDIUse=3 WtCom= 9.98D-01 WtEn= 1.85D-03
 Coeff-Com:  0.368D-02-0.563D-02 0.190D+00 0.597D-01 0.752D+00
 Coeff-En:   0.000D+00 0.000D+00 0.000D+00 0.000D+00 0.100D+01
 Coeff:      0.368D-02-0.562D-02 0.190D+00 0.596D-01 0.752D+00
 Gap=     0.047 Goal=   None    Shift=    0.000
 Gap=     0.031 Goal=   None    Shift=    0.000
 RMSDP=6.07D-04 MaxDP=5.49D-02 DE=-1.25D-03 OVMax= 9.30D-03

 Cycle   6  Pass 1  IDiag  1:
 E= -1136.10887955984     Delta-E=       -0.000021102577 Rises=F Damp=F
 DIIS: error= 1.08D-04 at cycle   6 NSaved=   6.
 NSaved= 6 IEnMin= 6 EnMin= -1136.10887955984     IErMin= 6 ErrMin= 1.08D-04
 ErrMax= 1.08D-04  0.00D+00 EMaxC= 1.00D-01 BMatC= 5.73D-06 BMatP= 1.77D-05
 IDIUse=3 WtCom= 9.99D-01 WtEn= 1.08D-03
 Coeff-Com:  0.406D-02-0.605D-02-0.109D-01-0.433D-01 0.400D+00 0.656D+00
 Coeff-En:   0.000D+00 0.000D+00 0.000D+00 0.000D+00 0.000D+00 0.100D+01
 Coeff:      0.405D-02-0.605D-02-0.109D-01-0.433D-01 0.400D+00 0.657D+00
 Gap=     0.047 Goal=   None    Shift=    0.000
 Gap=     0.031 Goal=   None    Shift=    0.000
 RMSDP=3.66D-04 MaxDP=3.03D-02 DE=-2.11D-05 OVMax= 5.97D-03

 Cycle   7  Pass 1  IDiag  1:
 E= -1136.10889089905     Delta-E=       -0.000011339216 Rises=F Damp=F
 DIIS: error= 7.25D-05 at cycle   7 NSaved=   7.
 NSaved= 7 IEnMin= 7 EnMin= -1136.10889089905     IErMin= 7 ErrMin= 7.25D-05
 ErrMax= 7.25D-05  0.00D+00 EMaxC= 1.00D-01 BMatC= 1.11D-06 BMatP= 5.73D-06
 IDIUse=1 WtCom= 1.00D+00 WtEn= 0.00D+00
 Coeff-Com: -0.713D-04 0.964D-04-0.748D-01-0.431D-01-0.596D-01 0.296D+00
 Coeff-Com:  0.882D+00
 Coeff:     -0.713D-04 0.964D-04-0.748D-01-0.431D-01-0.596D-01 0.296D+00
 Coeff:      0.882D+00
 Gap=     0.047 Goal=   None    Shift=    0.000
 Gap=     0.031 Goal=   None    Shift=    0.000
 RMSDP=3.16D-04 MaxDP=3.82D-02 DE=-1.13D-05 OVMax= 4.75D-03

 Cycle   8  Pass 1  IDiag  1:
 E= -1136.10889465879     Delta-E=       -0.000003759734 Rises=F Damp=F
 DIIS: error= 2.12D-05 at cycle   8 NSaved=   8.
 NSaved= 8 IEnMin= 8 EnMin= -1136.10889465879     IErMin= 8 ErrMin= 2.12D-05
 ErrMax= 2.12D-05  0.00D+00 EMaxC= 1.00D-01 BMatC= 1.55D-07 BMatP= 1.11D-06
 IDIUse=1 WtCom= 1.00D+00 WtEn= 0.00D+00
 Coeff-Com: -0.143D-04 0.991D-04-0.174D-01-0.421D-02-0.581D-01-0.255D-01
 Coeff-Com:  0.268D+00 0.837D+00
 Coeff:     -0.143D-04 0.991D-04-0.174D-01-0.421D-02-0.581D-01-0.255D-01
 Coeff:      0.268D+00 0.837D+00
 Gap=     0.047 Goal=   None    Shift=    0.000
 Gap=     0.031 Goal=   None    Shift=    0.000
 RMSDP=7.29D-05 MaxDP=6.04D-03 DE=-3.76D-06 OVMax= 1.85D-03

 Cycle   9  Pass 1  IDiag  1:
 E= -1136.10889522802     Delta-E=       -0.000000569230 Rises=F Damp=F
 DIIS: error= 8.52D-06 at cycle   9 NSaved=   9.
 NSaved= 9 IEnMin= 9 EnMin= -1136.10889522802     IErMin= 9 ErrMin= 8.52D-06
 ErrMax= 8.52D-06  0.00D+00 EMaxC= 1.00D-01 BMatC= 5.27D-08 BMatP= 1.55D-07
 IDIUse=1 WtCom= 1.00D+00 WtEn= 0.00D+00
 Coeff-Com:  0.249D-03-0.284D-03 0.482D-02 0.488D-02-0.101D-01-0.701D-01
 Coeff-Com: -0.628D-01 0.404D+00 0.729D+00
 Coeff:      0.249D-03-0.284D-03 0.482D-02 0.488D-02-0.101D-01-0.701D-01
 Coeff:     -0.628D-01 0.404D+00 0.729D+00
 Gap=     0.047 Goal=   None    Shift=    0.000
 Gap=     0.031 Goal=   None    Shift=    0.000
 RMSDP=4.07D-05 MaxDP=3.42D-03 DE=-5.69D-07 OVMax= 9.04D-04

 Cycle  10  Pass 1  IDiag  1:
 E= -1136.10889542559     Delta-E=       -0.000000197577 Rises=F Damp=F
 DIIS: error= 5.29D-06 at cycle  10 NSaved=  10.
 NSaved=10 IEnMin=10 EnMin= -1136.10889542559     IErMin=10 ErrMin= 5.29D-06
 ErrMax= 5.29D-06  0.00D+00 EMaxC= 1.00D-01 BMatC= 9.52D-09 BMatP= 5.27D-08
 IDIUse=1 WtCom= 1.00D+00 WtEn= 0.00D+00
 Coeff-Com:  0.411D-04-0.648D-04 0.589D-02 0.152D-02 0.186D-01-0.116D-02
 Coeff-Com: -0.919D-01-0.155D+00 0.624D-01 0.116D+01
 Coeff:      0.411D-04-0.648D-04 0.589D-02 0.152D-02 0.186D-01-0.116D-02
 Coeff:     -0.919D-01-0.155D+00 0.624D-01 0.116D+01
 Gap=     0.047 Goal=   None    Shift=    0.000
 Gap=     0.031 Goal=   None    Shift=    0.000
 RMSDP=2.35D-05 MaxDP=1.43D-03 DE=-1.98D-07 OVMax= 8.97D-04

 Cycle  11  Pass 1  IDiag  1:
 E= -1136.10889552596     Delta-E=       -0.000000100366 Rises=F Damp=F
 DIIS: error= 3.65D-06 at cycle  11 NSaved=  11.
 NSaved=11 IEnMin=11 EnMin= -1136.10889552596     IErMin=11 ErrMin= 3.65D-06
 ErrMax= 3.65D-06  0.00D+00 EMaxC= 1.00D-01 BMatC= 3.54D-09 BMatP= 9.52D-09
 IDIUse=1 WtCom= 1.00D+00 WtEn= 0.00D+00
 Coeff-Com: -0.146D-03 0.180D-03 0.421D-03-0.533D-03 0.628D-02 0.174D-01
 Coeff-Com: -0.343D-02-0.163D+00-0.147D+00 0.245D+00 0.104D+01
 Coeff:     -0.146D-03 0.180D-03 0.421D-03-0.533D-03 0.628D-02 0.174D-01
 Coeff:     -0.343D-02-0.163D+00-0.147D+00 0.245D+00 0.104D+01
 Gap=     0.047 Goal=   None    Shift=    0.000
 Gap=     0.031 Goal=   None    Shift=    0.000
 RMSDP=1.66D-05 MaxDP=1.35D-03 DE=-1.00D-07 OVMax= 5.96D-04

 Cycle  12  Pass 1  IDiag  1:
 E= -1136.10889556755     Delta-E=       -0.000000041587 Rises=F Damp=F
 DIIS: error= 3.08D-06 at cycle  12 NSaved=  12.
 NSaved=12 IEnMin=12 EnMin= -1136.10889556755     IErMin=12 ErrMin= 3.08D-06
 ErrMax= 3.08D-06  0.00D+00 EMaxC= 1.00D-01 BMatC= 1.54D-09 BMatP= 3.54D-09
 IDIUse=1 WtCom= 1.00D+00 WtEn= 0.00D+00
 Coeff-Com: -0.621D-04 0.781D-04-0.171D-02-0.358D-03-0.456D-02 0.678D-02
 Coeff-Com:  0.258D-01-0.864D-02-0.597D-01-0.303D+00 0.389D+00 0.956D+00
 Coeff:     -0.621D-04 0.781D-04-0.171D-02-0.358D-03-0.456D-02 0.678D-02
 Coeff:      0.258D-01-0.864D-02-0.597D-01-0.303D+00 0.389D+00 0.956D+00
 Gap=     0.047 Goal=   None    Shift=    0.000
 Gap=     0.031 Goal=   None    Shift=    0.000
 RMSDP=1.45D-05 MaxDP=1.28D-03 DE=-4.16D-08 OVMax= 4.14D-04

 Cycle  13  Pass 1  IDiag  1:
 E= -1136.10889558678     Delta-E=       -0.000000019231 Rises=F Damp=F
 DIIS: error= 2.46D-06 at cycle  13 NSaved=  13.
 NSaved=13 IEnMin=13 EnMin= -1136.10889558678     IErMin=13 ErrMin= 2.46D-06
 ErrMax= 2.46D-06  0.00D+00 EMaxC= 1.00D-01 BMatC= 6.74D-10 BMatP= 1.54D-09
 IDIUse=1 WtCom= 1.00D+00 WtEn= 0.00D+00
 Coeff-Com:  0.824D-04-0.104D-03-0.148D-03 0.561D-03-0.386D-02-0.498D-02
 Coeff-Com: -0.309D-02 0.789D-01 0.598D-01-0.110D+00-0.414D+00-0.127D+00
 Coeff-Com:  0.152D+01
 Coeff:      0.824D-04-0.104D-03-0.148D-03 0.561D-03-0.386D-02-0.498D-02
 Coeff:     -0.309D-02 0.789D-01 0.598D-01-0.110D+00-0.414D+00-0.127D+00
 Coeff:      0.152D+01
 Gap=     0.047 Goal=   None    Shift=    0.000
 Gap=     0.031 Goal=   None    Shift=    0.000
 RMSDP=2.02D-05 MaxDP=1.86D-03 DE=-1.92D-08 OVMax= 4.27D-04

 Cycle  14  Pass 1  IDiag  1:
 E= -1136.10889560065     Delta-E=       -0.000000013875 Rises=F Damp=F
 DIIS: error= 1.40D-06 at cycle  14 NSaved=  14.
 NSaved=14 IEnMin=14 EnMin= -1136.10889560065     IErMin=14 ErrMin= 1.40D-06
 ErrMax= 1.40D-06  0.00D+00 EMaxC= 1.00D-01 BMatC= 2.94D-10 BMatP= 6.74D-10
 IDIUse=1 WtCom= 1.00D+00 WtEn= 0.00D+00
 Coeff-Com:  0.375D-04-0.463D-04 0.574D-03 0.386D-03 0.479D-03-0.259D-02
 Coeff-Com: -0.131D-01 0.221D-01 0.526D-01 0.875D-01-0.277D+00-0.461D+00
 Coeff-Com:  0.470D+00 0.112D+01
 Coeff:      0.375D-04-0.463D-04 0.574D-03 0.386D-03 0.479D-03-0.259D-02
 Coeff:     -0.131D-01 0.221D-01 0.526D-01 0.875D-01-0.277D+00-0.461D+00
 Coeff:      0.470D+00 0.112D+01
 Gap=     0.047 Goal=   None    Shift=    0.000
 Gap=     0.031 Goal=   None    Shift=    0.000
 RMSDP=1.56D-05 MaxDP=1.49D-03 DE=-1.39D-08 OVMax= 3.26D-04

 Cycle  15  Pass 1  IDiag  1:
 E= -1136.10889560631     Delta-E=       -0.000000005660 Rises=F Damp=F
 DIIS: error= 8.76D-07 at cycle  15 NSaved=  15.
 NSaved=15 IEnMin=15 EnMin= -1136.10889560631     IErMin=15 ErrMin= 8.76D-07
 ErrMax= 8.76D-07  0.00D+00 EMaxC= 1.00D-01 BMatC= 1.16D-10 BMatP= 2.94D-10
 IDIUse=1 WtCom= 1.00D+00 WtEn= 0.00D+00
 Coeff-Com: -0.483D-04 0.618D-04 0.312D-03-0.113D-03 0.282D-02 0.331D-02
 Coeff-Com: -0.487D-02-0.479D-01-0.640D-02 0.109D+00 0.139D+00-0.962D-01
 Coeff-Com: -0.769D+00 0.417D+00 0.125D+01
 Coeff:     -0.483D-04 0.618D-04 0.312D-03-0.113D-03 0.282D-02 0.331D-02
 Coeff:     -0.487D-02-0.479D-01-0.640D-02 0.109D+00 0.139D+00-0.962D-01
 Coeff:     -0.769D+00 0.417D+00 0.125D+01
 Gap=     0.047 Goal=   None    Shift=    0.000
 Gap=     0.031 Goal=   None    Shift=    0.000
 RMSDP=1.46D-05 MaxDP=1.43D-03 DE=-5.66D-09 OVMax= 2.86D-04

 Cycle  16  Pass 1  IDiag  1:
 E= -1136.10889560855     Delta-E=       -0.000000002237 Rises=F Damp=F
 DIIS: error= 2.58D-07 at cycle  16 NSaved=  16.
 NSaved=16 IEnMin=16 EnMin= -1136.10889560855     IErMin=16 ErrMin= 2.58D-07
 ErrMax= 2.58D-07  0.00D+00 EMaxC= 1.00D-01 BMatC= 1.30D-11 BMatP= 1.16D-10
 IDIUse=1 WtCom= 1.00D+00 WtEn= 0.00D+00
 Coeff-Com: -0.101D-04 0.125D-04-0.639D-04-0.186D-04 0.108D-03 0.948D-03
 Coeff-Com:  0.842D-03-0.854D-02-0.715D-02-0.481D-02 0.575D-01 0.604D-01
 Coeff-Com: -0.152D+00-0.119D+00 0.114D+00 0.106D+01
 Coeff:     -0.101D-04 0.125D-04-0.639D-04-0.186D-04 0.108D-03 0.948D-03
 Coeff:      0.842D-03-0.854D-02-0.715D-02-0.481D-02 0.575D-01 0.604D-01
 Coeff:     -0.152D+00-0.119D+00 0.114D+00 0.106D+01
 Gap=     0.047 Goal=   None    Shift=    0.000
 Gap=     0.031 Goal=   None    Shift=    0.000
 RMSDP=2.98D-06 MaxDP=2.52D-04 DE=-2.24D-09 OVMax= 6.29D-05

 Cycle  17  Pass 1  IDiag  1:
 E= -1136.10889560871     Delta-E=       -0.000000000160 Rises=F Damp=F
 DIIS: error= 9.71D-08 at cycle  17 NSaved=  17.
 NSaved=17 IEnMin=17 EnMin= -1136.10889560871     IErMin=17 ErrMin= 9.71D-08
 ErrMax= 9.71D-08  0.00D+00 EMaxC= 1.00D-01 BMatC= 2.59D-12 BMatP= 1.30D-11
 IDIUse=1 WtCom= 1.00D+00 WtEn= 0.00D+00
 Coeff-Com:  0.120D-04-0.155D-04-0.737D-04 0.239D-04-0.648D-03-0.530D-03
 Coeff-Com:  0.102D-02 0.101D-01 0.101D-02-0.246D-01-0.247D-01 0.111D-01
 Coeff-Com:  0.187D+00-0.120D+00-0.282D+00 0.652D-01 0.118D+01
 Coeff:      0.120D-04-0.155D-04-0.737D-04 0.239D-04-0.648D-03-0.530D-03
 Coeff:      0.102D-02 0.101D-01 0.101D-02-0.246D-01-0.247D-01 0.111D-01
 Coeff:      0.187D+00-0.120D+00-0.282D+00 0.652D-01 0.118D+01
 Gap=     0.047 Goal=   None    Shift=    0.000
 Gap=     0.031 Goal=   None    Shift=    0.000
 RMSDP=9.25D-07 MaxDP=8.25D-05 DE=-1.60D-10 OVMax= 2.97D-05

 Cycle  18  Pass 1  IDiag  1:
 E= -1136.10889560874     Delta-E=       -0.000000000029 Rises=F Damp=F
 DIIS: error= 3.82D-08 at cycle  18 NSaved=  18.
 NSaved=18 IEnMin=18 EnMin= -1136.10889560874     IErMin=18 ErrMin= 3.82D-08
 ErrMax= 3.82D-08  0.00D+00 EMaxC= 1.00D-01 BMatC= 4.52D-13 BMatP= 2.59D-12
 IDIUse=1 WtCom= 1.00D+00 WtEn= 0.00D+00
 Coeff-Com:  0.266D-05-0.331D-05 0.577D-06 0.130D-04-0.100D-03-0.165D-03
 Coeff-Com: -0.919D-04 0.258D-02 0.151D-02-0.149D-02-0.139D-01-0.706D-02
 Coeff-Com:  0.408D-01 0.144D-01-0.536D-01-0.182D+00 0.142D+00 0.106D+01
 Coeff:      0.266D-05-0.331D-05 0.577D-06 0.130D-04-0.100D-03-0.165D-03
 Coeff:     -0.919D-04 0.258D-02 0.151D-02-0.149D-02-0.139D-01-0.706D-02
 Coeff:      0.408D-01 0.144D-01-0.536D-01-0.182D+00 0.142D+00 0.106D+01
 Gap=     0.047 Goal=   None    Shift=    0.000
 Gap=     0.031 Goal=   None    Shift=    0.000
 RMSDP=2.23D-07 MaxDP=2.07D-05 DE=-2.89D-11 OVMax= 7.88D-06

 Cycle  19  Pass 1  IDiag  1:
 E= -1136.10889560874     Delta-E=        0.000000000000 Rises=F Damp=F
 DIIS: error= 1.28D-08 at cycle  19 NSaved=  19.
 NSaved=19 IEnMin=18 EnMin= -1136.10889560874     IErMin=19 ErrMin= 1.28D-08
 ErrMax= 1.28D-08  0.00D+00 EMaxC= 1.00D-01 BMatC= 4.57D-14 BMatP= 4.52D-13
 IDIUse=1 WtCom= 1.00D+00 WtEn= 0.00D+00
 Coeff-Com: -0.194D-05 0.254D-05 0.107D-04-0.334D-05 0.847D-04 0.897D-04
 Coeff-Com: -0.172D-03-0.134D-02 0.863D-04 0.348D-02 0.243D-02-0.315D-02
 Coeff-Com: -0.219D-01 0.195D-01 0.368D-01-0.355D-01-0.165D+00 0.165D+00
 Coeff-Com:  0.100D+01
 Coeff:     -0.194D-05 0.254D-05 0.107D-04-0.334D-05 0.847D-04 0.897D-04
 Coeff:     -0.172D-03-0.134D-02 0.863D-04 0.348D-02 0.243D-02-0.315D-02
 Coeff:     -0.219D-01 0.195D-01 0.368D-01-0.355D-01-0.165D+00 0.165D+00
 Coeff:      0.100D+01
 Gap=     0.047 Goal=   None    Shift=    0.000
 Gap=     0.031 Goal=   None    Shift=    0.000
 RMSDP=9.50D-08 MaxDP=1.21D-05 DE= 4.55D-13 OVMax= 1.40D-06

 Cycle  20  Pass 1  IDiag  1:
 E= -1136.10889560876     Delta-E=       -0.000000000015 Rises=F Damp=F
 DIIS: error= 2.95D-09 at cycle  20 NSaved=  20.
 NSaved=20 IEnMin=20 EnMin= -1136.10889560876     IErMin=20 ErrMin= 2.95D-09
 ErrMax= 2.95D-09  0.00D+00 EMaxC= 1.00D-01 BMatC= 2.82D-15 BMatP= 4.57D-14
 IDIUse=1 WtCom= 1.00D+00 WtEn= 0.00D+00
 Coeff-Com:  0.539D-07-0.829D-07-0.847D-06-0.399D-06 0.951D-06-0.189D-05
 Coeff-Com:  0.866D-05-0.318D-04-0.684D-04-0.216D-03 0.638D-03 0.594D-03
 Coeff-Com: -0.625D-03-0.277D-02 0.852D-03 0.174D-01 0.211D-03-0.935D-01
 Coeff-Com: -0.699D-01 0.115D+01
 Coeff:      0.539D-07-0.829D-07-0.847D-06-0.399D-06 0.951D-06-0.189D-05
 Coeff:      0.866D-05-0.318D-04-0.684D-04-0.216D-03 0.638D-03 0.594D-03
 Coeff:     -0.625D-03-0.277D-02 0.852D-03 0.174D-01 0.211D-03-0.935D-01
 Coeff:     -0.699D-01 0.115D+01
 Gap=     0.047 Goal=   None    Shift=    0.000
 Gap=     0.031 Goal=   None    Shift=    0.000
 RMSDP=2.12D-08 MaxDP=2.11D-06 DE=-1.55D-11 OVMax= 3.41D-07

 Cycle  21  Pass 1  IDiag  1:
 E= -1136.10889560875     Delta-E=        0.000000000003 Rises=F Damp=F
 DIIS: error= 1.49D-09 at cycle  21 NSaved=  20.
 NSaved=20 IEnMin=19 EnMin= -1136.10889560876     IErMin=20 ErrMin= 1.49D-09
 ErrMax= 1.49D-09  0.00D+00 EMaxC= 1.00D-01 BMatC= 6.72D-16 BMatP= 2.82D-15
 IDIUse=1 WtCom= 1.00D+00 WtEn= 0.00D+00
 Large coefficients: NSaved= 20 BigCof=    0.00 CofMax=   10.00 Det=-1.40D-15
 Inversion failed.  Reducing to 19 matrices.
 Large coefficients: NSaved= 19 BigCof=    0.00 CofMax=   10.00 Det=-1.40D-15
 Inversion failed.  Reducing to 18 matrices.
 Large coefficients: NSaved= 18 BigCof=    0.00 CofMax=   10.00 Det=-1.42D-15
 Inversion failed.  Reducing to 17 matrices.
 Large coefficients: NSaved= 17 BigCof=    0.00 CofMax=   10.00 Det=-1.42D-15
 Inversion failed.  Reducing to 16 matrices.
 Large coefficients: NSaved= 16 BigCof=    0.00 CofMax=   10.00 Det=-1.45D-15
 Inversion failed.  Reducing to 15 matrices.
 Coeff-Com:  0.198D-05-0.174D-04-0.414D-04-0.226D-04 0.255D-03 0.154D-03
 Coeff-Com: -0.186D-03-0.114D-02-0.448D-03 0.628D-02 0.471D-02-0.352D-01
 Coeff-Com: -0.695D-01 0.231D+00 0.864D+00
 Coeff:      0.198D-05-0.174D-04-0.414D-04-0.226D-04 0.255D-03 0.154D-03
 Coeff:     -0.186D-03-0.114D-02-0.448D-03 0.628D-02 0.471D-02-0.352D-01
 Coeff:     -0.695D-01 0.231D+00 0.864D+00
 Gap=     0.047 Goal=   None    Shift=    0.000
 Gap=     0.031 Goal=   None    Shift=    0.000
 RMSDP=5.33D-09 MaxDP=5.41D-07 DE= 2.73D-12 OVMax= 1.88D-07

 SCF Done:  E(UB3LYP) =  -1136.10889561     A.U. after   21 cycles
            NFock= 21  Conv=0.53D-08     -V/T= 2.0028
 <Sx>= 0.0000 <Sy>= 0.0000 <Sz>= 0.5000 <S**2>= 0.7700 S= 0.5100
 <L.S>= 0.000000000000E+00
 KE= 1.132899664172D+03 PE=-3.281925591117D+03 EE= 7.364659846910D+02
 Annihilation of the first spin contaminant:
 S**2 before annihilation     0.7700,   after     0.7502
 Leave Link  502 at Wed Nov 29 03:16:31 2023, MaxMem=  1879048192 cpu:             171.6 elap:              15.9
 (Enter /home/sekinelabo/g16/l601.exe)
 Copying SCF densities to generalized density rwf, IOpCl= 1 IROHF=0.

 **********************************************************************

            Population analysis using the SCF Density.

 **********************************************************************

 Orbital symmetries:
 Alpha Orbitals:
       Occupied  (A) (A) (A) (A) (A) (A) (A) (A) (A) (A) (A) (A)
                 (A) (A) (A) (A) (A) (A) (A) (A) (A) (A) (A) (A)
                 (A) (A) (A) (A) (A) (A) (A) (A) (A) (A) (A) (A)
                 (A) (A) (A)
       Virtual   (A) (A) (A) (A) (A) (A) (A) (A) (A) (A) (A) (A)
                 (A) (A) (A) (A) (A) (A) (A) (A) (A) (A) (A) (A)
                 (A) (A) (A) (A) (A) (A) (A) (A) (A) (A) (A) (A)
                 (A) (A) (A) (A) (A) (A) (A) (A) (A) (A) (A) (A)
                 (A) (A) (A) (A) (A) (A) (A) (A) (A) (A) (A) (A)
                 (A) (A) (A) (A) (A) (A) (A) (A) (A) (A) (A) (A)
                 (A) (A) (A) (A) (A) (A) (A) (A) (A) (A) (A) (A)
                 (A) (A) (A) (A) (A) (A) (A) (A) (A) (A) (A) (A)
                 (A) (A) (A) (A) (A) (A) (A) (A) (A) (A) (A) (A)
                 (A) (A) (A) (A) (A) (A) (A) (A) (A) (A) (A) (A)
                 (A) (A) (A) (A) (A) (A) (A) (A) (A) (A) (A) (A)
                 (A) (A) (A) (A) (A) (A) (A) (A) (A) (A) (A) (A)
                 (A) (A) (A) (A) (A) (A) (A) (A) (A) (A) (A) (A)
                 (A) (A) (A) (A) (A) (A) (A) (A) (A) (A) (A) (A)
                 (A) (A) (A)
 Beta  Orbitals:
       Occupied  (A) (A) (A) (A) (A) (A) (A) (A) (A) (A) (A) (A)
                 (A) (A) (A) (A) (A) (A) (A) (A) (A) (A) (A) (A)
                 (A) (A) (A) (A) (A) (A) (A) (A) (A) (A) (A) (A)
                 (A) (A)
       Virtual   (A) (A) (A) (A) (A) (A) (A) (A) (A) (A) (A) (A)
                 (A) (A) (A) (A) (A) (A) (A) (A) (A) (A) (A) (A)
                 (A) (A) (A) (A) (A) (A) (A) (A) (A) (A) (A) (A)
                 (A) (A) (A) (A) (A) (A) (A) (A) (A) (A) (A) (A)
                 (A) (A) (A) (A) (A) (A) (A) (A) (A) (A) (A) (A)
                 (A) (A) (A) (A) (A) (A) (A) (A) (A) (A) (A) (A)
                 (A) (A) (A) (A) (A) (A) (A) (A) (A) (A) (A) (A)
                 (A) (A) (A) (A) (A) (A) (A) (A) (A) (A) (A) (A)
                 (A) (A) (A) (A) (A) (A) (A) (A) (A) (A) (A) (A)
                 (A) (A) (A) (A) (A) (A) (A) (A) (A) (A) (A) (A)
                 (A) (A) (A) (A) (A) (A) (A) (A) (A) (A) (A) (A)
                 (A) (A) (A) (A) (A) (A) (A) (A) (A) (A) (A) (A)
                 (A) (A) (A) (A) (A) (A) (A) (A) (A) (A) (A) (A)
                 (A) (A) (A) (A) (A) (A) (A) (A) (A) (A) (A) (A)
                 (A) (A) (A) (A)
 The electronic state is 2-A.
 Alpha  occ. eigenvalues --  -38.45532 -38.45242 -38.45193 -38.43897 -38.43790
 Alpha  occ. eigenvalues --  -38.43331 -38.43224  -2.21340  -2.21139  -2.21072
 Alpha  occ. eigenvalues --   -2.19687  -2.19631  -2.19112  -2.19054  -1.14991
 Alpha  occ. eigenvalues --   -1.14982  -1.14966  -1.14952  -1.14806  -1.14749
 Alpha  occ. eigenvalues --   -1.14701  -1.14671  -1.14630  -1.13399  -1.13342
 Alpha  occ. eigenvalues --   -1.13339  -1.13311  -1.13289  -1.13220  -1.12806
 Alpha  occ. eigenvalues --   -1.12772  -1.12769  -1.12746  -1.12735  -1.12632
 Alpha  occ. eigenvalues --   -0.17538  -0.13881  -0.11559  -0.11508
 Alpha virt. eigenvalues --   -0.06829  -0.06258  -0.04162  -0.03712  -0.02833
 Alpha virt. eigenvalues --   -0.02649  -0.01884  -0.01701  -0.01491  -0.00812
 Alpha virt. eigenvalues --   -0.00629  -0.00051   0.00017   0.00320   0.00428
 Alpha virt. eigenvalues --    0.00630   0.00717   0.01012   0.01065   0.01202
 Alpha virt. eigenvalues --    0.01318   0.01409   0.01503   0.01628   0.01795
 Alpha virt. eigenvalues --    0.01952   0.02014   0.02039   0.02111   0.02220
 Alpha virt. eigenvalues --    0.02299   0.02590   0.02618   0.02766   0.02797
 Alpha virt. eigenvalues --    0.03045   0.03234   0.03333   0.03413   0.03504
 Alpha virt. eigenvalues --    0.03686   0.03792   0.03967   0.03981   0.04372
 Alpha virt. eigenvalues --    0.04563   0.05011   0.05184   0.05339   0.05575
 Alpha virt. eigenvalues --    0.05682   0.06091   0.06681   0.06962   0.07403
 Alpha virt. eigenvalues --    0.07691   0.08016   0.08093   0.08413   0.08544
 Alpha virt. eigenvalues --    0.08662   0.08746   0.09063   0.09463   0.09860
 Alpha virt. eigenvalues --    0.10060   0.10722   0.11589   0.11950   0.12283
 Alpha virt. eigenvalues --    0.12377   0.12786   0.13236   0.13544   0.14202
 Alpha virt. eigenvalues --    0.14860   0.15260   0.15803   0.16302   0.18234
 Alpha virt. eigenvalues --    0.25726   0.27223   0.27969   0.29172   0.30114
 Alpha virt. eigenvalues --    0.30346   0.30913   0.31716   0.32226   0.33171
 Alpha virt. eigenvalues --    0.33696   0.34607   0.34890   0.35912   0.36311
 Alpha virt. eigenvalues --    0.36646   0.36716   0.36928   0.37979   0.39550
 Alpha virt. eigenvalues --    0.40585   0.40987   0.41662   0.42221   0.42792
 Alpha virt. eigenvalues --    0.43278   0.43480   0.43984   0.44163   0.44426
 Alpha virt. eigenvalues --    0.44882   0.45081   0.45383   0.45694   0.45813
 Alpha virt. eigenvalues --    0.46296   0.46564   0.46804   0.47219   0.47837
 Alpha virt. eigenvalues --    0.48474   0.48576   0.49268   0.49947   0.50649
 Alpha virt. eigenvalues --    0.51538   0.52646   0.54481   0.55159   0.55998
 Alpha virt. eigenvalues --    0.56514   0.58421   0.61291   0.67954   0.68355
 Alpha virt. eigenvalues --    0.75087   2.03633   2.07255   2.09966   2.12094
 Alpha virt. eigenvalues --    2.16792   2.17631   2.20703   4.41922   4.42374
 Alpha virt. eigenvalues --    4.43418   4.44182   4.44233   4.44666   4.44966
 Alpha virt. eigenvalues --    4.45316   4.45689   4.45801   4.46315   4.47181
 Alpha virt. eigenvalues --    4.47884   4.48212   4.48684   4.49499   4.50539
 Alpha virt. eigenvalues --    4.50829   4.60349   4.61239   4.69134  96.23302
 Alpha virt. eigenvalues --   96.27552  96.30990  96.33807  96.39307  96.40835
 Alpha virt. eigenvalues --   96.44011
  Beta  occ. eigenvalues --  -38.45421 -38.45240 -38.45124 -38.43876 -38.43792
  Beta  occ. eigenvalues --  -38.43325 -38.43221  -2.21142  -2.21134  -2.20946
  Beta  occ. eigenvalues --   -2.19648  -2.19637  -2.19102  -2.19050  -1.14945
  Beta  occ. eigenvalues --   -1.14841  -1.14829  -1.14819  -1.14803  -1.14736
  Beta  occ. eigenvalues --   -1.14612  -1.14586  -1.14567  -1.13381  -1.13327
  Beta  occ. eigenvalues --   -1.13314  -1.13305  -1.13287  -1.13205  -1.12801
  Beta  occ. eigenvalues --   -1.12765  -1.12761  -1.12743  -1.12717  -1.12632
  Beta  occ. eigenvalues --   -0.16943  -0.13477  -0.11167
  Beta virt. eigenvalues --   -0.08025  -0.06479  -0.05888  -0.03831  -0.03350
  Beta virt. eigenvalues --   -0.02442  -0.02266  -0.01628  -0.01484  -0.01183
  Beta virt. eigenvalues --   -0.00683  -0.00457   0.00159   0.00271   0.00384
  Beta virt. eigenvalues --    0.00455   0.00668   0.00773   0.01158   0.01178
  Beta virt. eigenvalues --    0.01244   0.01383   0.01521   0.01597   0.01667
  Beta virt. eigenvalues --    0.01878   0.02015   0.02056   0.02107   0.02175
  Beta virt. eigenvalues --    0.02299   0.02452   0.02661   0.02734   0.02813
  Beta virt. eigenvalues --    0.02880   0.03142   0.03306   0.03392   0.03446
  Beta virt. eigenvalues --    0.03608   0.03765   0.03811   0.03995   0.04071
  Beta virt. eigenvalues --    0.04487   0.04649   0.05103   0.05249   0.05411
  Beta virt. eigenvalues --    0.05652   0.05788   0.06174   0.06801   0.07149
  Beta virt. eigenvalues --    0.07520   0.07762   0.08046   0.08272   0.08557
  Beta virt. eigenvalues --    0.08680   0.08770   0.08915   0.09336   0.09546
  Beta virt. eigenvalues --    0.09948   0.10130   0.10946   0.11789   0.12198
  Beta virt. eigenvalues --    0.12459   0.12509   0.13169   0.13508   0.13638
  Beta virt. eigenvalues --    0.14277   0.14940   0.15333   0.15900   0.16517
  Beta virt. eigenvalues --    0.18309   0.25961   0.27709   0.28352   0.29631
  Beta virt. eigenvalues --    0.30480   0.30699   0.31224   0.31838   0.32566
  Beta virt. eigenvalues --    0.33491   0.33817   0.34741   0.35170   0.36172
  Beta virt. eigenvalues --    0.36566   0.36806   0.37025   0.37705   0.38360
  Beta virt. eigenvalues --    0.40035   0.40986   0.41136   0.41880   0.42354
  Beta virt. eigenvalues --    0.42994   0.43454   0.43633   0.44053   0.44315
  Beta virt. eigenvalues --    0.44498   0.45102   0.45127   0.45470   0.45730
  Beta virt. eigenvalues --    0.45890   0.46416   0.46542   0.46899   0.47303
  Beta virt. eigenvalues --    0.47861   0.48558   0.48682   0.49447   0.50189
  Beta virt. eigenvalues --    0.50778   0.51639   0.52818   0.54577   0.55393
  Beta virt. eigenvalues --    0.56090   0.56723   0.58622   0.61371   0.67967
  Beta virt. eigenvalues --    0.68349   0.75249   2.03764   2.07408   2.10195
  Beta virt. eigenvalues --    2.12223   2.16902   2.17728   2.20693   4.41997
  Beta virt. eigenvalues --    4.42404   4.43530   4.44237   4.44324   4.44732
  Beta virt. eigenvalues --    4.45008   4.45382   4.45722   4.45819   4.46370
  Beta virt. eigenvalues --    4.47234   4.47915   4.48238   4.48699   4.49504
  Beta virt. eigenvalues --    4.50608   4.50877   4.60366   4.61243   4.69190
  Beta virt. eigenvalues --   96.23346  96.27604  96.31065  96.33851  96.39332
  Beta virt. eigenvalues --   96.40875  96.44019
          Condensed to atoms (all electrons):
               1          2          3          4          5          6
     1  Na  14.310403   0.487011   0.107315  -0.590026  -0.477894  -0.688158
     2  Na   0.487011  10.918342   0.106630  -0.181681  -0.075949  -0.092474
     3  Na   0.107315   0.106630  10.799194   0.047853  -0.207709   0.009047
     4  Na  -0.590026  -0.181681   0.047853  11.115300   0.033024   0.126979
     5  Na  -0.477894  -0.075949  -0.207709   0.033024  13.486688  -0.156939
     6  Na  -0.688158  -0.092474   0.009047   0.126979  -0.156939  10.985152
     7  Na  -1.848253   0.012679  -0.136072  -0.096829  -0.949025   0.483010
               7
     1  Na  -1.848253
     2  Na   0.012679
     3  Na  -0.136072
     4  Na  -0.096829
     5  Na  -0.949025
     6  Na   0.483010
     7  Na  13.559842
          Atomic-Atomic Spin Densities.
               1          2          3          4          5          6
     1  Na  -0.710071   0.052366  -0.143087   0.037914   0.070579   0.333465
     2  Na   0.052366   0.105534   0.010388  -0.030743  -0.019245  -0.001579
     3  Na  -0.143087   0.010388   0.027176  -0.027306   0.046533   0.017475
     4  Na   0.037914  -0.030743  -0.027306   0.426854   0.076565  -0.138457
     5  Na   0.070579  -0.019245   0.046533   0.076565  -0.001029  -0.245991
     6  Na   0.333465  -0.001579   0.017475  -0.138457  -0.245991   0.506409
     7  Na   0.756602  -0.004951  -0.008380  -0.043367  -0.016949  -0.029504
               7
     1  Na   0.756602
     2  Na  -0.004951
     3  Na  -0.008380
     4  Na  -0.043367
     5  Na  -0.016949
     6  Na  -0.029504
     7  Na  -0.739531
 Mulliken charges and spin densities:
               1          2
     1  Na  -0.300398   0.397769
     2  Na  -0.174558   0.111769
     3  Na   0.273742  -0.077201
     4  Na   0.545380   0.301459
     5  Na  -0.652197  -0.089537
     6  Na   0.333382   0.441819
     7  Na  -0.025352  -0.086078
 Sum of Mulliken charges =  -0.00000   1.00000
 Mulliken charges and spin densities with hydrogens summed into heavy atoms:
               1          2
     1  Na  -0.300398   0.397769
     2  Na  -0.174558   0.111769
     3  Na   0.273742  -0.077201
     4  Na   0.545380   0.301459
     5  Na  -0.652197  -0.089537
     6  Na   0.333382   0.441819
     7  Na  -0.025352  -0.086078
 Electronic spatial extent (au):  <R**2>=           4804.6513
 Charge=             -0.0000 electrons
 Dipole moment (field-independent basis, Debye):
    X=             -0.7145    Y=              0.4359    Z=              0.6115  Tot=              1.0365
 Quadrupole moment (field-independent basis, Debye-Ang):
   XX=            -77.9455   YY=            -69.0246   ZZ=            -64.5783
   XY=              4.0820   XZ=              5.5907   YZ=              0.7580
 Traceless Quadrupole moment (field-independent basis, Debye-Ang):
   XX=             -7.4294   YY=              1.4916   ZZ=              5.9378
   XY=              4.0820   XZ=              5.5907   YZ=              0.7580
 Octapole moment (field-independent basis, Debye-Ang**2):
  XXX=             16.2624  YYY=             12.2686  ZZZ=              6.4267  XYY=              5.6992
  XXY=             -7.0411  XXZ=            -24.2384  XZZ=            -22.7700  YZZ=             -0.9373
  YYZ=             17.0146  XYZ=              1.5407
 Hexadecapole moment (field-independent basis, Debye-Ang**3):
 XXXX=          -5955.3465 YYYY=           -914.9688 ZZZZ=           -498.4075 XXXY=             48.1625
 XXXZ=            287.2937 YYYX=             79.0510 YYYZ=             13.5344 ZZZX=             24.6382
 ZZZY=             -2.5958 XXYY=          -1357.1823 XXZZ=          -1219.4324 YYZZ=           -234.2677
 XXYZ=             35.4310 YYXZ=             19.2357 ZZXY=             16.3828
 N-N= 2.764510466452D+02 E-N=-3.281925591305D+03  KE= 1.132899664172D+03
                          Isotropic Fermi Contact Couplings
        Atom                 a.u.       MegaHertz       Gauss      10(-4) cm-1
     1  Na(23)            -0.06660     -78.78486     -28.11240     -26.27980
     2  Na(23)             0.09332     110.40328      39.39464      36.82657
     3  Na(23)            -0.03782     -44.74060     -15.96456     -14.92386
     4  Na(23)             0.30368     359.26504     128.19470     119.83792
     5  Na(23)            -0.00045      -0.52656      -0.18789      -0.17564
     6  Na(23)             0.47262     559.12763     199.51064     186.50490
     7  Na(23)             0.02257      26.70502       9.52902       8.90784
 --------------------------------------------------------
       Center         ----  Spin Dipole Couplings  ----
                      3XX-RR        3YY-RR        3ZZ-RR
 --------------------------------------------------------
     1   Atom       -0.031154      0.054702     -0.023548
     2   Atom       -0.000628      0.001172     -0.000544
     3   Atom        0.009314     -0.002438     -0.006876
     4   Atom        0.000986     -0.002486      0.001500
     5   Atom       -0.015100      0.021354     -0.006254
     6   Atom        0.002219     -0.004915      0.002696
     7   Atom        0.001672     -0.000534     -0.001138
 --------------------------------------------------------
                        XY            XZ            YZ
 --------------------------------------------------------
     1   Atom        0.021924     -0.003714     -0.014700
     2   Atom        0.000875     -0.000986      0.000760
     3   Atom       -0.015312      0.010835     -0.005292
     4   Atom       -0.002209      0.003794      0.007083
     5   Atom       -0.008370     -0.000875     -0.001086
     6   Atom       -0.002681      0.002294     -0.002412
     7   Atom        0.002006      0.000161      0.000161
 --------------------------------------------------------


 ---------------------------------------------------------------------------------
              Anisotropic Spin Dipole Couplings in Principal Axis System
 ---------------------------------------------------------------------------------

       Atom             a.u.   MegaHertz   Gauss  10(-4) cm-1        Axes

              Baa    -0.0364    -5.145    -1.836    -1.716  0.9727 -0.2314  0.0165
     1 Na(23) Bbb    -0.0262    -3.702    -1.321    -1.235  0.0243  0.1723  0.9847
              Bcc     0.0626     8.846     3.156     2.951  0.2307  0.9575 -0.1732
 
              Baa    -0.0020    -0.282    -0.101    -0.094  0.6837 -0.3434  0.6439
     2 Na(23) Bbb     0.0004     0.056     0.020     0.019 -0.6745  0.0394  0.7372
              Bcc     0.0016     0.226     0.080     0.075  0.2785  0.9384  0.2046
 
              Baa    -0.0140    -1.981    -0.707    -0.661  0.6248  0.5939 -0.5069
     3 Na(23) Bbb    -0.0104    -1.464    -0.522    -0.488  0.0490  0.6181  0.7845
              Bcc     0.0244     3.445     1.229     1.149  0.7793 -0.5150  0.3571
 
              Baa    -0.0095    -1.335    -0.476    -0.445  0.3670  0.7179 -0.5915
     4 Na(23) Bbb     0.0021     0.290     0.103     0.097  0.8802 -0.4737 -0.0289
              Bcc     0.0074     1.045     0.373     0.349  0.3010  0.5100  0.8058
 
              Baa    -0.0170    -2.406    -0.859    -0.803  0.9715  0.2146  0.1004
     5 Na(23) Bbb    -0.0062    -0.871    -0.311    -0.291 -0.1045  0.0075  0.9945
              Bcc     0.0232     3.278     1.170     1.093 -0.2127  0.9767 -0.0297
 
              Baa    -0.0061    -0.864    -0.308    -0.288  0.2515  0.9482  0.1939
     6 Na(23) Bbb     0.0002     0.024     0.009     0.008  0.7165 -0.0477 -0.6960
              Bcc     0.0060     0.840     0.300     0.280  0.6507 -0.3140  0.6914
 
              Baa    -0.0017    -0.244    -0.087    -0.081 -0.5024  0.8590 -0.0981
     7 Na(23) Bbb    -0.0011    -0.162    -0.058    -0.054 -0.0970  0.0567  0.9937
              Bcc     0.0029     0.405     0.145     0.135  0.8592  0.5088  0.0548
 

 ---------------------------------------------------------------------------------

 No NMR shielding tensors so no spin-rotation constants.
 Leave Link  601 at Wed Nov 29 03:16:31 2023, MaxMem=  1879048192 cpu:               2.3 elap:               0.2
 (Enter /home/sekinelabo/g16/l701.exe)
 ... and contract with generalized density number  0.
 Compute integral first derivatives.
 Leave Link  701 at Wed Nov 29 03:16:31 2023, MaxMem=  1879048192 cpu:               1.5 elap:               0.1
 (Enter /home/sekinelabo/g16/l702.exe)
 L702 exits ... SP integral derivatives will be done elsewhere.
 Leave Link  702 at Wed Nov 29 03:16:31 2023, MaxMem=  1879048192 cpu:               0.4 elap:               0.0
 (Enter /home/sekinelabo/g16/l703.exe)
 Integral derivatives from FoFJK, PRISM(SPDF).
 Compute integral first derivatives, UseDBF=F ICtDFT=           0.
 Calling FoFJK, ICntrl=      2127 FMM=F ISym2X=0 I1Cent= 0 IOpClX= 1 NMat=1 NMatS=1 NMatT=0.
 FoFJK:  IHMeth= 1 ICntrl=    2127 DoSepK=F KAlg= 0 I1Cent=           0 FoldK=F
 IRaf=         0 NMat=       1 IRICut=       1 DoRegI=T DoRafI=F ISym2E= 0 IDoP0=0 IntGTp=1.
 FoFCou: FMM=F IPFlag=           0 FMFlag=      100000 FMFlg1=         800
         NFxFlg=           0 DoJE=F BraDBF=F KetDBF=F FulRan=T
         wScrn=  0.000000 ICntrl=      2127 IOpCl=  1 I1Cent=           0 NGrid=           0
         NMat0=    1 NMatS0=      1 NMatT0=    0 NMatD0=    1 NMtDS0=    0 NMtDT0=    0
 Symmetry not used in FoFCou.
 Leave Link  703 at Wed Nov 29 03:16:33 2023, MaxMem=  1879048192 cpu:              28.3 elap:               1.9
 (Enter /home/sekinelabo/g16/l716.exe)
 Dipole        =-2.81107060D-01 1.71497510D-01 2.40568067D-01
 ***** Axes restored to original set *****
 -------------------------------------------------------------------
 Center     Atomic                   Forces (Hartrees/Bohr)
 Number     Number              X              Y              Z
 -------------------------------------------------------------------
      1       11           0.000961894    0.005733853    0.002574151
      2       11           0.000269146   -0.000016417    0.000292900
      3       11          -0.001229254    0.000281309    0.000073350
      4       11           0.001018324   -0.005792000   -0.001970320
      5       11           0.000963270   -0.000329890    0.000315227
      6       11          -0.001091723    0.000073314   -0.001916982
      7       11          -0.000891658    0.000049830    0.000631674
 -------------------------------------------------------------------
 Cartesian Forces:  Max     0.005792000 RMS     0.002045363
 Z-matrix is all fixed cartesians, so copy forces.
 Force constants in Cartesian coordinates: 
                1             2             3             4             5 
      1  0.658038D-01
      2 -0.149700D-01  0.951454D-01
      3 -0.211786D-02 -0.284885D-02  0.516595D-01
      4 -0.134061D-02  0.102974D-02 -0.393004D-03  0.256175D-01
      5 -0.351886D-02  0.270653D-02 -0.102826D-02 -0.874030D-02  0.805138D-02
      6  0.306030D-02 -0.239802D-02  0.854190D-03 -0.174742D-02 -0.281975D-02
      7 -0.135399D-01  0.862109D-02 -0.100310D-02 -0.244679D-01  0.121507D-01
      8 -0.244672D-02 -0.227695D-01  0.159184D-01  0.772828D-02 -0.108526D-01
      9 -0.378430D-03  0.376444D-02 -0.141937D-01  0.196034D-02  0.373846D-02
     10 -0.176507D-01  0.561345D-02  0.491320D-02  0.182633D-03  0.899530D-04
     11  0.439076D-02 -0.462462D-01 -0.133623D-01 -0.367274D-04  0.525708D-04
     12  0.441724D-02 -0.105582D-02 -0.121085D-01  0.154616D-03  0.530508D-04
     13 -0.157645D-01  0.222537D-02  0.728416D-02  0.129675D-04  0.287662D-04
     14  0.606126D-02 -0.273044D-01 -0.432293D-02  0.497523D-05  0.110367D-04
     15 -0.644464D-02  0.259015D-02 -0.150289D-01  0.173421D-04  0.384705D-04
     16 -0.188423D-01 -0.231727D-02 -0.106551D-01 -0.464075D-05 -0.102947D-04
     17  0.934741D-02 -0.843911D-02  0.582073D-02  0.140301D-04  0.311235D-04
     18 -0.817800D-03  0.303747D-03 -0.145559D-01  0.812752D-05  0.180295D-04
     19  0.133431D-02 -0.202384D-03  0.197167D-02  0.000000D+00  0.000000D+00
     20  0.113614D-02  0.690733D-02 -0.176810D-03  0.000000D+00  0.000000D+00
     21  0.228120D-02 -0.355633D-03  0.337338D-02  0.000000D+00  0.000000D+00
                6             7             8             9            10 
      6  0.102642D-01
      7 -0.598263D-02  0.493297D-01
      8  0.701323D-02 -0.149000D-01  0.345391D-01
      9 -0.154273D-01 -0.343587D-02 -0.102013D-01  0.455113D-01
     10  0.464477D-02 -0.102330D-01  0.960118D-02  0.291569D-02  0.280143D-01
     11 -0.185249D-02 -0.389529D-03 -0.568193D-02  0.380320D-02 -0.374917D-02
     12  0.423251D-02  0.559296D-02 -0.107364D-01 -0.188606D-01 -0.112779D-01
     13  0.389109D-04  0.317952D-03 -0.273387D-03  0.667688D-04 -0.121233D-02
     14  0.149289D-04 -0.282229D-02  0.435658D-02  0.115694D-02 -0.527395D-02
     15  0.520375D-04  0.119694D-02 -0.153501D-02 -0.207236D-03 -0.360869D-03
     16 -0.139252D-04 -0.153498D-02  0.241493D-03 -0.129995D-02  0.795453D-03
     17  0.420994D-04 -0.252580D-02  0.459944D-03 -0.208234D-02 -0.617294D-02
     18  0.243878D-04  0.341220D-02 -0.543149D-03  0.288402D-02 -0.101246D-02
     19  0.000000D+00  0.128205D-03  0.491884D-04  0.171455D-03  0.103700D-03
     20  0.000000D+00 -0.134175D-03 -0.514790D-04 -0.179440D-03 -0.108529D-03
     21  0.000000D+00  0.219517D-03  0.842218D-04  0.293571D-03  0.177559D-03
               11            12            13            14            15 
     11  0.518805D-01
     12  0.113593D-01  0.269674D-01
     13 -0.108903D-03  0.595273D-03  0.561407D-01
     14 -0.646469D-03  0.347461D-02  0.345264D-02  0.428447D-01
     15  0.128522D-04 -0.547774D-04  0.702370D-03  0.365096D-02  0.527433D-01
     16 -0.751134D-04  0.360476D-03 -0.113143D-01 -0.538125D-03  0.930271D-03
     17  0.608799D-03 -0.293010D-02 -0.251966D-02 -0.309777D-02 -0.434469D-02
     18  0.929892D-04 -0.445413D-03 -0.719940D-02 -0.244611D-02 -0.169689D-01
     19 -0.313228D-04  0.157322D-03 -0.281805D-01 -0.884519D-03  0.395859D-02
     20  0.327815D-04 -0.164648D-03 -0.280483D-02 -0.161636D-01 -0.412729D-03
     21 -0.536318D-04  0.269371D-03 -0.148809D-02 -0.152840D-02 -0.205355D-01
               16            17            18            19            20 
     16  0.280269D-01
     17  0.144193D-02  0.951722D-02
     18  0.576327D-02  0.278553D-02  0.293249D-01
     19  0.287387D-02  0.415022D-03 -0.153929D-03  0.237404D-01
     20  0.125738D-02  0.919798D-03 -0.211043D-03  0.654015D-03  0.835521D-02
     21  0.491492D-02  0.708771D-03 -0.263055D-03 -0.610511D-02  0.114467D-02
               21 
     21  0.168622D-01
 Leave Link  716 at Wed Nov 29 03:16:33 2023, MaxMem=  1879048192 cpu:               0.4 elap:               0.0
 (Enter /home/sekinelabo/g16/l103.exe)

 GradGradGradGradGradGradGradGradGradGradGradGradGradGradGradGradGradGrad
 Berny optimization.
 Search for a local minimum.
 Step number   1 out of a maximum of    2
 All quantities printed in internal units (Hartrees-Bohrs-Radians)
 Second derivative matrix not updated -- first step.
 ITU=  0
     Eigenvalues ---    0.00344   0.00504   0.00792   0.01505   0.02305
     Eigenvalues ---    0.02631   0.03080   0.04895   0.05605   0.06763
     Eigenvalues ---    0.07055   0.07668   0.08706   0.09674   0.14271
 Angle between quadratic step and forces=  43.93 degrees.
 Linear search not attempted -- first point.
 B after Tr=     0.000000   -0.000000   -0.000000
         Rot=    1.000000   -0.000000    0.000000    0.000000 Ang=   0.00 deg.
 Variable       Old X    -DE/DX   Delta X   Delta X   Delta X     New X
                                 (Linear)    (Quad)   (Total)
    X1       27.70036   0.00096   0.00000   0.02162   0.02162  27.72198
    Y1       30.76909   0.00573   0.00000   0.02860   0.02860  30.79769
    Z1       29.12881   0.00257   0.00000   0.00655   0.00655  29.13535
    X2       18.12801   0.00027   0.00000   0.01742   0.01742  18.14543
    Y2       29.31343  -0.00002   0.00000   0.03048   0.03048  29.34391
    Z2       33.39505   0.00029   0.00000   0.03197   0.03197  33.42702
    X3       23.65049  -0.00123   0.00000  -0.01257  -0.01257  23.63792
    Y3       27.05861   0.00028   0.00000  -0.01779  -0.01779  27.04082
    Z3       33.22157   0.00007   0.00000  -0.00926  -0.00926  33.21231
    X4       27.66805   0.00102   0.00000   0.01522   0.01522  27.68327
    Y4       25.37638  -0.00579   0.00000  -0.07395  -0.07395  25.30243
    Z4       28.07642  -0.00197   0.00000  -0.05174  -0.05174  28.02468
    X5       33.48406   0.00096   0.00000   0.00121   0.00121  33.48527
    Y5       29.71481  -0.00033   0.00000   0.01181   0.01181  29.72662
    Z5       25.10652   0.00032   0.00000   0.01733   0.01733  25.12386
    X6       33.66018  -0.00109   0.00000  -0.01805  -0.01805  33.64213
    Y6       31.06181   0.00007   0.00000   0.02408   0.02408  31.08588
    Z6       32.02651  -0.00192   0.00000  -0.04661  -0.04661  31.97990
    X7       38.71369  -0.00089   0.00000  -0.02485  -0.02485  38.68883
    Y7       29.71065   0.00005   0.00000  -0.00323  -0.00323  29.70742
    Z7       22.04970   0.00063   0.00000   0.05176   0.05176  22.10146
         Item               Value     Threshold  Converged?
 Maximum Force            0.005792     0.000450     NO 
 RMS     Force            0.002045     0.000300     NO 
 Maximum Displacement     0.073946     0.001800     NO 
 RMS     Displacement     0.030352     0.001200     NO 
 Predicted change in Energy=-4.694680D-04
 GradGradGradGradGradGradGradGradGradGradGradGradGradGradGradGradGradGrad

 Leave Link  103 at Wed Nov 29 03:16:33 2023, MaxMem=  1879048192 cpu:               0.2 elap:               0.0
 (Enter /home/sekinelabo/g16/l9999.exe)
 1\1\GINC-SEKINELABO-XA7R-R37\Force\UB3LYP\6-311+G(d)\Na7(2)\SEKINELABO
 \29-Nov-2023\0\\#P B3LYP/6-311+g(d) force\\DPGEN\\0,2\Na,14.6584,16.28
 23,15.4143\Na,9.59293,15.512,17.6719\Na,12.5153,14.3188,17.5801\Na,14.
 6413,13.4286,14.8574\Na,17.719,15.7244,13.2858\Na,17.8122,16.4372,16.9
 477\Na,20.4864,15.7222,11.6682\\Version=ES64L-G16RevB.01\State=2-A\HF=
 -1136.1088956\S2=0.770019\S2-1=0.\S2A=0.750153\RMSD=5.331e-09\RMSF=2.0
 45e-03\Dipole=-0.1060548,-0.1370151,0.3691677\Quadrupole=0.7631762,2.6
 25006,-3.3881822,-2.9279966,5.8619418,0.0856627\PG=C01 [X(Na7)]\\@


 Everywhere is walking distance if you have the time.
                                    -- Steven Wright
 Job cpu time:       0 days  0 hours  3 minutes 35.4 seconds.
 Elapsed time:       0 days  0 hours  0 minutes 18.9 seconds.
 File lengths (MBytes):  RWF=     32 Int=      0 D2E=      0 Chk=      4 Scr=      1
 Normal termination of Gaussian 16 at Wed Nov 29 03:16:33 2023.
