ITEM: TIMESTEP
3840
ITEM: NUMBER OF ATOMS
7
ITEM: BOX BOUNDS xy xz yz ff ff ff
0.0000000000000000e+00 2.6872484515000000e+01 0.0000000000000000e+00
0.0000000000000000e+00 2.6872484515000000e+01 0.0000000000000000e+00
0.0000000000000000e+00 2.6872484515000000e+01 0.0000000000000000e+00
ITEM: ATOMS id type x y z fx fy fz
7 1 14.6903 11.7487 12.4008 -0.0300338 -0.0391031 0.0279085
1 1 11.988 14.5491 11.9813 -0.190554 -0.225068 0.0775402
3 1 13.3358 10.4654 15.8057 -0.121811 0.0435997 -0.0954183
6 1 10.1049 12.1299 14.0458 0.221087 -0.0305985 0.0649345
4 1 13.7464 13.642 15.4149 -0.0582609 0.00194062 0.034566
5 1 13.8286 16.6517 11.2611 0.170664 0.253832 -0.102294
2 1 16.3597 14.8669 13.1441 0.00890971 -0.0046029 -0.00723663
