 Set GAUSS_MDEF to "14GB".
 Entering Gaussian System, Link 0=g16
 Initial command:
 /home/sekinelabo/g16/l1.exe "/home/sekinelabo/g16temp/Gau-600709.inp" -scrdir="/home/sekinelabo/g16temp/"
 Entering Link 1 = /home/sekinelabo/g16/l1.exe PID=    600711.
  
 Copyright (c) 1988-2017, Gaussian, Inc.  All Rights Reserved.
  
 This is part of the Gaussian(R) 16 program.  It is based on
 the Gaussian(R) 09 system (copyright 2009, Gaussian, Inc.),
 the Gaussian(R) 03 system (copyright 2003, Gaussian, Inc.),
 the Gaussian(R) 98 system (copyright 1998, Gaussian, Inc.),
 the Gaussian(R) 94 system (copyright 1995, Gaussian, Inc.),
 the Gaussian 92(TM) system (copyright 1992, Gaussian, Inc.),
 the Gaussian 90(TM) system (copyright 1990, Gaussian, Inc.),
 the Gaussian 88(TM) system (copyright 1988, Gaussian, Inc.),
 the Gaussian 86(TM) system (copyright 1986, Carnegie Mellon
 University), and the Gaussian 82(TM) system (copyright 1983,
 Carnegie Mellon University). Gaussian is a federally registered
 trademark of Gaussian, Inc.
  
 This software contains proprietary and confidential information,
 including trade secrets, belonging to Gaussian, Inc.
  
 This software is provided under written license and may be
 used, copied, transmitted, or stored only in accord with that
 written license.
  
 The following legend is applicable only to US Government
 contracts under FAR:
  
                    RESTRICTED RIGHTS LEGEND
  
 Use, reproduction and disclosure by the US Government is
 subject to restrictions as set forth in subparagraphs (a)
 and (c) of the Commercial Computer Software - Restricted
 Rights clause in FAR 52.227-19.
  
 Gaussian, Inc.
 340 Quinnipiac St., Bldg. 40, Wallingford CT 06492
  
  
 ---------------------------------------------------------------
 Warning -- This program may not be used in any manner that
 competes with the business of Gaussian, Inc. or will provide
 assistance to any competitor of Gaussian, Inc.  The licensee
 of this program is prohibited from giving any competitor of
 Gaussian, Inc. access to this program.  By using this program,
 the user acknowledges that Gaussian, Inc. is engaged in the
 business of creating and licensing software in the field of
 computational chemistry and represents and warrants to the
 licensee that it is not a competitor of Gaussian, Inc. and that
 it will not use this program in any manner prohibited above.
 ---------------------------------------------------------------
  

 Cite this work as:
 Gaussian 16, Revision B.01,
 M. J. Frisch, G. W. Trucks, H. B. Schlegel, G. E. Scuseria, 
 M. A. Robb, J. R. Cheeseman, G. Scalmani, V. Barone, 
 G. A. Petersson, H. Nakatsuji, X. Li, M. Caricato, A. V. Marenich, 
 J. Bloino, B. G. Janesko, R. Gomperts, B. Mennucci, H. P. Hratchian, 
 J. V. Ortiz, A. F. Izmaylov, J. L. Sonnenberg, D. Williams-Young, 
 F. Ding, F. Lipparini, F. Egidi, J. Goings, B. Peng, A. Petrone, 
 T. Henderson, D. Ranasinghe, V. G. Zakrzewski, J. Gao, N. Rega, 
 G. Zheng, W. Liang, M. Hada, M. Ehara, K. Toyota, R. Fukuda, 
 J. Hasegawa, M. Ishida, T. Nakajima, Y. Honda, O. Kitao, H. Nakai, 
 T. Vreven, K. Throssell, J. A. Montgomery, Jr., J. E. Peralta, 
 F. Ogliaro, M. J. Bearpark, J. J. Heyd, E. N. Brothers, K. N. Kudin, 
 V. N. Staroverov, T. A. Keith, R. Kobayashi, J. Normand, 
 K. Raghavachari, A. P. Rendell, J. C. Burant, S. S. Iyengar, 
 J. Tomasi, M. Cossi, J. M. Millam, M. Klene, C. Adamo, R. Cammi, 
 J. W. Ochterski, R. L. Martin, K. Morokuma, O. Farkas, 
 J. B. Foresman, and D. J. Fox, Gaussian, Inc., Wallingford CT, 2016.
 
 ******************************************
 Gaussian 16:  ES64L-G16RevB.01 20-Dec-2017
                 3-Dec-2023 
 ******************************************
 %nproc=15
 Will use up to   15 processors via shared memory.
 -------------------------
 #P B3LYP/6-311+g(d) force
 -------------------------
 1/10=7,30=1,38=1/1,3;
 2/12=2,17=6,18=5,40=1/2;
 3/5=4,6=6,7=11,11=2,25=1,30=1,71=1,74=-5/1,2,3;
 4//1;
 5/5=2,38=5/2;
 6/7=2,8=2,9=2,10=2,28=1/1;
 7/29=1/1,2,3,16;
 1/10=7,30=1/3;
 99//99;
 Leave Link    1 at Sun Dec  3 17:34:35 2023, MaxMem=           0 cpu:               0.3 elap:               0.0
 (Enter /home/sekinelabo/g16/l101.exe)
 -----
 DPGEN
 -----
 Symbolic Z-matrix:
 Charge =  0 Multiplicity = 2
 Na                    14.229    13.3114   14.57 
 Na                    10.5088   12.8568   14.8732 
 Na                    12.5629   14.3102   12.0967 
 Na                    9.70857   12.6208   11.2197 
 Na                    12.1274   11.0173   12.8495 
 Na                    12.5484   11.9258   9.31559 
 Na                    15.0969   10.7398   11.8573 
 
 ITRead=  0  0  0  0  0  0  0
 MicOpt= -1 -1 -1 -1 -1 -1 -1
 NAtoms=      7 NQM=        7 NQMF=       0 NMMI=      0 NMMIF=      0
                NMic=       0 NMicF=      0.
                    Isotopes and Nuclear Properties:
 (Nuclear quadrupole moments (NQMom) in fm**2, nuclear magnetic moments (NMagM)
  in nuclear magnetons)

  Atom         1           2           3           4           5           6           7
 IAtWgt=          23          23          23          23          23          23          23
 AtmWgt=  22.9897697  22.9897697  22.9897697  22.9897697  22.9897697  22.9897697  22.9897697
 NucSpn=           3           3           3           3           3           3           3
 AtZEff=  -0.0000000  -0.0000000  -0.0000000  -0.0000000  -0.0000000  -0.0000000  -0.0000000
 NQMom=   10.4000000  10.4000000  10.4000000  10.4000000  10.4000000  10.4000000  10.4000000
 NMagM=    2.2175200   2.2175200   2.2175200   2.2175200   2.2175200   2.2175200   2.2175200
 AtZNuc=  11.0000000  11.0000000  11.0000000  11.0000000  11.0000000  11.0000000  11.0000000
 Leave Link  101 at Sun Dec  3 17:34:35 2023, MaxMem=  1879048192 cpu:               2.5 elap:               0.2
 (Enter /home/sekinelabo/g16/l103.exe)

 GradGradGradGradGradGradGradGradGradGradGradGradGradGradGradGradGradGrad
 Berny optimization.
 Initialization pass.
 Trust Radius=3.00D-01 FncErr=1.00D-07 GrdErr=1.00D-07 EigMax=2.50D+02 EigMin=1.00D-04
 Number of steps in this run=      2 maximum allowed number of steps=      2.
 GradGradGradGradGradGradGradGradGradGradGradGradGradGradGradGradGradGrad

 Leave Link  103 at Sun Dec  3 17:34:35 2023, MaxMem=  1879048192 cpu:               0.2 elap:               0.0
 (Enter /home/sekinelabo/g16/l202.exe)
                          Input orientation:                          
 ---------------------------------------------------------------------
 Center     Atomic      Atomic             Coordinates (Angstroms)
 Number     Number       Type             X           Y           Z
 ---------------------------------------------------------------------
      1         11           0       14.229000   13.311400   14.570000
      2         11           0       10.508800   12.856800   14.873200
      3         11           0       12.562900   14.310200   12.096700
      4         11           0        9.708570   12.620800   11.219700
      5         11           0       12.127400   11.017300   12.849500
      6         11           0       12.548400   11.925800    9.315590
      7         11           0       15.096900   10.739800   11.857300
 ---------------------------------------------------------------------
                    Distance matrix (angstroms):
                    1          2          3          4          5
     1  Na   0.000000
     2  Na   3.760117   0.000000
     3  Na   3.144949   3.747086   0.000000
     4  Na   5.668838   3.747549   3.430802   0.000000
     5  Na   3.555241   3.177890   3.405812   3.328393   0.000000
     6  Na   5.687981   5.992809   3.663352   3.489025   3.673028
     7  Na   3.837332   5.884556   4.384772   5.742717   3.143151
                    6          7
     6  Na   0.000000
     7  Na   3.789688   0.000000
 Stoichiometry    Na7(2)
 Framework group  C1[X(Na7)]
 Deg. of freedom    15
 Full point group                 C1      NOp   1
 Largest Abelian subgroup         C1      NOp   1
 Largest concise Abelian subgroup C1      NOp   1
                         Standard orientation:                         
 ---------------------------------------------------------------------
 Center     Atomic      Atomic             Coordinates (Angstroms)
 Number     Number       Type             X           Y           Z
 ---------------------------------------------------------------------
      1         11           0        1.350093    2.555341    0.746685
      2         11           0        3.033258   -0.486806   -0.685368
      3         11           0        0.340947   -0.189377    1.903773
      4         11           0        0.240866   -2.929835   -0.157846
      5         11           0        0.014648    0.119647   -1.472259
      6         11           0       -2.802362   -1.316091    0.397031
      7         11           0       -2.177450    2.247120   -0.732016
 ---------------------------------------------------------------------
 Rotational constants (GHZ):           0.7396610           0.7016535           0.4781473
 Leave Link  202 at Sun Dec  3 17:34:35 2023, MaxMem=  1879048192 cpu:               0.0 elap:               0.0
 (Enter /home/sekinelabo/g16/l301.exe)
 Standard basis: 6-311+G(d) (5D, 7F)
 Ernie: Thresh=  0.10000D-02 Tol=  0.10000D-05 Strict=F.
 There are   217 symmetry adapted cartesian basis functions of A   symmetry.
 There are   210 symmetry adapted basis functions of A   symmetry.
   210 basis functions,   350 primitive gaussians,   217 cartesian basis functions
    39 alpha electrons       38 beta electrons
       nuclear repulsion energy       343.5104105697 Hartrees.
 IExCor=  402 DFT=T Ex+Corr=B3LYP ExCW=0 ScaHFX=  0.200000
 ScaDFX=  0.800000  0.720000  1.000000  0.810000 ScalE2=  1.000000  1.000000
 IRadAn=      5 IRanWt=     -1 IRanGd=            0 ICorTp=0 IEmpDi=  4
 NAtoms=    7 NActive=    7 NUniq=    7 SFac= 1.00D+00 NAtFMM=   60 NAOKFM=F Big=F
 Integral buffers will be    131072 words long.
 Raffenetti 2 integral format.
 Two-electron integral symmetry is turned on.
 Leave Link  301 at Sun Dec  3 17:34:35 2023, MaxMem=  1879048192 cpu:               0.5 elap:               0.0
 (Enter /home/sekinelabo/g16/l302.exe)
 NPDir=0 NMtPBC=     1 NCelOv=     1 NCel=       1 NClECP=     1 NCelD=      1
         NCelK=      1 NCelE2=     1 NClLst=     1 CellRange=     0.0.
 One-electron integrals computed using PRISM.
 One-electron integral symmetry used in STVInt
 NBasis=   210 RedAO= T EigKep=  4.94D-06  NBF=   210
 NBsUse=   210 1.00D-06 EigRej= -1.00D+00 NBFU=   210
 Precomputing XC quadrature grid using
 IXCGrd= 4 IRadAn=           5 IRanWt=          -1 IRanGd=           0 AccXCQ= 0.00D+00.
 Generated NRdTot=       0 NPtTot=           0 NUsed=           0 NTot=          32
 NSgBfM=   211   211   211   211   211 MxSgAt=     7 MxSgA2=     7.
 Leave Link  302 at Sun Dec  3 17:34:35 2023, MaxMem=  1879048192 cpu:               2.0 elap:               0.1
 (Enter /home/sekinelabo/g16/l303.exe)
 DipDrv:  MaxL=1.
 Leave Link  303 at Sun Dec  3 17:34:35 2023, MaxMem=  1879048192 cpu:               0.5 elap:               0.0
 (Enter /home/sekinelabo/g16/l401.exe)
 ExpMin= 7.60D-03 ExpMax= 3.62D+04 ExpMxC= 1.21D+03 IAcc=3 IRadAn=         5 AccDes= 0.00D+00
 Harris functional with IExCor=  402 and IRadAn=       5 diagonalized for initial guess.
 HarFok:  IExCor=  402 AccDes= 0.00D+00 IRadAn=         5 IDoV= 1 UseB2=F ITyADJ=14
 ICtDFT=  3500011 ScaDFX=  1.000000  1.000000  1.000000  1.000000
 FoFCou: FMM=F IPFlag=           0 FMFlag=      100000 FMFlg1=           0
         NFxFlg=           0 DoJE=T BraDBF=F KetDBF=T FulRan=T
         wScrn=  0.000000 ICntrl=       500 IOpCl=  0 I1Cent=   200000004 NGrid=           0
         NMat0=    1 NMatS0=      1 NMatT0=    0 NMatD0=    1 NMtDS0=    0 NMtDT0=    0
 Petite list used in FoFCou.
 Harris En= -1135.90680759788    
 JPrj=0 DoOrth=F DoCkMO=F.
 Initial guess <Sx>= 0.0000 <Sy>= 0.0000 <Sz>= 0.5000 <S**2>= 0.7500 S= 0.5000
 Leave Link  401 at Sun Dec  3 17:34:35 2023, MaxMem=  1879048192 cpu:               4.4 elap:               0.3
 (Enter /home/sekinelabo/g16/l502.exe)
 Keep R1 and R2 ints in memory in canonical form, NReq=506573335.
 FoFCou: FMM=F IPFlag=           0 FMFlag=           0 FMFlg1=           0
         NFxFlg=           0 DoJE=F BraDBF=F KetDBF=F FulRan=T
         wScrn=  0.000000 ICntrl=       600 IOpCl=  0 I1Cent=           0 NGrid=           0
         NMat0=    1 NMatS0=  22155 NMatT0=    0 NMatD0=    1 NMtDS0=    0 NMtDT0=    0
 Symmetry not used in FoFCou.
 Two-electron integral symmetry not used.
 UHF open shell SCF:
 Using DIIS extrapolation, IDIIS=  1040.
 NGot=  1879048192 LenX=  1388082565 LenY=  1388035035
 Requested convergence on RMS density matrix=1.00D-08 within 128 cycles.
 Requested convergence on MAX density matrix=1.00D-06.
 Requested convergence on             energy=1.00D-06.
 No special actions if energy rises.

 Cycle   1  Pass 1  IDiag  1:
 E= -1136.09684682934    
 DIIS: error= 1.25D-02 at cycle   1 NSaved=   1.
 NSaved= 1 IEnMin= 1 EnMin= -1136.09684682934     IErMin= 1 ErrMin= 1.25D-02
 ErrMax= 1.25D-02  0.00D+00 EMaxC= 1.00D-01 BMatC= 1.95D-01 BMatP= 1.95D-01
 IDIUse=3 WtCom= 8.75D-01 WtEn= 1.25D-01
 Coeff-Com:  0.100D+01
 Coeff-En:   0.100D+01
 Coeff:      0.100D+01
 Gap=     0.046 Goal=   None    Shift=    0.000
 Gap=     0.051 Goal=   None    Shift=    0.000
 GapD=    0.046 DampG=0.250 DampE=0.500 DampFc=0.2500 IDamp=-1.
 Damping current iteration by 2.50D-01
 RMSDP=2.24D-02 MaxDP=1.35D+00              OVMax= 2.51D-01

 Cycle   2  Pass 1  IDiag  1:
 E= -1136.11078991606     Delta-E=       -0.013943086713 Rises=F Damp=T
 DIIS: error= 8.09D-03 at cycle   2 NSaved=   2.
 NSaved= 2 IEnMin= 2 EnMin= -1136.11078991606     IErMin= 2 ErrMin= 8.09D-03
 ErrMax= 8.09D-03  0.00D+00 EMaxC= 1.00D-01 BMatC= 7.39D-02 BMatP= 1.95D-01
 IDIUse=3 WtCom= 9.19D-01 WtEn= 8.09D-02
 Coeff-Com: -0.126D+01 0.226D+01
 Coeff-En:   0.000D+00 0.100D+01
 Coeff:     -0.116D+01 0.216D+01
 Gap=     0.058 Goal=   None    Shift=    0.000
 Gap=     0.052 Goal=   None    Shift=    0.000
 RMSDP=1.14D-02 MaxDP=7.79D-01 DE=-1.39D-02 OVMax= 1.64D-01

 Cycle   3  Pass 1  IDiag  1:
 E= -1136.13452296176     Delta-E=       -0.023733045707 Rises=F Damp=F
 DIIS: error= 3.20D-03 at cycle   3 NSaved=   3.
 NSaved= 3 IEnMin= 3 EnMin= -1136.13452296176     IErMin= 3 ErrMin= 3.20D-03
 ErrMax= 3.20D-03  0.00D+00 EMaxC= 1.00D-01 BMatC= 2.61D-03 BMatP= 7.39D-02
 IDIUse=3 WtCom= 9.68D-01 WtEn= 3.20D-02
 Coeff-Com: -0.191D+00 0.344D+00 0.846D+00
 Coeff-En:   0.000D+00 0.000D+00 0.100D+01
 Coeff:     -0.185D+00 0.333D+00 0.851D+00
 Gap=     0.054 Goal=   None    Shift=    0.000
 Gap=     0.051 Goal=   None    Shift=    0.000
 RMSDP=5.66D-03 MaxDP=5.73D-01 DE=-2.37D-02 OVMax= 6.82D-02

 Cycle   4  Pass 1  IDiag  1:
 E= -1136.13431440749     Delta-E=        0.000208554276 Rises=F Damp=F
 DIIS: error= 2.95D-03 at cycle   4 NSaved=   4.
 NSaved= 4 IEnMin= 3 EnMin= -1136.13452296176     IErMin= 4 ErrMin= 2.95D-03
 ErrMax= 2.95D-03  0.00D+00 EMaxC= 1.00D-01 BMatC= 2.58D-03 BMatP= 2.61D-03
 IDIUse=3 WtCom= 9.70D-01 WtEn= 2.95D-02
 Coeff-Com:  0.641D-03-0.151D-03 0.498D+00 0.501D+00
 Coeff-En:   0.000D+00 0.000D+00 0.522D+00 0.478D+00
 Coeff:      0.622D-03-0.147D-03 0.499D+00 0.501D+00
 Gap=     0.056 Goal=   None    Shift=    0.000
 Gap=     0.051 Goal=   None    Shift=    0.000
 RMSDP=2.18D-03 MaxDP=2.31D-01 DE= 2.09D-04 OVMax= 4.56D-02

 Cycle   5  Pass 1  IDiag  1:
 E= -1136.13634811199     Delta-E=       -0.002033704503 Rises=F Damp=F
 DIIS: error= 6.59D-04 at cycle   5 NSaved=   5.
 NSaved= 5 IEnMin= 5 EnMin= -1136.13634811199     IErMin= 5 ErrMin= 6.59D-04
 ErrMax= 6.59D-04  0.00D+00 EMaxC= 1.00D-01 BMatC= 1.13D-04 BMatP= 2.58D-03
 IDIUse=3 WtCom= 9.93D-01 WtEn= 6.59D-03
 Coeff-Com:  0.589D-03-0.164D-02 0.303D+00 0.319D+00 0.379D+00
 Coeff-En:   0.000D+00 0.000D+00 0.000D+00 0.000D+00 0.100D+01
 Coeff:      0.585D-03-0.163D-02 0.301D+00 0.317D+00 0.383D+00
 Gap=     0.057 Goal=   None    Shift=    0.000
 Gap=     0.051 Goal=   None    Shift=    0.000
 RMSDP=3.41D-04 MaxDP=3.04D-02 DE=-2.03D-03 OVMax= 1.35D-02

 Cycle   6  Pass 1  IDiag  1:
 E= -1136.13649082145     Delta-E=       -0.000142709462 Rises=F Damp=F
 DIIS: error= 8.91D-05 at cycle   6 NSaved=   6.
 NSaved= 6 IEnMin= 6 EnMin= -1136.13649082145     IErMin= 6 ErrMin= 8.91D-05
 ErrMax= 8.91D-05  0.00D+00 EMaxC= 1.00D-01 BMatC= 2.87D-06 BMatP= 1.13D-04
 IDIUse=1 WtCom= 1.00D+00 WtEn= 0.00D+00
 Coeff-Com: -0.324D-02 0.399D-02-0.542D-01-0.521D-01 0.736D-01 0.103D+01
 Coeff:     -0.324D-02 0.399D-02-0.542D-01-0.521D-01 0.736D-01 0.103D+01
 Gap=     0.057 Goal=   None    Shift=    0.000
 Gap=     0.051 Goal=   None    Shift=    0.000
 RMSDP=2.73D-04 MaxDP=3.57D-02 DE=-1.43D-04 OVMax= 3.08D-03

 Cycle   7  Pass 1  IDiag  1:
 E= -1136.13649633180     Delta-E=       -0.000005510346 Rises=F Damp=F
 DIIS: error= 6.04D-05 at cycle   7 NSaved=   7.
 NSaved= 7 IEnMin= 7 EnMin= -1136.13649633180     IErMin= 7 ErrMin= 6.04D-05
 ErrMax= 6.04D-05  0.00D+00 EMaxC= 1.00D-01 BMatC= 8.67D-07 BMatP= 2.87D-06
 IDIUse=1 WtCom= 1.00D+00 WtEn= 0.00D+00
 Coeff-Com: -0.138D-02 0.168D-02-0.490D-01-0.485D-01 0.150D-01 0.530D+00
 Coeff-Com:  0.552D+00
 Coeff:     -0.138D-02 0.168D-02-0.490D-01-0.485D-01 0.150D-01 0.530D+00
 Coeff:      0.552D+00
 Gap=     0.057 Goal=   None    Shift=    0.000
 Gap=     0.051 Goal=   None    Shift=    0.000
 RMSDP=7.25D-05 MaxDP=1.24D-02 DE=-5.51D-06 OVMax= 1.61D-03

 Cycle   8  Pass 1  IDiag  1:
 E= -1136.13649749862     Delta-E=       -0.000001166819 Rises=F Damp=F
 DIIS: error= 2.65D-05 at cycle   8 NSaved=   8.
 NSaved= 8 IEnMin= 8 EnMin= -1136.13649749862     IErMin= 8 ErrMin= 2.65D-05
 ErrMax= 2.65D-05  0.00D+00 EMaxC= 1.00D-01 BMatC= 1.85D-07 BMatP= 8.67D-07
 IDIUse=1 WtCom= 1.00D+00 WtEn= 0.00D+00
 Coeff-Com:  0.114D-02-0.148D-02-0.306D-02-0.328D-02-0.234D-01-0.177D+00
 Coeff-Com:  0.278D+00 0.929D+00
 Coeff:      0.114D-02-0.148D-02-0.306D-02-0.328D-02-0.234D-01-0.177D+00
 Coeff:      0.278D+00 0.929D+00
 Gap=     0.057 Goal=   None    Shift=    0.000
 Gap=     0.051 Goal=   None    Shift=    0.000
 RMSDP=4.65D-05 MaxDP=3.23D-03 DE=-1.17D-06 OVMax= 1.12D-03

 Cycle   9  Pass 1  IDiag  1:
 E= -1136.13649794116     Delta-E=       -0.000000442540 Rises=F Damp=F
 DIIS: error= 1.55D-05 at cycle   9 NSaved=   9.
 NSaved= 9 IEnMin= 9 EnMin= -1136.13649794116     IErMin= 9 ErrMin= 1.55D-05
 ErrMax= 1.55D-05  0.00D+00 EMaxC= 1.00D-01 BMatC= 5.01D-08 BMatP= 1.85D-07
 IDIUse=1 WtCom= 1.00D+00 WtEn= 0.00D+00
 Coeff-Com:  0.836D-03-0.107D-02 0.237D-02 0.191D-02-0.166D-01-0.149D+00
 Coeff-Com:  0.106D+00 0.537D+00 0.518D+00
 Coeff:      0.836D-03-0.107D-02 0.237D-02 0.191D-02-0.166D-01-0.149D+00
 Coeff:      0.106D+00 0.537D+00 0.518D+00
 Gap=     0.057 Goal=   None    Shift=    0.000
 Gap=     0.051 Goal=   None    Shift=    0.000
 RMSDP=1.67D-05 MaxDP=1.88D-03 DE=-4.43D-07 OVMax= 4.33D-04

 Cycle  10  Pass 1  IDiag  1:
 E= -1136.13649801989     Delta-E=       -0.000000078734 Rises=F Damp=F
 DIIS: error= 6.69D-06 at cycle  10 NSaved=  10.
 NSaved=10 IEnMin=10 EnMin= -1136.13649801989     IErMin=10 ErrMin= 6.69D-06
 ErrMax= 6.69D-06  0.00D+00 EMaxC= 1.00D-01 BMatC= 9.67D-09 BMatP= 5.01D-08
 IDIUse=1 WtCom= 1.00D+00 WtEn= 0.00D+00
 Coeff-Com:  0.154D-04-0.987D-05 0.277D-02 0.226D-02-0.195D-03-0.747D-02
 Coeff-Com: -0.570D-01-0.932D-01 0.283D+00 0.870D+00
 Coeff:      0.154D-04-0.987D-05 0.277D-02 0.226D-02-0.195D-03-0.747D-02
 Coeff:     -0.570D-01-0.932D-01 0.283D+00 0.870D+00
 Gap=     0.057 Goal=   None    Shift=    0.000
 Gap=     0.051 Goal=   None    Shift=    0.000
 RMSDP=1.93D-05 MaxDP=2.30D-03 DE=-7.87D-08 OVMax= 3.45D-04

 Cycle  11  Pass 1  IDiag  1:
 E= -1136.13649804805     Delta-E=       -0.000000028162 Rises=F Damp=F
 DIIS: error= 1.53D-06 at cycle  11 NSaved=  11.
 NSaved=11 IEnMin=11 EnMin= -1136.13649804805     IErMin=11 ErrMin= 1.53D-06
 ErrMax= 1.53D-06  0.00D+00 EMaxC= 1.00D-01 BMatC= 8.46D-10 BMatP= 9.67D-09
 IDIUse=1 WtCom= 1.00D+00 WtEn= 0.00D+00
 Coeff-Com: -0.135D-03 0.175D-03 0.260D-03 0.222D-03 0.323D-02 0.155D-01
 Coeff-Com: -0.151D-01-0.888D-01-0.758D-01 0.705D-01 0.109D+01
 Coeff:     -0.135D-03 0.175D-03 0.260D-03 0.222D-03 0.323D-02 0.155D-01
 Coeff:     -0.151D-01-0.888D-01-0.758D-01 0.705D-01 0.109D+01
 Gap=     0.057 Goal=   None    Shift=    0.000
 Gap=     0.051 Goal=   None    Shift=    0.000
 RMSDP=9.89D-06 MaxDP=1.24D-03 DE=-2.82D-08 OVMax= 1.54D-04

 Cycle  12  Pass 1  IDiag  1:
 E= -1136.13649805243     Delta-E=       -0.000000004374 Rises=F Damp=F
 DIIS: error= 5.68D-07 at cycle  12 NSaved=  12.
 NSaved=12 IEnMin=12 EnMin= -1136.13649805243     IErMin=12 ErrMin= 5.68D-07
 ErrMax= 5.68D-07  0.00D+00 EMaxC= 1.00D-01 BMatC= 1.23D-10 BMatP= 8.46D-10
 IDIUse=1 WtCom= 1.00D+00 WtEn= 0.00D+00
 Coeff-Com: -0.428D-04 0.538D-04-0.193D-03-0.114D-03 0.869D-03 0.537D-02
 Coeff-Com:  0.950D-03-0.140D-01-0.492D-01-0.879D-01 0.290D+00 0.855D+00
 Coeff:     -0.428D-04 0.538D-04-0.193D-03-0.114D-03 0.869D-03 0.537D-02
 Coeff:      0.950D-03-0.140D-01-0.492D-01-0.879D-01 0.290D+00 0.855D+00
 Gap=     0.057 Goal=   None    Shift=    0.000
 Gap=     0.051 Goal=   None    Shift=    0.000
 RMSDP=2.32D-06 MaxDP=3.36D-04 DE=-4.37D-09 OVMax= 4.99D-05

 Cycle  13  Pass 1  IDiag  1:
 E= -1136.13649805288     Delta-E=       -0.000000000450 Rises=F Damp=F
 DIIS: error= 2.70D-07 at cycle  13 NSaved=  13.
 NSaved=13 IEnMin=13 EnMin= -1136.13649805288     IErMin=13 ErrMin= 2.70D-07
 ErrMax= 2.70D-07  0.00D+00 EMaxC= 1.00D-01 BMatC= 1.91D-11 BMatP= 1.23D-10
 IDIUse=1 WtCom= 1.00D+00 WtEn= 0.00D+00
 Coeff-Com:  0.184D-04-0.246D-04-0.946D-04-0.581D-04-0.418D-03-0.166D-02
 Coeff-Com:  0.326D-02 0.125D-01 0.573D-02-0.255D-01-0.168D+00 0.133D+00
 Coeff-Com:  0.104D+01
 Coeff:      0.184D-04-0.246D-04-0.946D-04-0.581D-04-0.418D-03-0.166D-02
 Coeff:      0.326D-02 0.125D-01 0.573D-02-0.255D-01-0.168D+00 0.133D+00
 Coeff:      0.104D+01
 Gap=     0.057 Goal=   None    Shift=    0.000
 Gap=     0.051 Goal=   None    Shift=    0.000
 RMSDP=1.07D-06 MaxDP=1.42D-04 DE=-4.50D-10 OVMax= 2.94D-05

 Cycle  14  Pass 1  IDiag  1:
 E= -1136.13649805299     Delta-E=       -0.000000000116 Rises=F Damp=F
 DIIS: error= 1.00D-07 at cycle  14 NSaved=  14.
 NSaved=14 IEnMin=14 EnMin= -1136.13649805299     IErMin=14 ErrMin= 1.00D-07
 ErrMax= 1.00D-07  0.00D+00 EMaxC= 1.00D-01 BMatC= 2.30D-12 BMatP= 1.91D-11
 IDIUse=1 WtCom= 1.00D+00 WtEn= 0.00D+00
 Coeff-Com:  0.514D-05-0.635D-05 0.142D-04 0.145D-05-0.992D-04-0.507D-03
 Coeff-Com: -0.301D-03 0.102D-02 0.722D-02 0.126D-01-0.312D-01-0.109D+00
 Coeff-Com: -0.748D-01 0.119D+01
 Coeff:      0.514D-05-0.635D-05 0.142D-04 0.145D-05-0.992D-04-0.507D-03
 Coeff:     -0.301D-03 0.102D-02 0.722D-02 0.126D-01-0.312D-01-0.109D+00
 Coeff:     -0.748D-01 0.119D+01
 Gap=     0.057 Goal=   None    Shift=    0.000
 Gap=     0.051 Goal=   None    Shift=    0.000
 RMSDP=4.40D-07 MaxDP=3.21D-05 DE=-1.16D-10 OVMax= 1.17D-05

 Cycle  15  Pass 1  IDiag  1:
 E= -1136.13649805300     Delta-E=       -0.000000000004 Rises=F Damp=F
 DIIS: error= 3.28D-08 at cycle  15 NSaved=  15.
 NSaved=15 IEnMin=15 EnMin= -1136.13649805300     IErMin=15 ErrMin= 3.28D-08
 ErrMax= 3.28D-08  0.00D+00 EMaxC= 1.00D-01 BMatC= 4.34D-13 BMatP= 2.30D-12
 IDIUse=1 WtCom= 1.00D+00 WtEn= 0.00D+00
 Coeff-Com: -0.376D-05 0.510D-05 0.164D-04 0.810D-05 0.802D-04 0.295D-03
 Coeff-Com: -0.652D-03-0.235D-02-0.447D-03 0.537D-02 0.327D-01-0.363D-01
 Coeff-Com: -0.198D+00 0.467D-01 0.115D+01
 Coeff:     -0.376D-05 0.510D-05 0.164D-04 0.810D-05 0.802D-04 0.295D-03
 Coeff:     -0.652D-03-0.235D-02-0.447D-03 0.537D-02 0.327D-01-0.363D-01
 Coeff:     -0.198D+00 0.467D-01 0.115D+01
 Gap=     0.057 Goal=   None    Shift=    0.000
 Gap=     0.051 Goal=   None    Shift=    0.000
 RMSDP=2.48D-07 MaxDP=2.28D-05 DE=-3.64D-12 OVMax= 5.03D-06

 Cycle  16  Pass 1  IDiag  1:
 E= -1136.13649805300     Delta-E=       -0.000000000006 Rises=F Damp=F
 DIIS: error= 1.19D-08 at cycle  16 NSaved=  16.
 NSaved=16 IEnMin=16 EnMin= -1136.13649805300     IErMin=16 ErrMin= 1.19D-08
 ErrMax= 1.19D-08  0.00D+00 EMaxC= 1.00D-01 BMatC= 5.68D-14 BMatP= 4.34D-13
 IDIUse=1 WtCom= 1.00D+00 WtEn= 0.00D+00
 Coeff-Com: -0.887D-06 0.112D-05-0.574D-06 0.607D-06 0.134D-04 0.789D-04
 Coeff-Com:  0.658D-04-0.230D-03-0.108D-02-0.142D-02 0.372D-02 0.158D-01
 Coeff-Com:  0.103D-01-0.175D+00 0.389D-01 0.111D+01
 Coeff:     -0.887D-06 0.112D-05-0.574D-06 0.607D-06 0.134D-04 0.789D-04
 Coeff:      0.658D-04-0.230D-03-0.108D-02-0.142D-02 0.372D-02 0.158D-01
 Coeff:      0.103D-01-0.175D+00 0.389D-01 0.111D+01
 Gap=     0.057 Goal=   None    Shift=    0.000
 Gap=     0.051 Goal=   None    Shift=    0.000
 RMSDP=6.48D-08 MaxDP=6.65D-06 DE=-5.91D-12 OVMax= 1.42D-06

 Cycle  17  Pass 1  IDiag  1:
 E= -1136.13649805301     Delta-E=       -0.000000000003 Rises=F Damp=F
 DIIS: error= 6.10D-09 at cycle  17 NSaved=  17.
 NSaved=17 IEnMin=17 EnMin= -1136.13649805301     IErMin=17 ErrMin= 6.10D-09
 ErrMax= 6.10D-09  0.00D+00 EMaxC= 1.00D-01 BMatC= 1.05D-14 BMatP= 5.68D-14
 IDIUse=1 WtCom= 1.00D+00 WtEn= 0.00D+00
 Coeff-Com:  0.420D-06-0.579D-06-0.193D-05-0.903D-06-0.982D-05-0.214D-04
 Coeff-Com:  0.821D-04 0.253D-03-0.580D-04-0.792D-03-0.392D-02 0.654D-02
 Coeff-Com:  0.260D-01-0.235D-01-0.162D+00 0.195D+00 0.963D+00
 Coeff:      0.420D-06-0.579D-06-0.193D-05-0.903D-06-0.982D-05-0.214D-04
 Coeff:      0.821D-04 0.253D-03-0.580D-04-0.792D-03-0.392D-02 0.654D-02
 Coeff:      0.260D-01-0.235D-01-0.162D+00 0.195D+00 0.963D+00
 Gap=     0.057 Goal=   None    Shift=    0.000
 Gap=     0.051 Goal=   None    Shift=    0.000
 RMSDP=1.14D-08 MaxDP=6.96D-07 DE=-3.18D-12 OVMax= 4.22D-07

 Cycle  18  Pass 1  IDiag  1:
 E= -1136.13649805300     Delta-E=        0.000000000005 Rises=F Damp=F
 DIIS: error= 3.03D-09 at cycle  18 NSaved=  18.
 NSaved=18 IEnMin=17 EnMin= -1136.13649805301     IErMin=18 ErrMin= 3.03D-09
 ErrMax= 3.03D-09  0.00D+00 EMaxC= 1.00D-01 BMatC= 2.10D-15 BMatP= 1.05D-14
 IDIUse=1 WtCom= 1.00D+00 WtEn= 0.00D+00
 Large coefficients: NSaved= 18 BigCof=    0.00 CofMax=   10.00 Det=-4.29D-15
 Inversion failed.  Reducing to 17 matrices.
 Large coefficients: NSaved= 17 BigCof=    0.00 CofMax=   10.00 Det=-4.61D-15
 Inversion failed.  Reducing to 16 matrices.
 Large coefficients: NSaved= 16 BigCof=    0.00 CofMax=   10.00 Det=-4.61D-15
 Inversion failed.  Reducing to 15 matrices.
 Coeff-Com:  0.264D-06 0.222D-05 0.155D-05-0.420D-04-0.507D-04 0.175D-03
 Coeff-Com:  0.400D-03 0.498D-03-0.404D-02-0.686D-02 0.331D-01 0.291D-01
 Coeff-Com: -0.273D+00-0.842D-01 0.131D+01
 Coeff:      0.264D-06 0.222D-05 0.155D-05-0.420D-04-0.507D-04 0.175D-03
 Coeff:      0.400D-03 0.498D-03-0.404D-02-0.686D-02 0.331D-01 0.291D-01
 Coeff:     -0.273D+00-0.842D-01 0.131D+01
 Gap=     0.057 Goal=   None    Shift=    0.000
 Gap=     0.051 Goal=   None    Shift=    0.000
 RMSDP=7.52D-09 MaxDP=4.04D-07 DE= 5.00D-12 OVMax= 2.62D-07

 SCF Done:  E(UB3LYP) =  -1136.13649805     A.U. after   18 cycles
            NFock= 18  Conv=0.75D-08     -V/T= 2.0028
 <Sx>= 0.0000 <Sy>= 0.0000 <Sz>= 0.5000 <S**2>= 0.7645 S= 0.5072
 <L.S>= 0.000000000000E+00
 KE= 1.132935806535D+03 PE=-3.416611388238D+03 EE= 8.040286730803D+02
 Annihilation of the first spin contaminant:
 S**2 before annihilation     0.7645,   after     0.7501
 Leave Link  502 at Sun Dec  3 17:34:51 2023, MaxMem=  1879048192 cpu:             171.4 elap:              15.3
 (Enter /home/sekinelabo/g16/l601.exe)
 Copying SCF densities to generalized density rwf, IOpCl= 1 IROHF=0.

 **********************************************************************

            Population analysis using the SCF Density.

 **********************************************************************

 Orbital symmetries:
 Alpha Orbitals:
       Occupied  (A) (A) (A) (A) (A) (A) (A) (A) (A) (A) (A) (A)
                 (A) (A) (A) (A) (A) (A) (A) (A) (A) (A) (A) (A)
                 (A) (A) (A) (A) (A) (A) (A) (A) (A) (A) (A) (A)
                 (A) (A) (A)
       Virtual   (A) (A) (A) (A) (A) (A) (A) (A) (A) (A) (A) (A)
                 (A) (A) (A) (A) (A) (A) (A) (A) (A) (A) (A) (A)
                 (A) (A) (A) (A) (A) (A) (A) (A) (A) (A) (A) (A)
                 (A) (A) (A) (A) (A) (A) (A) (A) (A) (A) (A) (A)
                 (A) (A) (A) (A) (A) (A) (A) (A) (A) (A) (A) (A)
                 (A) (A) (A) (A) (A) (A) (A) (A) (A) (A) (A) (A)
                 (A) (A) (A) (A) (A) (A) (A) (A) (A) (A) (A) (A)
                 (A) (A) (A) (A) (A) (A) (A) (A) (A) (A) (A) (A)
                 (A) (A) (A) (A) (A) (A) (A) (A) (A) (A) (A) (A)
                 (A) (A) (A) (A) (A) (A) (A) (A) (A) (A) (A) (A)
                 (A) (A) (A) (A) (A) (A) (A) (A) (A) (A) (A) (A)
                 (A) (A) (A) (A) (A) (A) (A) (A) (A) (A) (A) (A)
                 (A) (A) (A) (A) (A) (A) (A) (A) (A) (A) (A) (A)
                 (A) (A) (A) (A) (A) (A) (A) (A) (A) (A) (A) (A)
                 (A) (A) (A)
 Beta  Orbitals:
       Occupied  (A) (A) (A) (A) (A) (A) (A) (A) (A) (A) (A) (A)
                 (A) (A) (A) (A) (A) (A) (A) (A) (A) (A) (A) (A)
                 (A) (A) (A) (A) (A) (A) (A) (A) (A) (A) (A) (A)
                 (A) (A)
       Virtual   (A) (A) (A) (A) (A) (A) (A) (A) (A) (A) (A) (A)
                 (A) (A) (A) (A) (A) (A) (A) (A) (A) (A) (A) (A)
                 (A) (A) (A) (A) (A) (A) (A) (A) (A) (A) (A) (A)
                 (A) (A) (A) (A) (A) (A) (A) (A) (A) (A) (A) (A)
                 (A) (A) (A) (A) (A) (A) (A) (A) (A) (A) (A) (A)
                 (A) (A) (A) (A) (A) (A) (A) (A) (A) (A) (A) (A)
                 (A) (A) (A) (A) (A) (A) (A) (A) (A) (A) (A) (A)
                 (A) (A) (A) (A) (A) (A) (A) (A) (A) (A) (A) (A)
                 (A) (A) (A) (A) (A) (A) (A) (A) (A) (A) (A) (A)
                 (A) (A) (A) (A) (A) (A) (A) (A) (A) (A) (A) (A)
                 (A) (A) (A) (A) (A) (A) (A) (A) (A) (A) (A) (A)
                 (A) (A) (A) (A) (A) (A) (A) (A) (A) (A) (A) (A)
                 (A) (A) (A) (A) (A) (A) (A) (A) (A) (A) (A) (A)
                 (A) (A) (A) (A) (A) (A) (A) (A) (A) (A) (A) (A)
                 (A) (A) (A) (A)
 The electronic state is 2-A.
 Alpha  occ. eigenvalues --  -38.43813 -38.43788 -38.43622 -38.43602 -38.43526
 Alpha  occ. eigenvalues --  -38.43479 -38.42989  -2.19636  -2.19630  -2.19544
 Alpha  occ. eigenvalues --   -2.19479  -2.19353  -2.19341  -2.19020  -1.13346
 Alpha  occ. eigenvalues --   -1.13312  -1.13296  -1.13291  -1.13275  -1.13263
 Alpha  occ. eigenvalues --   -1.13257  -1.13210  -1.13160  -1.13124  -1.13107
 Alpha  occ. eigenvalues --   -1.13088  -1.13074  -1.13035  -1.13009  -1.12993
 Alpha  occ. eigenvalues --   -1.12975  -1.12953  -1.12704  -1.12648  -1.12639
 Alpha  occ. eigenvalues --   -0.18679  -0.12772  -0.12590  -0.10972
 Alpha virt. eigenvalues --   -0.05289  -0.04980  -0.04875  -0.03187  -0.02993
 Alpha virt. eigenvalues --   -0.02489  -0.01442  -0.01220  -0.00412  -0.00118
 Alpha virt. eigenvalues --    0.00068   0.00335   0.00829   0.00870   0.00880
 Alpha virt. eigenvalues --    0.00934   0.01055   0.01117   0.01263   0.01273
 Alpha virt. eigenvalues --    0.01286   0.01429   0.01757   0.01858   0.02082
 Alpha virt. eigenvalues --    0.02327   0.02384   0.02580   0.02595   0.02843
 Alpha virt. eigenvalues --    0.02930   0.02966   0.03010   0.03099   0.03146
 Alpha virt. eigenvalues --    0.03257   0.03266   0.03363   0.03383   0.03392
 Alpha virt. eigenvalues --    0.04373   0.04451   0.04635   0.04703   0.04799
 Alpha virt. eigenvalues --    0.04914   0.05009   0.05085   0.05304   0.05420
 Alpha virt. eigenvalues --    0.05855   0.06207   0.06939   0.07355   0.07430
 Alpha virt. eigenvalues --    0.07601   0.07898   0.08061   0.08248   0.09142
 Alpha virt. eigenvalues --    0.09200   0.09751   0.11311   0.11572   0.11854
 Alpha virt. eigenvalues --    0.11898   0.12395   0.12551   0.12797   0.12866
 Alpha virt. eigenvalues --    0.13429   0.13903   0.14209   0.14400   0.14738
 Alpha virt. eigenvalues --    0.14853   0.15317   0.15468   0.16655   0.17436
 Alpha virt. eigenvalues --    0.26000   0.26457   0.28079   0.28235   0.29241
 Alpha virt. eigenvalues --    0.30171   0.31149   0.31804   0.32419   0.34389
 Alpha virt. eigenvalues --    0.34741   0.35207   0.36616   0.36776   0.39095
 Alpha virt. eigenvalues --    0.39185   0.39771   0.40459   0.42498   0.42575
 Alpha virt. eigenvalues --    0.43878   0.44189   0.44378   0.44499   0.44678
 Alpha virt. eigenvalues --    0.44847   0.45063   0.45077   0.45804   0.46334
 Alpha virt. eigenvalues --    0.47075   0.47854   0.48128   0.48684   0.49218
 Alpha virt. eigenvalues --    0.50073   0.50346   0.50671   0.51528   0.51708
 Alpha virt. eigenvalues --    0.52364   0.54269   0.55258   0.55933   0.56891
 Alpha virt. eigenvalues --    0.57863   0.58415   0.60301   0.60573   0.61342
 Alpha virt. eigenvalues --    0.62413   0.63747   0.65822   0.68221   0.69585
 Alpha virt. eigenvalues --    0.70129   2.03364   2.14315   2.14643   2.19475
 Alpha virt. eigenvalues --    2.20126   2.23897   2.29965   4.43110   4.43511
 Alpha virt. eigenvalues --    4.45323   4.45484   4.46254   4.46589   4.47009
 Alpha virt. eigenvalues --    4.47294   4.47341   4.47726   4.48245   4.48579
 Alpha virt. eigenvalues --    4.49585   4.51124   4.51773   4.53868   4.54914
 Alpha virt. eigenvalues --    4.58495   4.60358   4.63250   4.66676  96.22823
 Alpha virt. eigenvalues --   96.35669  96.36389  96.42089  96.42816  96.47638
 Alpha virt. eigenvalues --   96.55265
  Beta  occ. eigenvalues --  -38.43810 -38.43768 -38.43598 -38.43518 -38.43509
  Beta  occ. eigenvalues --  -38.43475 -38.42934  -2.19625  -2.19602  -2.19440
  Beta  occ. eigenvalues --   -2.19391  -2.19339  -2.19323  -2.18921  -1.13312
  Beta  occ. eigenvalues --   -1.13300  -1.13294  -1.13257  -1.13255  -1.13231
  Beta  occ. eigenvalues --   -1.13207  -1.13115  -1.13087  -1.13076  -1.13064
  Beta  occ. eigenvalues --   -1.13042  -1.13028  -1.13016  -1.12987  -1.12970
  Beta  occ. eigenvalues --   -1.12957  -1.12942  -1.12630  -1.12577  -1.12568
  Beta  occ. eigenvalues --   -0.18001  -0.12497  -0.12262
  Beta virt. eigenvalues --   -0.07115  -0.05253  -0.04865  -0.04804  -0.02459
  Beta virt. eigenvalues --   -0.02345  -0.01511  -0.01307  -0.01117  -0.00325
  Beta virt. eigenvalues --   -0.00143   0.00150   0.00377   0.00864   0.00886
  Beta virt. eigenvalues --    0.00908   0.01004   0.01159   0.01234   0.01375
  Beta virt. eigenvalues --    0.01391   0.01475   0.01585   0.01800   0.01880
  Beta virt. eigenvalues --    0.02188   0.02324   0.02431   0.02576   0.02600
  Beta virt. eigenvalues --    0.02863   0.02947   0.03078   0.03130   0.03148
  Beta virt. eigenvalues --    0.03223   0.03257   0.03286   0.03444   0.03497
  Beta virt. eigenvalues --    0.03574   0.04475   0.04595   0.04723   0.04797
  Beta virt. eigenvalues --    0.04880   0.05030   0.05096   0.05244   0.05458
  Beta virt. eigenvalues --    0.05582   0.06145   0.06254   0.07068   0.07380
  Beta virt. eigenvalues --    0.07439   0.07672   0.08067   0.08197   0.08394
  Beta virt. eigenvalues --    0.09363   0.09465   0.10069   0.11388   0.11902
  Beta virt. eigenvalues --    0.11971   0.12130   0.12518   0.12678   0.13008
  Beta virt. eigenvalues --    0.13165   0.13589   0.14115   0.14363   0.14474
  Beta virt. eigenvalues --    0.14975   0.15219   0.15631   0.15806   0.17134
  Beta virt. eigenvalues --    0.17883   0.26215   0.26652   0.28176   0.28507
  Beta virt. eigenvalues --    0.29603   0.30566   0.31463   0.32328   0.32974
  Beta virt. eigenvalues --    0.34632   0.35115   0.35445   0.36850   0.37119
  Beta virt. eigenvalues --    0.39185   0.39358   0.39977   0.40550   0.42604
  Beta virt. eigenvalues --    0.42751   0.44022   0.44319   0.44443   0.44627
  Beta virt. eigenvalues --    0.44771   0.44977   0.45238   0.45334   0.46043
  Beta virt. eigenvalues --    0.46507   0.47213   0.47941   0.48211   0.48981
  Beta virt. eigenvalues --    0.49341   0.50180   0.50404   0.50745   0.51692
  Beta virt. eigenvalues --    0.51970   0.52532   0.54546   0.55329   0.56112
  Beta virt. eigenvalues --    0.57016   0.58025   0.58795   0.60625   0.60750
  Beta virt. eigenvalues --    0.61610   0.62642   0.64064   0.66026   0.68421
  Beta virt. eigenvalues --    0.69930   0.70424   2.03474   2.14349   2.14700
  Beta virt. eigenvalues --    2.19542   2.20140   2.24220   2.30201   4.43203
  Beta virt. eigenvalues --    4.43630   4.45375   4.45510   4.46291   4.46618
  Beta virt. eigenvalues --    4.47033   4.47332   4.47360   4.47748   4.48297
  Beta virt. eigenvalues --    4.48606   4.49620   4.51158   4.51800   4.53909
  Beta virt. eigenvalues --    4.54993   4.58550   4.60439   4.63359   4.66761
  Beta virt. eigenvalues --   96.22860  96.35682  96.36411  96.42117  96.42823
  Beta virt. eigenvalues --   96.47734  96.55337
          Condensed to atoms (all electrons):
               1          2          3          4          5          6
     1  Na  11.028847   0.064257   0.657123  -0.014203  -0.925854   0.194701
     2  Na   0.064257  11.278696  -0.802898   0.387977   0.298339  -0.205334
     3  Na   0.657123  -0.802898  13.267781  -0.208496  -1.984434   0.342503
     4  Na  -0.014203   0.387977  -0.208496  10.876738  -0.286017   0.160249
     5  Na  -0.925854   0.298339  -1.984434  -0.286017  14.338417  -0.544389
     6  Na   0.194701  -0.205334   0.342503   0.160249  -0.544389  10.830097
     7  Na  -0.075411  -0.105767  -0.268455   0.104960   0.188821   0.288050
               7
     1  Na  -0.075411
     2  Na  -0.105767
     3  Na  -0.268455
     4  Na   0.104960
     5  Na   0.188821
     6  Na   0.288050
     7  Na  10.847979
          Atomic-Atomic Spin Densities.
               1          2          3          4          5          6
     1  Na   0.341748  -0.136874   0.642275   0.005782  -0.801522   0.124824
     2  Na  -0.136874   0.106986  -0.375998  -0.010700   0.498174  -0.056970
     3  Na   0.642275  -0.375998   2.176782   0.011698  -2.088178   0.306687
     4  Na   0.005782  -0.010700   0.011698  -0.032655   0.022775  -0.004800
     5  Na  -0.801522   0.498174  -2.088178   0.022775   2.835282  -0.388297
     6  Na   0.124824  -0.056970   0.306687  -0.004800  -0.388297   0.087488
     7  Na  -0.057536  -0.006866  -0.188472  -0.020906   0.278210  -0.033182
               7
     1  Na  -0.057536
     2  Na  -0.006866
     3  Na  -0.188472
     4  Na  -0.020906
     5  Na   0.278210
     6  Na  -0.033182
     7  Na   0.044120
 Mulliken charges and spin densities:
               1          2
     1  Na   0.070540   0.118696
     2  Na   0.084730   0.017751
     3  Na  -0.003124   0.484794
     4  Na  -0.021208  -0.028805
     5  Na  -0.084883   0.356446
     6  Na  -0.065878   0.035750
     7  Na   0.019823   0.015369
 Sum of Mulliken charges =  -0.00000   1.00000
 Mulliken charges and spin densities with hydrogens summed into heavy atoms:
               1          2
     1  Na   0.070540   0.118696
     2  Na   0.084730   0.017751
     3  Na  -0.003124   0.484794
     4  Na  -0.021208  -0.028805
     5  Na  -0.084883   0.356446
     6  Na  -0.065878   0.035750
     7  Na   0.019823   0.015369
 Electronic spatial extent (au):  <R**2>=           2245.3074
 Charge=             -0.0000 electrons
 Dipole moment (field-independent basis, Debye):
    X=              0.0803    Y=             -0.1293    Z=              0.1917  Tot=              0.2447
 Quadrupole moment (field-independent basis, Debye-Ang):
   XX=            -58.2310   YY=            -60.9880   ZZ=            -73.4515
   XY=              0.2982   XZ=             -1.1820   YZ=              0.4682
 Traceless Quadrupole moment (field-independent basis, Debye-Ang):
   XX=              5.9925   YY=              3.2355   ZZ=             -9.2281
   XY=              0.2982   XZ=             -1.1820   YZ=              0.4682
 Octapole moment (field-independent basis, Debye-Ang**2):
  XXX=              1.5435  YYY=              1.3051  ZZZ=              3.6291  XYY=             -0.3884
  XXY=             -1.1250  XXZ=             -2.6566  XZZ=              0.4725  YZZ=             -1.2583
  YYZ=             -0.0477  XYZ=              5.9996
 Hexadecapole moment (field-independent basis, Debye-Ang**3):
 XXXX=          -1412.6936 YYYY=          -1389.7661 ZZZZ=           -779.5786 XXXY=             10.6019
 XXXZ=            -56.9008 YYYX=             -3.3769 YYYZ=             30.8375 ZZZX=             -1.6372
 ZZZY=             -6.0906 XXYY=           -481.8033 XXZZ=           -424.9055 YYZZ=           -416.8045
 XXYZ=            -12.1953 YYXZ=             26.3560 ZZXY=             -1.0261
 N-N= 3.435104105697D+02 E-N=-3.416611388208D+03  KE= 1.132935806535D+03
                          Isotropic Fermi Contact Couplings
        Atom                 a.u.       MegaHertz       Gauss      10(-4) cm-1
     1  Na(23)             0.06283      74.32566      26.52124      24.79237
     2  Na(23)             0.05506      65.13299      23.24107      21.72603
     3  Na(23)             0.33528     396.64268     141.53197     132.30576
     4  Na(23)            -0.02297     -27.17883      -9.69808      -9.06588
     5  Na(23)             0.20447     241.89954      86.31577      80.68900
     6  Na(23)            -0.00763      -9.02287      -3.21958      -3.00970
     7  Na(23)             0.05599      66.24277      23.63707      22.09621
 --------------------------------------------------------
       Center         ----  Spin Dipole Couplings  ----
                      3XX-RR        3YY-RR        3ZZ-RR
 --------------------------------------------------------
     1   Atom       -0.016505     -0.007448      0.023953
     2   Atom       -0.005426     -0.012662      0.018087
     3   Atom       -0.003664      0.009288     -0.005624
     4   Atom       -0.012380     -0.011521      0.023901
     5   Atom        0.001215     -0.008260      0.007044
     6   Atom       -0.004230     -0.010485      0.014716
     7   Atom       -0.007185     -0.004445      0.011630
 --------------------------------------------------------
                        XY            XZ            YZ
 --------------------------------------------------------
     1   Atom        0.003688     -0.004040     -0.018789
     2   Atom        0.002921      0.014379      0.006573
     3   Atom        0.010667      0.001658      0.006257
     4   Atom        0.001040     -0.015476     -0.003978
     5   Atom       -0.012117     -0.006153     -0.000904
     6   Atom        0.000447      0.009939     -0.006208
     7   Atom       -0.003912     -0.005317      0.008595
 --------------------------------------------------------


 ---------------------------------------------------------------------------------
              Anisotropic Spin Dipole Couplings in Principal Axis System
 ---------------------------------------------------------------------------------

       Atom             a.u.   MegaHertz   Gauss  10(-4) cm-1        Axes

              Baa    -0.0183    -2.586    -0.923    -0.863  0.7850 -0.5905 -0.1875
     1 Na(23) Bbb    -0.0150    -2.114    -0.754    -0.705  0.6107  0.6865  0.3947
              Bcc     0.0333     4.700     1.677     1.568 -0.1044 -0.4243  0.8995
 
              Baa    -0.0140    -1.978    -0.706    -0.660  0.0109  0.9786 -0.2053
     2 Na(23) Bbb    -0.0122    -1.726    -0.616    -0.576  0.9072 -0.0960 -0.4095
              Bcc     0.0262     3.705     1.322     1.236  0.4205  0.1818  0.8889
 
              Baa    -0.0105    -1.477    -0.527    -0.493  0.7260 -0.5307  0.4374
     3 Na(23) Bbb    -0.0066    -0.928    -0.331    -0.309 -0.5127  0.0062  0.8585
              Bcc     0.0170     2.405     0.858     0.802  0.4583  0.8476  0.2676
 
              Baa    -0.0181    -2.557    -0.913    -0.853  0.9345  0.0640  0.3503
     4 Na(23) Bbb    -0.0119    -1.680    -0.600    -0.560 -0.0941  0.9931  0.0697
              Bcc     0.0300     4.238     1.512     1.414 -0.3434 -0.0981  0.9340
 
              Baa    -0.0173    -2.441    -0.871    -0.814  0.5796  0.7956  0.1761
     5 Na(23) Bbb     0.0041     0.573     0.205     0.191  0.4383 -0.4866  0.7558
              Bcc     0.0132     1.868     0.667     0.623  0.6870 -0.3609 -0.6307
 
              Baa    -0.0132    -1.861    -0.664    -0.621 -0.4158  0.8450  0.3363
     6 Na(23) Bbb    -0.0068    -0.962    -0.343    -0.321  0.8305  0.5035 -0.2382
              Bcc     0.0200     2.822     1.007     0.941  0.3706 -0.1802  0.9111
 
              Baa    -0.0100    -1.412    -0.504    -0.471  0.7641  0.6416 -0.0672
     7 Na(23) Bbb    -0.0071    -0.998    -0.356    -0.333 -0.5916  0.6554 -0.4695
              Bcc     0.0171     2.411     0.860     0.804 -0.2572  0.3984  0.8804
 

 ---------------------------------------------------------------------------------

 No NMR shielding tensors so no spin-rotation constants.
 Leave Link  601 at Sun Dec  3 17:34:51 2023, MaxMem=  1879048192 cpu:               2.3 elap:               0.2
 (Enter /home/sekinelabo/g16/l701.exe)
 ... and contract with generalized density number  0.
 Compute integral first derivatives.
 Leave Link  701 at Sun Dec  3 17:34:51 2023, MaxMem=  1879048192 cpu:               1.6 elap:               0.1
 (Enter /home/sekinelabo/g16/l702.exe)
 L702 exits ... SP integral derivatives will be done elsewhere.
 Leave Link  702 at Sun Dec  3 17:34:52 2023, MaxMem=  1879048192 cpu:               0.5 elap:               0.0
 (Enter /home/sekinelabo/g16/l703.exe)
 Integral derivatives from FoFJK, PRISM(SPDF).
 Compute integral first derivatives, UseDBF=F ICtDFT=           0.
 Calling FoFJK, ICntrl=      2127 FMM=F ISym2X=0 I1Cent= 0 IOpClX= 1 NMat=1 NMatS=1 NMatT=0.
 FoFJK:  IHMeth= 1 ICntrl=    2127 DoSepK=F KAlg= 0 I1Cent=           0 FoldK=F
 IRaf=         0 NMat=       1 IRICut=       1 DoRegI=T DoRafI=F ISym2E= 0 IDoP0=0 IntGTp=1.
 FoFCou: FMM=F IPFlag=           0 FMFlag=      100000 FMFlg1=         800
         NFxFlg=           0 DoJE=F BraDBF=F KetDBF=F FulRan=T
         wScrn=  0.000000 ICntrl=      2127 IOpCl=  1 I1Cent=           0 NGrid=           0
         NMat0=    1 NMatS0=      1 NMatT0=    0 NMatD0=    1 NMtDS0=    0 NMtDT0=    0
 Symmetry not used in FoFCou.
 Leave Link  703 at Sun Dec  3 17:34:54 2023, MaxMem=  1879048192 cpu:              34.6 elap:               2.3
 (Enter /home/sekinelabo/g16/l716.exe)
 Dipole        = 3.15970839D-02-5.08551223D-02 7.54050997D-02
 ***** Axes restored to original set *****
 -------------------------------------------------------------------
 Center     Atomic                   Forces (Hartrees/Bohr)
 Number     Number              X              Y              Z
 -------------------------------------------------------------------
      1       11           0.001107087   -0.002360897    0.001617638
      2       11          -0.000334006    0.002111886   -0.000332897
      3       11          -0.000956417    0.001223045   -0.002655836
      4       11          -0.001405344    0.000613934   -0.000036584
      5       11          -0.000204439   -0.003407709   -0.000359614
      6       11           0.000447649   -0.000190036    0.002667210
      7       11           0.001345470    0.002009777   -0.000899916
 -------------------------------------------------------------------
 Cartesian Forces:  Max     0.003407709 RMS     0.001569189
 Z-matrix is all fixed cartesians, so copy forces.
 Force constants in Cartesian coordinates: 
                1             2             3             4             5 
      1  0.736640D-01
      2  0.704595D-02  0.598817D-01
      3  0.199355D-01  0.729872D-02  0.797201D-01
      4 -0.217649D-01  0.241716D-02  0.175550D-01  0.737910D-01
      5 -0.629672D-02 -0.682418D-02 -0.365427D-03 -0.521706D-03  0.498964D-01
      6 -0.149349D-01 -0.461349D-02 -0.135309D-01 -0.174128D-01  0.818840D-02
      7 -0.227445D-01  0.134062D-01 -0.145033D-01 -0.122710D-01 -0.158467D-01
      8 -0.105202D-01 -0.299353D-01 -0.660181D-02  0.178949D-02 -0.143744D-01
      9  0.797310D-03  0.196414D-01 -0.322660D-01  0.705739D-02  0.159604D-01
     10 -0.162348D-02 -0.308941D-04 -0.644914D-02 -0.174774D-01  0.154148D-02
     11 -0.730761D-03  0.846062D-02 -0.237756D-02 -0.194665D-02 -0.330920D-02
     12 -0.574827D-02 -0.170517D-02  0.226324D-02 -0.187773D-01  0.161070D-03
     13 -0.200342D-01 -0.144126D-01  0.306649D-03 -0.294316D-01  0.168498D-01
     14  0.144609D-02 -0.275806D-01  0.842285D-02 -0.652447D-02 -0.383524D-01
     15 -0.674419D-02 -0.124964D-01 -0.176934D-01  0.309741D-02 -0.223906D-01
     16  0.349582D-02 -0.214483D-02 -0.457268D-02  0.548091D-02  0.238158D-03
     17 -0.214163D-02  0.656394D-02 -0.383995D-02  0.173725D-03  0.751684D-02
     18 -0.107384D-02 -0.107541D-02 -0.478703D-02  0.425245D-02 -0.246003D-02
     19 -0.109926D-01 -0.628092D-02 -0.122720D-01  0.167291D-02  0.403569D-02
     20  0.111973D-01 -0.105661D-01 -0.253681D-02  0.461246D-02  0.544691D-02
     21  0.776842D-02 -0.704962D-02 -0.137059D-01  0.422787D-02  0.906248D-03
                6             7             8             9            10 
      6  0.830320D-01
      7  0.649118D-02  0.921765D-01
      8 -0.780954D-02  0.134060D-01  0.129615D+00
      9 -0.180258D-01  0.202947D-02 -0.134346D-01  0.980189D-01
     10  0.158987D-01 -0.258533D-01  0.358656D-02 -0.748445D-02  0.101980D+00
     11 -0.293255D-02 -0.252044D-01 -0.194072D-01 -0.498539D-02 -0.929731D-03
     12 -0.219548D-01  0.159550D-02  0.891385D-02 -0.167542D-01  0.132017D-01
     13  0.162776D-02 -0.180866D-01 -0.677465D-02  0.334574D-02 -0.275682D-01
     14  0.895966D-02  0.382531D-04 -0.372721D-01  0.428247D-02 -0.838710D-02
     15 -0.290824D-01  0.202494D-02  0.615278D-02 -0.182620D-01  0.215643D-02
     16  0.417423D-02 -0.116336D-01 -0.472203D-02 -0.713500D-02 -0.268057D-01
     17 -0.232370D-02  0.368189D-02 -0.229050D-01 -0.198255D-01  0.399637D-03
     18 -0.333481D-02  0.282939D-02  0.111822D-01 -0.169589D-01 -0.157588D-01
     19  0.415576D-02 -0.158754D-02  0.323485D-02  0.138954D-02 -0.265208D-02
     20  0.531216D-03  0.105189D-01 -0.572113D-02 -0.163877D-02  0.382004D-02
     21  0.289673D-02 -0.467195D-03  0.159709D-02  0.424795D-02 -0.156445D-02
               11            12            13            14            15 
     11  0.481714D-01
     12 -0.129200D-02  0.755824D-01
     13  0.218060D-01 -0.756185D-02  0.146612D+00
     14 -0.299677D-01 -0.710916D-03  0.628323D-02  0.183253D+00
     15  0.125320D-01 -0.247179D-01 -0.639602D-02 -0.999155D-02  0.144492D+00
     16  0.588863D-02  0.189762D-01 -0.135066D-01 -0.599189D-04  0.507102D-02
     17 -0.705937D-02 -0.395620D-02 -0.265150D-02 -0.231409D-01  0.200950D-01
     18  0.849783D-03 -0.221984D-01  0.138180D-02 -0.741831D-02 -0.242346D-01
     19  0.111690D-02 -0.168597D-02 -0.379853D-01  0.720392D-02  0.790418D-03
     20  0.311145D-02 -0.141063D-02 -0.211003D-01 -0.269394D-01  0.609886D-02
     21 -0.179428D-02  0.777966D-02  0.729591D-02 -0.354421D-02 -0.305013D-01
               16            17            18            19            20 
     16  0.549028D-01
     17 -0.405323D-02  0.471547D-01
     18 -0.160088D-02  0.600875D-02  0.884636D-01
     19 -0.119336D-01  0.459111D-02  0.996988D-02  0.634783D-01
     20  0.485323D-02 -0.813019D-02 -0.708698D-02 -0.139016D-01  0.427985D-01
     21 -0.149129D-01  0.384165D-02 -0.169498D-01 -0.234764D-02  0.604312D-02
               21 
     21  0.462326D-01
 Leave Link  716 at Sun Dec  3 17:34:54 2023, MaxMem=  1879048192 cpu:               0.4 elap:               0.0
 (Enter /home/sekinelabo/g16/l103.exe)

 GradGradGradGradGradGradGradGradGradGradGradGradGradGradGradGradGradGrad
 Berny optimization.
 Search for a local minimum.
 Step number   1 out of a maximum of    2
 All quantities printed in internal units (Hartrees-Bohrs-Radians)
 Second derivative matrix not updated -- first step.
 ITU=  0
     Eigenvalues ---    0.04678   0.05592   0.05818   0.07063   0.08551
     Eigenvalues ---    0.08716   0.09319   0.11156   0.12442   0.13863
     Eigenvalues ---    0.14696   0.16180   0.17455   0.19041   0.22355
 Angle between quadratic step and forces=  30.56 degrees.
 Linear search not attempted -- first point.
 B after Tr=     0.000000   -0.000000    0.000000
         Rot=    1.000000    0.000000   -0.000000   -0.000000 Ang=   0.00 deg.
 Variable       Old X    -DE/DX   Delta X   Delta X   Delta X     New X
                                 (Linear)    (Quad)   (Total)
    X1       26.88891   0.00111   0.00000   0.00968   0.00968  26.89859
    Y1       25.15490  -0.00236   0.00000  -0.03706  -0.03706  25.11784
    Z1       27.53331   0.00162   0.00000   0.01923   0.01923  27.55254
    X2       19.85875  -0.00033   0.00000  -0.01335  -0.01335  19.84541
    Y2       24.29583   0.00211   0.00000   0.02932   0.02932  24.32515
    Z2       28.10627  -0.00033   0.00000  -0.00682  -0.00682  28.09945
    X3       23.74044  -0.00096   0.00000  -0.00162  -0.00162  23.73882
    Y3       27.04236   0.00122   0.00000  -0.00269  -0.00269  27.03967
    Z3       22.85945  -0.00266   0.00000  -0.01702  -0.01702  22.84243
    X4       18.34654  -0.00141   0.00000  -0.01547  -0.01547  18.33107
    Y4       23.84986   0.00061   0.00000   0.00547   0.00547  23.85532
    Z4       21.20216  -0.00004   0.00000   0.00090   0.00090  21.20306
    X5       22.91746  -0.00020   0.00000  -0.00142  -0.00142  22.91604
    Y5       20.81968  -0.00341   0.00000  -0.01622  -0.01622  20.80346
    Z5       24.28204  -0.00036   0.00000  -0.00226  -0.00226  24.27978
    X6       23.71304   0.00045   0.00000  -0.00355  -0.00355  23.70949
    Y6       22.53650  -0.00019   0.00000  -0.01335  -0.01335  22.52315
    Z6       17.60391   0.00267   0.00000   0.02217   0.02217  17.62608
    X7       28.52901   0.00135   0.00000   0.02573   0.02573  28.55474
    Y7       20.29528   0.00201   0.00000   0.03451   0.03451  20.32979
    Z7       22.40705  -0.00090   0.00000  -0.01621  -0.01621  22.39084
         Item               Value     Threshold  Converged?
 Maximum Force            0.003408     0.000450     NO 
 RMS     Force            0.001569     0.000300     NO 
 Maximum Displacement     0.037056     0.001800     NO 
 RMS     Displacement     0.017673     0.001200     NO 
 Predicted change in Energy=-2.507503D-04
 GradGradGradGradGradGradGradGradGradGradGradGradGradGradGradGradGradGrad

 Leave Link  103 at Sun Dec  3 17:34:54 2023, MaxMem=  1879048192 cpu:               0.2 elap:               0.0
 (Enter /home/sekinelabo/g16/l9999.exe)
 1\1\GINC-SEKINELABO-XA7R-R37\Force\UB3LYP\6-311+G(d)\Na7(2)\SEKINELABO
 \03-Dec-2023\0\\#P B3LYP/6-311+g(d) force\\DPGEN\\0,2\Na,14.229,13.311
 4,14.57\Na,10.5088,12.8568,14.8732\Na,12.5629,14.3102,12.0967\Na,9.708
 57,12.6208,11.2197\Na,12.1274,11.0173,12.8495\Na,12.5484,11.9258,9.315
 59\Na,15.0969,10.7398,11.8573\\Version=ES64L-G16RevB.01\State=2-A\HF=-
 1136.1364981\S2=0.76446\S2-1=0.\S2A=0.75015\RMSD=7.519e-09\RMSF=1.569e
 -03\Dipole=-0.0388499,0.0862793,-0.0178076\Quadrupole=2.3745339,-6.060
 0264,3.6854926,-1.8389564,-0.3321077,2.4148777\PG=C01 [X(Na7)]\\@


 EVERYTHING'S GOT A MORAL, IF ONLY YOU CAN FIND IT.

                                    -- LEWIS CARROL, ALICE IN WONDERLAND
 Job cpu time:       0 days  0 hours  3 minutes 42.3 seconds.
 Elapsed time:       0 days  0 hours  0 minutes 18.8 seconds.
 File lengths (MBytes):  RWF=     32 Int=      0 D2E=      0 Chk=      4 Scr=      1
 Normal termination of Gaussian 16 at Sun Dec  3 17:34:54 2023.
