
7 atoms
1 atom types
   0.0000000000   24.5826847588 xlo xhi
   0.0000000000   24.5826847588 ylo yhi
   0.0000000000   24.5826847588 zlo zhi
   0.0000000000    0.0000000000    0.0000000000 xy xz yz

Atoms # atomic

     1      1   11.9225830937   11.8315079508   13.8444720937
     2      1   11.9883510937   11.8803159508   10.7485100937
     3      1   14.0298090937   10.4994539508   12.3181850937
     4      1   15.5002860937   13.0224179508   12.2575280937
     5      1   12.7466690937   13.9939169508   12.3462840937
     6      1    9.8375160937   11.0374609508   12.2380970937
     7      1   10.0141820937   13.7743229508   12.2863200937
