
7 atoms
1 atom types
   0.0000000000   26.8724845150 xlo xhi
   0.0000000000   26.8724845150 ylo yhi
   0.0000000000   26.8724845150 zlo zhi
   0.0000000000    0.0000000000    0.0000000000 xy xz yz

Atoms # atomic

     1      1   13.6346544003   13.0663844003   11.4870465432
     2      1   13.8704074003   11.1703554003   13.7939145432
     3      1   16.5737434003   12.3575024003   14.3303185432
     4      1   15.6786694003   14.8045914003   12.8392215432
     5      1   13.3235134003   16.1380724003   14.1355205432
     6      1   11.9543734003   13.4724904003   13.9380705432
     7      1    9.0183344003   13.0442994003   13.5296035432
