
7 atoms
1 atom types
   0.0000000000   25.8537551122 xlo xhi
   0.0000000000   25.8537551122 ylo yhi
   0.0000000000   25.8537551122 zlo zhi
   0.0000000000    0.0000000000    0.0000000000 xy xz yz

Atoms # atomic

     1      1   14.1050436989   14.2592059847   13.3637146989
     2      1   12.3171976989   13.6978809847   11.0214536989
     3      1   11.1671286989   14.8424119847   13.5403646989
     4      1    9.6115786989   12.2807509847   13.7217456989
     5      1   11.8880196989   10.9875099847   12.2508786989
     6      1   14.5506066989   11.3012479847   13.6018636989
     7      1   16.8485676989   13.1191349847   12.9881216989
