
7 atoms
1 atom types
   0.0000000000   23.9804758242 xlo xhi
   0.0000000000   23.9804758242 ylo yhi
   0.0000000000   23.9804758242 zlo zhi
   0.0000000000    0.0000000000    0.0000000000 xy xz yz

Atoms # atomic

     1      1   11.4638704836   12.7723777693   13.4044164836
     2      1   11.4587604836   12.8267677693   10.6055784836
     3      1    9.0122754836   12.2607627693   11.9991174836
     4      1   11.1259844836   10.3139347693   11.9588294836
     5      1   13.5077684836   11.1195857693   10.5716264836
     6      1   13.5138134836   11.0609987693   13.3725344836
     7      1   13.8491924836   13.5772377693   12.0195624836
