
7 atoms
1 atom types
   0.0000000000   25.7753528427 xlo xhi
   0.0000000000   25.7753528427 ylo yhi
   0.0000000000   25.7753528427 zlo zhi
   0.0000000000    0.0000000000    0.0000000000 xy xz yz

Atoms # atomic

     1      1   12.2529992785   15.4814288499   13.6210747071
     2      1    9.7267742785   14.4348128499   12.3865627071
     3      1   10.6150422785   10.0132378499   14.0384947071
     4      1   11.1878342785   11.8855248499   11.7681897071
     5      1   13.8052692785   13.1568448499   12.5247607071
     6      1   16.4571972785   12.2077178499   11.5055747071
     7      1   16.1686182785   13.0341678499   14.3690777071
