
7 atoms
1 atom types
   0.0000000000   24.3864773857 xlo xhi
   0.0000000000   24.3864773857 ylo yhi
   0.0000000000   24.3864773857 zlo zhi
   0.0000000000    0.0000000000    0.0000000000 xy xz yz

Atoms # atomic

     1      1   12.0734266929   11.3612379786   13.4417122643
     2      1   12.2509886929   14.3106169786   13.9153942643
     3      1   14.4067616929    9.9688529786   12.1738482643
     4      1   14.2475316929   12.9566189786   12.1252122643
     5      1   12.4449776929   13.1840019786    9.7304042643
     6      1   10.3332586929   13.2329509786   11.8689832643
     7      1    9.5957256929   10.3383909786   12.0971162643
