
7 atoms
1 atom types
   0.0000000000   28.6435405982 xlo xhi
   0.0000000000   28.6435405982 ylo yhi
   0.0000000000   28.6435405982 zlo zhi
   0.0000000000    0.0000000000    0.0000000000 xy xz yz

Atoms # atomic

     1      1   15.6467098705   14.9707887277   12.3639654420
     2      1   16.5123618705   12.2421717277   13.2727814420
     3      1   17.0843918705   13.3427437277   16.0064154420
     4      1   16.5251668705   16.1127687277   14.9951564420
     5      1   13.6077478705   15.9765567277   14.3180734420
     6      1   11.8608378705   13.6670957277   15.0997274420
     7      1    9.0151758705   13.9402667277   14.1962724420
