
7 atoms
1 atom types
   0.0000000000   26.9450466822 xlo xhi
   0.0000000000   26.9450466822 ylo yhi
   0.0000000000   26.9450466822 zlo zhi
   0.0000000000    0.0000000000    0.0000000000 xy xz yz

Atoms # atomic

     1      1   14.7966440554   13.6162910554   12.2297486268
     2      1    9.0269820554   13.0635390554   13.2016736268
     3      1   10.6132620554   15.3512510554   14.3214746268
     4      1   12.0234880554   12.9614710554   13.1817636268
     5      1   14.2883690554   11.0634600554   13.7148926268
     6      1   16.6830960554   12.7389570554   14.3906106268
     7      1   16.8758220554   15.5126940554   13.2674996268
