
7 atoms
1 atom types
   0.0000000000   25.9128275408 xlo xhi
   0.0000000000   25.9128275408 ylo yhi
   0.0000000000   25.9128275408 zlo zhi
   0.0000000000    0.0000000000    0.0000000000 xy xz yz

Atoms # atomic

     1      1   16.0218053418   13.9021874847   11.8836907704
     2      1   10.6264993418   11.3343874847   12.3286197704
     3      1    9.1952653418   13.2450784847   14.1495797704
     4      1   10.9233853418   14.2867664847   11.9303297704
     5      1   13.3614493418   12.5762944847   12.3024397704
     6      1   14.7285333418   13.9594034847   14.5887967704
     7      1   15.8379583418   11.3907784847   13.5114397704
