 Set GAUSS_MDEF to "14GB".
 Entering Gaussian System, Link 0=g16
 Initial command:
 /home/sekinelabo/g16/l1.exe "/home/sekinelabo/g16temp/Gau-98522.inp" -scrdir="/home/sekinelabo/g16temp/"
 Entering Link 1 = /home/sekinelabo/g16/l1.exe PID=     98524.
  
 Copyright (c) 1988-2017, Gaussian, Inc.  All Rights Reserved.
  
 This is part of the Gaussian(R) 16 program.  It is based on
 the Gaussian(R) 09 system (copyright 2009, Gaussian, Inc.),
 the Gaussian(R) 03 system (copyright 2003, Gaussian, Inc.),
 the Gaussian(R) 98 system (copyright 1998, Gaussian, Inc.),
 the Gaussian(R) 94 system (copyright 1995, Gaussian, Inc.),
 the Gaussian 92(TM) system (copyright 1992, Gaussian, Inc.),
 the Gaussian 90(TM) system (copyright 1990, Gaussian, Inc.),
 the Gaussian 88(TM) system (copyright 1988, Gaussian, Inc.),
 the Gaussian 86(TM) system (copyright 1986, Carnegie Mellon
 University), and the Gaussian 82(TM) system (copyright 1983,
 Carnegie Mellon University). Gaussian is a federally registered
 trademark of Gaussian, Inc.
  
 This software contains proprietary and confidential information,
 including trade secrets, belonging to Gaussian, Inc.
  
 This software is provided under written license and may be
 used, copied, transmitted, or stored only in accord with that
 written license.
  
 The following legend is applicable only to US Government
 contracts under FAR:
  
                    RESTRICTED RIGHTS LEGEND
  
 Use, reproduction and disclosure by the US Government is
 subject to restrictions as set forth in subparagraphs (a)
 and (c) of the Commercial Computer Software - Restricted
 Rights clause in FAR 52.227-19.
  
 Gaussian, Inc.
 340 Quinnipiac St., Bldg. 40, Wallingford CT 06492
  
  
 ---------------------------------------------------------------
 Warning -- This program may not be used in any manner that
 competes with the business of Gaussian, Inc. or will provide
 assistance to any competitor of Gaussian, Inc.  The licensee
 of this program is prohibited from giving any competitor of
 Gaussian, Inc. access to this program.  By using this program,
 the user acknowledges that Gaussian, Inc. is engaged in the
 business of creating and licensing software in the field of
 computational chemistry and represents and warrants to the
 licensee that it is not a competitor of Gaussian, Inc. and that
 it will not use this program in any manner prohibited above.
 ---------------------------------------------------------------
  

 Cite this work as:
 Gaussian 16, Revision B.01,
 M. J. Frisch, G. W. Trucks, H. B. Schlegel, G. E. Scuseria, 
 M. A. Robb, J. R. Cheeseman, G. Scalmani, V. Barone, 
 G. A. Petersson, H. Nakatsuji, X. Li, M. Caricato, A. V. Marenich, 
 J. Bloino, B. G. Janesko, R. Gomperts, B. Mennucci, H. P. Hratchian, 
 J. V. Ortiz, A. F. Izmaylov, J. L. Sonnenberg, D. Williams-Young, 
 F. Ding, F. Lipparini, F. Egidi, J. Goings, B. Peng, A. Petrone, 
 T. Henderson, D. Ranasinghe, V. G. Zakrzewski, J. Gao, N. Rega, 
 G. Zheng, W. Liang, M. Hada, M. Ehara, K. Toyota, R. Fukuda, 
 J. Hasegawa, M. Ishida, T. Nakajima, Y. Honda, O. Kitao, H. Nakai, 
 T. Vreven, K. Throssell, J. A. Montgomery, Jr., J. E. Peralta, 
 F. Ogliaro, M. J. Bearpark, J. J. Heyd, E. N. Brothers, K. N. Kudin, 
 V. N. Staroverov, T. A. Keith, R. Kobayashi, J. Normand, 
 K. Raghavachari, A. P. Rendell, J. C. Burant, S. S. Iyengar, 
 J. Tomasi, M. Cossi, J. M. Millam, M. Klene, C. Adamo, R. Cammi, 
 J. W. Ochterski, R. L. Martin, K. Morokuma, O. Farkas, 
 J. B. Foresman, and D. J. Fox, Gaussian, Inc., Wallingford CT, 2016.
 
 ******************************************
 Gaussian 16:  ES64L-G16RevB.01 20-Dec-2017
                 5-Dec-2023 
 ******************************************
 %nproc=15
 Will use up to   15 processors via shared memory.
 -------------------------
 #P B3LYP/6-311+g(d) force
 -------------------------
 1/10=7,30=1,38=1/1,3;
 2/12=2,17=6,18=5,40=1/2;
 3/5=4,6=6,7=11,11=2,25=1,30=1,71=1,74=-5/1,2,3;
 4//1;
 5/5=2,38=5/2;
 6/7=2,8=2,9=2,10=2,28=1/1;
 7/29=1/1,2,3,16;
 1/10=7,30=1/3;
 99//99;
 Leave Link    1 at Tue Dec  5 12:12:09 2023, MaxMem=           0 cpu:               0.2 elap:               0.0
 (Enter /home/sekinelabo/g16/l101.exe)
 -----
 DPGEN
 -----
 Symbolic Z-matrix:
 Charge =  0 Multiplicity = 2
 Na                    9.10357   11.2326   10.8706 
 Na                    9.65384   11.9561   13.8206 
 Na                    12.1532   9.55252   12.3157 
 Na                    14.2899   11.7131   10.4497 
 Na                    13.7096   11.9071   14.3255 
 Na                    11.5798   13.7048   11.4591 
 Na                    11.4786   11.9023   8.72731 
 
 ITRead=  0  0  0  0  0  0  0
 MicOpt= -1 -1 -1 -1 -1 -1 -1
 NAtoms=      7 NQM=        7 NQMF=       0 NMMI=      0 NMMIF=      0
                NMic=       0 NMicF=      0.
                    Isotopes and Nuclear Properties:
 (Nuclear quadrupole moments (NQMom) in fm**2, nuclear magnetic moments (NMagM)
  in nuclear magnetons)

  Atom         1           2           3           4           5           6           7
 IAtWgt=          23          23          23          23          23          23          23
 AtmWgt=  22.9897697  22.9897697  22.9897697  22.9897697  22.9897697  22.9897697  22.9897697
 NucSpn=           3           3           3           3           3           3           3
 AtZEff=  -0.0000000  -0.0000000  -0.0000000  -0.0000000  -0.0000000  -0.0000000  -0.0000000
 NQMom=   10.4000000  10.4000000  10.4000000  10.4000000  10.4000000  10.4000000  10.4000000
 NMagM=    2.2175200   2.2175200   2.2175200   2.2175200   2.2175200   2.2175200   2.2175200
 AtZNuc=  11.0000000  11.0000000  11.0000000  11.0000000  11.0000000  11.0000000  11.0000000
 Leave Link  101 at Tue Dec  5 12:12:09 2023, MaxMem=  1879048192 cpu:               2.3 elap:               0.2
 (Enter /home/sekinelabo/g16/l103.exe)

 GradGradGradGradGradGradGradGradGradGradGradGradGradGradGradGradGradGrad
 Berny optimization.
 Initialization pass.
 Trust Radius=3.00D-01 FncErr=1.00D-07 GrdErr=1.00D-07 EigMax=2.50D+02 EigMin=1.00D-04
 Number of steps in this run=      2 maximum allowed number of steps=      2.
 GradGradGradGradGradGradGradGradGradGradGradGradGradGradGradGradGradGrad

 Leave Link  103 at Tue Dec  5 12:12:09 2023, MaxMem=  1879048192 cpu:               0.3 elap:               0.0
 (Enter /home/sekinelabo/g16/l202.exe)
                          Input orientation:                          
 ---------------------------------------------------------------------
 Center     Atomic      Atomic             Coordinates (Angstroms)
 Number     Number       Type             X           Y           Z
 ---------------------------------------------------------------------
      1         11           0        9.103570   11.232600   10.870600
      2         11           0        9.653840   11.956100   13.820600
      3         11           0       12.153200    9.552520   12.315700
      4         11           0       14.289900   11.713100   10.449700
      5         11           0       13.709600   11.907100   14.325500
      6         11           0       11.579800   13.704800   11.459100
      7         11           0       11.478600   11.902300    8.727310
 ---------------------------------------------------------------------
                    Distance matrix (angstroms):
                    1          2          3          4          5
     1  Na   0.000000
     2  Na   3.086867   0.000000
     3  Na   3.769778   3.780042   0.000000
     4  Na   5.225520   5.737166   3.565887   0.000000
     5  Na   5.797137   4.087360   3.464928   3.923800   0.000000
     6  Na   3.548214   3.513397   4.278315   3.511467   3.998002
     7  Na   3.268479   5.410568   4.342015   3.302398   6.026368
                    6          7
     6  Na   0.000000
     7  Na   3.274435   0.000000
 Stoichiometry    Na7(2)
 Framework group  C1[X(Na7)]
 Deg. of freedom    15
 Full point group                 C1      NOp   1
 Largest Abelian subgroup         C1      NOp   1
 Largest concise Abelian subgroup C1      NOp   1
                         Standard orientation:                         
 ---------------------------------------------------------------------
 Center     Atomic      Atomic             Coordinates (Angstroms)
 Number     Number       Type             X           Y           Z
 ---------------------------------------------------------------------
      1         11           0       -1.963773    1.889498    0.545627
      2         11           0        0.833637    2.811648   -0.377891
      3         11           0        0.875983   -0.034571    2.109268
      4         11           0        0.147312   -2.866770    0.068867
      5         11           0        3.238850   -0.493112   -0.383185
      6         11           0       -0.404285   -0.063673   -1.972894
      7         11           0       -2.727724   -1.243020    0.010209
 ---------------------------------------------------------------------
 Rotational constants (GHZ):           0.7226196           0.6791520           0.4893554
 Leave Link  202 at Tue Dec  5 12:12:09 2023, MaxMem=  1879048192 cpu:               0.0 elap:               0.0
 (Enter /home/sekinelabo/g16/l301.exe)
 Standard basis: 6-311+G(d) (5D, 7F)
 Ernie: Thresh=  0.10000D-02 Tol=  0.10000D-05 Strict=F.
 There are   217 symmetry adapted cartesian basis functions of A   symmetry.
 There are   210 symmetry adapted basis functions of A   symmetry.
   210 basis functions,   350 primitive gaussians,   217 cartesian basis functions
    39 alpha electrons       38 beta electrons
       nuclear repulsion energy       338.7734398577 Hartrees.
 IExCor=  402 DFT=T Ex+Corr=B3LYP ExCW=0 ScaHFX=  0.200000
 ScaDFX=  0.800000  0.720000  1.000000  0.810000 ScalE2=  1.000000  1.000000
 IRadAn=      5 IRanWt=     -1 IRanGd=            0 ICorTp=0 IEmpDi=  4
 NAtoms=    7 NActive=    7 NUniq=    7 SFac= 1.00D+00 NAtFMM=   60 NAOKFM=F Big=F
 Integral buffers will be    131072 words long.
 Raffenetti 2 integral format.
 Two-electron integral symmetry is turned on.
 Leave Link  301 at Tue Dec  5 12:12:09 2023, MaxMem=  1879048192 cpu:               0.5 elap:               0.0
 (Enter /home/sekinelabo/g16/l302.exe)
 NPDir=0 NMtPBC=     1 NCelOv=     1 NCel=       1 NClECP=     1 NCelD=      1
         NCelK=      1 NCelE2=     1 NClLst=     1 CellRange=     0.0.
 One-electron integrals computed using PRISM.
 One-electron integral symmetry used in STVInt
 NBasis=   210 RedAO= T EigKep=  4.22D-06  NBF=   210
 NBsUse=   210 1.00D-06 EigRej= -1.00D+00 NBFU=   210
 Precomputing XC quadrature grid using
 IXCGrd= 4 IRadAn=           5 IRanWt=          -1 IRanGd=           0 AccXCQ= 0.00D+00.
 Generated NRdTot=       0 NPtTot=           0 NUsed=           0 NTot=          32
 NSgBfM=   211   211   211   211   211 MxSgAt=     7 MxSgA2=     7.
 Leave Link  302 at Tue Dec  5 12:12:09 2023, MaxMem=  1879048192 cpu:               2.0 elap:               0.1
 (Enter /home/sekinelabo/g16/l303.exe)
 DipDrv:  MaxL=1.
 Leave Link  303 at Tue Dec  5 12:12:09 2023, MaxMem=  1879048192 cpu:               0.5 elap:               0.0
 (Enter /home/sekinelabo/g16/l401.exe)
 ExpMin= 7.60D-03 ExpMax= 3.62D+04 ExpMxC= 1.21D+03 IAcc=3 IRadAn=         5 AccDes= 0.00D+00
 Harris functional with IExCor=  402 and IRadAn=       5 diagonalized for initial guess.
 HarFok:  IExCor=  402 AccDes= 0.00D+00 IRadAn=         5 IDoV= 1 UseB2=F ITyADJ=14
 ICtDFT=  3500011 ScaDFX=  1.000000  1.000000  1.000000  1.000000
 FoFCou: FMM=F IPFlag=           0 FMFlag=      100000 FMFlg1=           0
         NFxFlg=           0 DoJE=T BraDBF=F KetDBF=T FulRan=T
         wScrn=  0.000000 ICntrl=       500 IOpCl=  0 I1Cent=   200000004 NGrid=           0
         NMat0=    1 NMatS0=      1 NMatT0=    0 NMatD0=    1 NMtDS0=    0 NMtDT0=    0
 Petite list used in FoFCou.
 Harris En= -1135.90504573327    
 JPrj=0 DoOrth=F DoCkMO=F.
 Initial guess <Sx>= 0.0000 <Sy>= 0.0000 <Sz>= 0.5000 <S**2>= 0.7500 S= 0.5000
 Leave Link  401 at Tue Dec  5 12:12:10 2023, MaxMem=  1879048192 cpu:               4.4 elap:               0.3
 (Enter /home/sekinelabo/g16/l502.exe)
 Keep R1 and R2 ints in memory in canonical form, NReq=506573307.
 FoFCou: FMM=F IPFlag=           0 FMFlag=           0 FMFlg1=           0
         NFxFlg=           0 DoJE=F BraDBF=F KetDBF=F FulRan=T
         wScrn=  0.000000 ICntrl=       600 IOpCl=  0 I1Cent=           0 NGrid=           0
         NMat0=    1 NMatS0=  22155 NMatT0=    0 NMatD0=    1 NMtDS0=    0 NMtDT0=    0
 Symmetry not used in FoFCou.
 Two-electron integral symmetry not used.
 UHF open shell SCF:
 Using DIIS extrapolation, IDIIS=  1040.
 NGot=  1879048192 LenX=  1388082593 LenY=  1388035063
 Requested convergence on RMS density matrix=1.00D-08 within 128 cycles.
 Requested convergence on MAX density matrix=1.00D-06.
 Requested convergence on             energy=1.00D-06.
 No special actions if energy rises.

 Cycle   1  Pass 1  IDiag  1:
 E= -1136.10064728469    
 DIIS: error= 1.21D-02 at cycle   1 NSaved=   1.
 NSaved= 1 IEnMin= 1 EnMin= -1136.10064728469     IErMin= 1 ErrMin= 1.21D-02
 ErrMax= 1.21D-02  0.00D+00 EMaxC= 1.00D-01 BMatC= 1.92D-01 BMatP= 1.92D-01
 IDIUse=3 WtCom= 8.79D-01 WtEn= 1.21D-01
 Coeff-Com:  0.100D+01
 Coeff-En:   0.100D+01
 Coeff:      0.100D+01
 Gap=     0.042 Goal=   None    Shift=    0.000
 Gap=     0.053 Goal=   None    Shift=    0.000
 GapD=    0.042 DampG=0.250 DampE=0.500 DampFc=0.2500 IDamp=-1.
 Damping current iteration by 2.50D-01
 RMSDP=1.89D-02 MaxDP=1.21D+00              OVMax= 2.18D-01

 Cycle   2  Pass 1  IDiag  1:
 E= -1136.11279413445     Delta-E=       -0.012146849770 Rises=F Damp=T
 DIIS: error= 8.51D-03 at cycle   2 NSaved=   2.
 NSaved= 2 IEnMin= 2 EnMin= -1136.11279413445     IErMin= 2 ErrMin= 8.51D-03
 ErrMax= 8.51D-03  0.00D+00 EMaxC= 1.00D-01 BMatC= 7.32D-02 BMatP= 1.92D-01
 IDIUse=3 WtCom= 9.15D-01 WtEn= 8.51D-02
 Coeff-Com: -0.128D+01 0.228D+01
 Coeff-En:   0.000D+00 0.100D+01
 Coeff:     -0.117D+01 0.217D+01
 Gap=     0.056 Goal=   None    Shift=    0.000
 Gap=     0.053 Goal=   None    Shift=    0.000
 RMSDP=1.06D-02 MaxDP=7.28D-01 DE=-1.21D-02 OVMax= 1.62D-01

 Cycle   3  Pass 1  IDiag  1:
 E= -1136.13323864603     Delta-E=       -0.020444511577 Rises=F Damp=F
 DIIS: error= 2.92D-03 at cycle   3 NSaved=   3.
 NSaved= 3 IEnMin= 3 EnMin= -1136.13323864603     IErMin= 3 ErrMin= 2.92D-03
 ErrMax= 2.92D-03  0.00D+00 EMaxC= 1.00D-01 BMatC= 2.48D-03 BMatP= 7.32D-02
 IDIUse=3 WtCom= 9.71D-01 WtEn= 2.92D-02
 Coeff-Com: -0.174D+00 0.317D+00 0.857D+00
 Coeff-En:   0.000D+00 0.000D+00 0.100D+01
 Coeff:     -0.169D+00 0.308D+00 0.861D+00
 Gap=     0.052 Goal=   None    Shift=    0.000
 Gap=     0.055 Goal=   None    Shift=    0.000
 RMSDP=4.42D-03 MaxDP=3.74D-01 DE=-2.04D-02 OVMax= 1.32D-01

 Cycle   4  Pass 1  IDiag  1:
 E= -1136.12907191311     Delta-E=        0.004166732922 Rises=F Damp=F
 DIIS: error= 5.05D-03 at cycle   4 NSaved=   4.
 NSaved= 4 IEnMin= 3 EnMin= -1136.13323864603     IErMin= 3 ErrMin= 2.92D-03
 ErrMax= 5.05D-03  0.00D+00 EMaxC= 1.00D-01 BMatC= 5.52D-03 BMatP= 2.48D-03
 IDIUse=3 WtCom= 1.23D-01 WtEn= 8.77D-01
 Coeff-Com:  0.111D-01-0.120D-01 0.602D+00 0.399D+00
 Coeff-En:   0.000D+00 0.000D+00 0.676D+00 0.324D+00
 Coeff:      0.137D-02-0.148D-02 0.667D+00 0.333D+00
 Gap=     0.053 Goal=   None    Shift=    0.000
 Gap=     0.052 Goal=   None    Shift=    0.000
 RMSDP=1.37D-03 MaxDP=1.14D-01 DE= 4.17D-03 OVMax= 7.36D-02

 Cycle   5  Pass 1  IDiag  1:
 E= -1136.13572301401     Delta-E=       -0.006651100899 Rises=F Damp=F
 DIIS: error= 8.09D-04 at cycle   5 NSaved=   5.
 NSaved= 5 IEnMin= 5 EnMin= -1136.13572301401     IErMin= 5 ErrMin= 8.09D-04
 ErrMax= 8.09D-04  0.00D+00 EMaxC= 1.00D-01 BMatC= 2.08D-04 BMatP= 2.48D-03
 IDIUse=3 WtCom= 9.92D-01 WtEn= 8.09D-03
 Coeff-Com:  0.400D-03-0.122D-02 0.319D+00 0.121D+00 0.560D+00
 Coeff-En:   0.000D+00 0.000D+00 0.623D-02 0.000D+00 0.994D+00
 Coeff:      0.397D-03-0.121D-02 0.317D+00 0.120D+00 0.564D+00
 Gap=     0.054 Goal=   None    Shift=    0.000
 Gap=     0.052 Goal=   None    Shift=    0.000
 RMSDP=4.70D-04 MaxDP=2.27D-02 DE=-6.65D-03 OVMax= 1.09D-02

 Cycle   6  Pass 1  IDiag  1:
 E= -1136.13588692344     Delta-E=       -0.000163909432 Rises=F Damp=F
 DIIS: error= 9.93D-05 at cycle   6 NSaved=   6.
 NSaved= 6 IEnMin= 6 EnMin= -1136.13588692344     IErMin= 6 ErrMin= 9.93D-05
 ErrMax= 9.93D-05  0.00D+00 EMaxC= 1.00D-01 BMatC= 2.47D-06 BMatP= 2.08D-04
 IDIUse=1 WtCom= 1.00D+00 WtEn= 0.00D+00
 Coeff-Com: -0.397D-02 0.495D-02-0.129D-01-0.277D-01 0.106D+00 0.934D+00
 Coeff:     -0.397D-02 0.495D-02-0.129D-01-0.277D-01 0.106D+00 0.934D+00
 Gap=     0.054 Goal=   None    Shift=    0.000
 Gap=     0.052 Goal=   None    Shift=    0.000
 RMSDP=2.38D-04 MaxDP=2.42D-02 DE=-1.64D-04 OVMax= 2.48D-03

 Cycle   7  Pass 1  IDiag  1:
 E= -1136.13588982401     Delta-E=       -0.000002900572 Rises=F Damp=F
 DIIS: error= 6.25D-05 at cycle   7 NSaved=   7.
 NSaved= 7 IEnMin= 7 EnMin= -1136.13588982401     IErMin= 7 ErrMin= 6.25D-05
 ErrMax= 6.25D-05  0.00D+00 EMaxC= 1.00D-01 BMatC= 9.83D-07 BMatP= 2.47D-06
 IDIUse=1 WtCom= 1.00D+00 WtEn= 0.00D+00
 Coeff-Com: -0.222D-02 0.277D-02-0.268D-01-0.238D-01 0.300D-01 0.538D+00
 Coeff-Com:  0.482D+00
 Coeff:     -0.222D-02 0.277D-02-0.268D-01-0.238D-01 0.300D-01 0.538D+00
 Coeff:      0.482D+00
 Gap=     0.054 Goal=   None    Shift=    0.000
 Gap=     0.052 Goal=   None    Shift=    0.000
 RMSDP=7.49D-05 MaxDP=1.49D-02 DE=-2.90D-06 OVMax= 1.13D-03

 Cycle   8  Pass 1  IDiag  1:
 E= -1136.13589106059     Delta-E=       -0.000001236582 Rises=F Damp=F
 DIIS: error= 1.55D-05 at cycle   8 NSaved=   8.
 NSaved= 8 IEnMin= 8 EnMin= -1136.13589106059     IErMin= 8 ErrMin= 1.55D-05
 ErrMax= 1.55D-05  0.00D+00 EMaxC= 1.00D-01 BMatC= 7.73D-08 BMatP= 9.83D-07
 IDIUse=1 WtCom= 1.00D+00 WtEn= 0.00D+00
 Coeff-Com:  0.751D-03-0.979D-03-0.433D-02 0.123D-02-0.211D-01-0.126D+00
 Coeff-Com:  0.134D+00 0.102D+01
 Coeff:      0.751D-03-0.979D-03-0.433D-02 0.123D-02-0.211D-01-0.126D+00
 Coeff:      0.134D+00 0.102D+01
 Gap=     0.054 Goal=   None    Shift=    0.000
 Gap=     0.052 Goal=   None    Shift=    0.000
 RMSDP=3.81D-05 MaxDP=3.43D-03 DE=-1.24D-06 OVMax= 8.46D-04

 Cycle   9  Pass 1  IDiag  1:
 E= -1136.13589130994     Delta-E=       -0.000000249347 Rises=F Damp=F
 DIIS: error= 1.06D-05 at cycle   9 NSaved=   9.
 NSaved= 9 IEnMin= 9 EnMin= -1136.13589130994     IErMin= 9 ErrMin= 1.06D-05
 ErrMax= 1.06D-05  0.00D+00 EMaxC= 1.00D-01 BMatC= 1.78D-08 BMatP= 7.73D-08
 IDIUse=1 WtCom= 1.00D+00 WtEn= 0.00D+00
 Coeff-Com:  0.521D-03-0.668D-03-0.549D-04 0.248D-02-0.123D-01-0.934D-01
 Coeff-Com:  0.843D-02 0.408D+00 0.687D+00
 Coeff:      0.521D-03-0.668D-03-0.549D-04 0.248D-02-0.123D-01-0.934D-01
 Coeff:      0.843D-02 0.408D+00 0.687D+00
 Gap=     0.055 Goal=   None    Shift=    0.000
 Gap=     0.052 Goal=   None    Shift=    0.000
 RMSDP=7.86D-06 MaxDP=6.06D-04 DE=-2.49D-07 OVMax= 3.46D-04

 Cycle  10  Pass 1  IDiag  1:
 E= -1136.13589135090     Delta-E=       -0.000000040964 Rises=F Damp=F
 DIIS: error= 8.09D-06 at cycle  10 NSaved=  10.
 NSaved=10 IEnMin=10 EnMin= -1136.13589135090     IErMin=10 ErrMin= 8.09D-06
 ErrMax= 8.09D-06  0.00D+00 EMaxC= 1.00D-01 BMatC= 1.18D-08 BMatP= 1.78D-08
 IDIUse=1 WtCom= 1.00D+00 WtEn= 0.00D+00
 Coeff-Com:  0.127D-03-0.156D-03 0.133D-02 0.141D-02-0.239D-02-0.225D-01
 Coeff-Com: -0.385D-01-0.514D-01 0.490D+00 0.622D+00
 Coeff:      0.127D-03-0.156D-03 0.133D-02 0.141D-02-0.239D-02-0.225D-01
 Coeff:     -0.385D-01-0.514D-01 0.490D+00 0.622D+00
 Gap=     0.055 Goal=   None    Shift=    0.000
 Gap=     0.052 Goal=   None    Shift=    0.000
 RMSDP=6.25D-06 MaxDP=3.53D-04 DE=-4.10D-08 OVMax= 3.03D-04

 Cycle  11  Pass 1  IDiag  1:
 E= -1136.13589138212     Delta-E=       -0.000000031217 Rises=F Damp=F
 DIIS: error= 3.10D-06 at cycle  11 NSaved=  11.
 NSaved=11 IEnMin=11 EnMin= -1136.13589138212     IErMin=11 ErrMin= 3.10D-06
 ErrMax= 3.10D-06  0.00D+00 EMaxC= 1.00D-01 BMatC= 2.03D-09 BMatP= 1.18D-08
 IDIUse=1 WtCom= 1.00D+00 WtEn= 0.00D+00
 Coeff-Com: -0.167D-03 0.220D-03 0.812D-03-0.352D-03 0.393D-02 0.298D-01
 Coeff-Com: -0.167D-01-0.196D+00-0.146D+00 0.226D+00 0.110D+01
 Coeff:     -0.167D-03 0.220D-03 0.812D-03-0.352D-03 0.393D-02 0.298D-01
 Coeff:     -0.167D-01-0.196D+00-0.146D+00 0.226D+00 0.110D+01
 Gap=     0.055 Goal=   None    Shift=    0.000
 Gap=     0.052 Goal=   None    Shift=    0.000
 RMSDP=7.21D-06 MaxDP=6.63D-04 DE=-3.12D-08 OVMax= 2.84D-04

 Cycle  12  Pass 1  IDiag  1:
 E= -1136.13589139574     Delta-E=       -0.000000013622 Rises=F Damp=F
 DIIS: error= 1.26D-06 at cycle  12 NSaved=  12.
 NSaved=12 IEnMin=12 EnMin= -1136.13589139574     IErMin=12 ErrMin= 1.26D-06
 ErrMax= 1.26D-06  0.00D+00 EMaxC= 1.00D-01 BMatC= 2.58D-10 BMatP= 2.03D-09
 IDIUse=1 WtCom= 1.00D+00 WtEn= 0.00D+00
 Coeff-Com: -0.443D-04 0.556D-04-0.992D-04-0.347D-03 0.128D-02 0.621D-02
 Coeff-Com:  0.392D-02-0.127D-01-0.652D-01-0.948D-01-0.172D-01 0.118D+01
 Coeff:     -0.443D-04 0.556D-04-0.992D-04-0.347D-03 0.128D-02 0.621D-02
 Coeff:      0.392D-02-0.127D-01-0.652D-01-0.948D-01-0.172D-01 0.118D+01
 Gap=     0.055 Goal=   None    Shift=    0.000
 Gap=     0.052 Goal=   None    Shift=    0.000
 RMSDP=2.66D-06 MaxDP=2.42D-04 DE=-1.36D-08 OVMax= 1.24D-04

 Cycle  13  Pass 1  IDiag  1:
 E= -1136.13589139811     Delta-E=       -0.000000002362 Rises=F Damp=F
 DIIS: error= 5.25D-07 at cycle  13 NSaved=  13.
 NSaved=13 IEnMin=13 EnMin= -1136.13589139811     IErMin=13 ErrMin= 5.25D-07
 ErrMax= 5.25D-07  0.00D+00 EMaxC= 1.00D-01 BMatC= 6.42D-11 BMatP= 2.58D-10
 IDIUse=1 WtCom= 1.00D+00 WtEn= 0.00D+00
 Coeff-Com:  0.208D-04-0.283D-04-0.166D-03 0.615D-05-0.442D-03-0.422D-02
 Coeff-Com:  0.407D-02 0.336D-01 0.719D-02-0.622D-01-0.196D+00 0.272D+00
 Coeff-Com:  0.947D+00
 Coeff:      0.208D-04-0.283D-04-0.166D-03 0.615D-05-0.442D-03-0.422D-02
 Coeff:      0.407D-02 0.336D-01 0.719D-02-0.622D-01-0.196D+00 0.272D+00
 Coeff:      0.947D+00
 Gap=     0.055 Goal=   None    Shift=    0.000
 Gap=     0.052 Goal=   None    Shift=    0.000
 RMSDP=8.28D-07 MaxDP=8.19D-05 DE=-2.36D-09 OVMax= 4.68D-05

 Cycle  14  Pass 1  IDiag  1:
 E= -1136.13589139850     Delta-E=       -0.000000000391 Rises=F Damp=F
 DIIS: error= 2.25D-07 at cycle  14 NSaved=  14.
 NSaved=14 IEnMin=14 EnMin= -1136.13589139850     IErMin=14 ErrMin= 2.25D-07
 ErrMax= 2.25D-07  0.00D+00 EMaxC= 1.00D-01 BMatC= 1.46D-11 BMatP= 6.42D-11
 IDIUse=1 WtCom= 1.00D+00 WtEn= 0.00D+00
 Coeff-Com:  0.149D-04-0.191D-04-0.380D-04 0.814D-04-0.434D-03-0.214D-02
 Coeff-Com: -0.270D-03 0.883D-02 0.168D-01 0.165D-01-0.147D-01-0.305D+00
 Coeff-Com:  0.121D+00 0.116D+01
 Coeff:      0.149D-04-0.191D-04-0.380D-04 0.814D-04-0.434D-03-0.214D-02
 Coeff:     -0.270D-03 0.883D-02 0.168D-01 0.165D-01-0.147D-01-0.305D+00
 Coeff:      0.121D+00 0.116D+01
 Gap=     0.055 Goal=   None    Shift=    0.000
 Gap=     0.052 Goal=   None    Shift=    0.000
 RMSDP=7.89D-07 MaxDP=1.14D-04 DE=-3.91D-10 OVMax= 2.91D-05

 Cycle  15  Pass 1  IDiag  1:
 E= -1136.13589139860     Delta-E=       -0.000000000098 Rises=F Damp=F
 DIIS: error= 7.60D-08 at cycle  15 NSaved=  15.
 NSaved=15 IEnMin=15 EnMin= -1136.13589139860     IErMin=15 ErrMin= 7.60D-08
 ErrMax= 7.60D-08  0.00D+00 EMaxC= 1.00D-01 BMatC= 1.61D-12 BMatP= 1.46D-11
 IDIUse=1 WtCom= 1.00D+00 WtEn= 0.00D+00
 Coeff-Com: -0.523D-05 0.704D-05 0.456D-04-0.108D-04 0.136D-03 0.895D-03
 Coeff-Com: -0.375D-03-0.649D-02-0.707D-02 0.602D-02 0.410D-01 0.121D-01
 Coeff-Com: -0.175D+00-0.255D+00 0.138D+01
 Coeff:     -0.523D-05 0.704D-05 0.456D-04-0.108D-04 0.136D-03 0.895D-03
 Coeff:     -0.375D-03-0.649D-02-0.707D-02 0.602D-02 0.410D-01 0.121D-01
 Coeff:     -0.175D+00-0.255D+00 0.138D+01
 Gap=     0.055 Goal=   None    Shift=    0.000
 Gap=     0.052 Goal=   None    Shift=    0.000
 RMSDP=4.24D-07 MaxDP=5.80D-05 DE=-9.82D-11 OVMax= 1.20D-05

 Cycle  16  Pass 1  IDiag  1:
 E= -1136.13589139861     Delta-E=       -0.000000000010 Rises=F Damp=F
 DIIS: error= 2.60D-08 at cycle  16 NSaved=  16.
 NSaved=16 IEnMin=16 EnMin= -1136.13589139861     IErMin=16 ErrMin= 2.60D-08
 ErrMax= 2.60D-08  0.00D+00 EMaxC= 1.00D-01 BMatC= 1.55D-13 BMatP= 1.61D-12
 IDIUse=1 WtCom= 1.00D+00 WtEn= 0.00D+00
 Coeff-Com: -0.331D-06 0.358D-06-0.366D-05-0.238D-05 0.754D-05-0.115D-04
 Coeff-Com:  0.202D-04 0.585D-03 0.141D-02-0.273D-02-0.118D-01 0.316D-01
 Coeff-Com:  0.258D-01-0.628D-01-0.289D+00 0.131D+01
 Coeff:     -0.331D-06 0.358D-06-0.366D-05-0.238D-05 0.754D-05-0.115D-04
 Coeff:      0.202D-04 0.585D-03 0.141D-02-0.273D-02-0.118D-01 0.316D-01
 Coeff:      0.258D-01-0.628D-01-0.289D+00 0.131D+01
 Gap=     0.055 Goal=   None    Shift=    0.000
 Gap=     0.052 Goal=   None    Shift=    0.000
 RMSDP=9.78D-08 MaxDP=1.03D-05 DE=-1.05D-11 OVMax= 3.58D-06

 Cycle  17  Pass 1  IDiag  1:
 E= -1136.13589139861     Delta-E=        0.000000000000 Rises=F Damp=F
 DIIS: error= 9.42D-09 at cycle  17 NSaved=  17.
 NSaved=17 IEnMin=16 EnMin= -1136.13589139861     IErMin=17 ErrMin= 9.42D-09
 ErrMax= 9.42D-09  0.00D+00 EMaxC= 1.00D-01 BMatC= 3.13D-14 BMatP= 1.55D-13
 IDIUse=1 WtCom= 1.00D+00 WtEn= 0.00D+00
 Coeff-Com:  0.361D-06-0.509D-06-0.674D-05-0.905D-06-0.103D-04-0.733D-04
 Coeff-Com:  0.533D-04 0.710D-03 0.638D-03-0.108D-02-0.494D-02 0.211D-02
 Coeff-Com:  0.208D-01 0.281D-01-0.221D+00 0.270D+00 0.905D+00
 Coeff:      0.361D-06-0.509D-06-0.674D-05-0.905D-06-0.103D-04-0.733D-04
 Coeff:      0.533D-04 0.710D-03 0.638D-03-0.108D-02-0.494D-02 0.211D-02
 Coeff:      0.208D-01 0.281D-01-0.221D+00 0.270D+00 0.905D+00
 Gap=     0.055 Goal=   None    Shift=    0.000
 Gap=     0.052 Goal=   None    Shift=    0.000
 RMSDP=2.26D-08 MaxDP=2.30D-06 DE= 2.27D-13 OVMax= 8.30D-07

 Cycle  18  Pass 1  IDiag  1:
 E= -1136.13589139860     Delta-E=        0.000000000002 Rises=F Damp=F
 DIIS: error= 3.53D-09 at cycle  18 NSaved=  18.
 NSaved=18 IEnMin=16 EnMin= -1136.13589139861     IErMin=18 ErrMin= 3.53D-09
 ErrMax= 3.53D-09  0.00D+00 EMaxC= 1.00D-01 BMatC= 5.99D-15 BMatP= 3.13D-14
 IDIUse=1 WtCom= 1.00D+00 WtEn= 0.00D+00
 Coeff-Com:  0.213D-06-0.271D-06-0.727D-06 0.448D-06-0.368D-05-0.237D-04
 Coeff-Com:  0.182D-05 0.633D-04-0.117D-03 0.363D-03 0.121D-02-0.655D-02
 Coeff-Com:  0.328D-03 0.195D-01 0.147D-01-0.260D+00 0.227D+00 0.100D+01
 Coeff:      0.213D-06-0.271D-06-0.727D-06 0.448D-06-0.368D-05-0.237D-04
 Coeff:      0.182D-05 0.633D-04-0.117D-03 0.363D-03 0.121D-02-0.655D-02
 Coeff:      0.328D-03 0.195D-01 0.147D-01-0.260D+00 0.227D+00 0.100D+01
 Gap=     0.055 Goal=   None    Shift=    0.000
 Gap=     0.052 Goal=   None    Shift=    0.000
 RMSDP=1.53D-08 MaxDP=1.69D-06 DE= 1.82D-12 OVMax= 4.46D-07

 Cycle  19  Pass 1  IDiag  1:
 E= -1136.13589139861     Delta-E=       -0.000000000007 Rises=F Damp=F
 DIIS: error= 1.40D-09 at cycle  19 NSaved=  19.
 NSaved=19 IEnMin=19 EnMin= -1136.13589139861     IErMin=19 ErrMin= 1.40D-09
 ErrMax= 1.40D-09  0.00D+00 EMaxC= 1.00D-01 BMatC= 4.52D-16 BMatP= 5.99D-15
 IDIUse=1 WtCom= 1.00D+00 WtEn= 0.00D+00
 Large coefficients: NSaved= 19 BigCof=    0.00 CofMax=   10.00 Det=-1.06D-15
 Inversion failed.  Reducing to 18 matrices.
 Large coefficients: NSaved= 18 BigCof=    0.00 CofMax=   10.00 Det=-1.14D-15
 Inversion failed.  Reducing to 17 matrices.
 Large coefficients: NSaved= 17 BigCof=    0.00 CofMax=   10.00 Det=-1.17D-15
 Inversion failed.  Reducing to 16 matrices.
 Large coefficients: NSaved= 16 BigCof=    0.00 CofMax=   10.00 Det=-1.20D-15
 Inversion failed.  Reducing to 15 matrices.
 Coeff-Com: -0.267D-06 0.414D-05 0.537D-06-0.164D-04-0.239D-04 0.572D-05
 Coeff-Com:  0.218D-03 0.858D-04-0.905D-03-0.363D-02 0.154D-01-0.678D-02
 Coeff-Com: -0.797D-01-0.142D+00 0.122D+01
 Coeff:     -0.267D-06 0.414D-05 0.537D-06-0.164D-04-0.239D-04 0.572D-05
 Coeff:      0.218D-03 0.858D-04-0.905D-03-0.363D-02 0.154D-01-0.678D-02
 Coeff:     -0.797D-01-0.142D+00 0.122D+01
 Gap=     0.055 Goal=   None    Shift=    0.000
 Gap=     0.052 Goal=   None    Shift=    0.000
 RMSDP=5.39D-09 MaxDP=5.99D-07 DE=-6.59D-12 OVMax= 1.18D-07

 SCF Done:  E(UB3LYP) =  -1136.13589140     A.U. after   19 cycles
            NFock= 19  Conv=0.54D-08     -V/T= 2.0029
 <Sx>= 0.0000 <Sy>= 0.0000 <Sz>= 0.5000 <S**2>= 0.7600 S= 0.5050
 <L.S>= 0.000000000000E+00
 KE= 1.132906219951D+03 PE=-3.407021996710D+03 EE= 7.992064455027D+02
 Annihilation of the first spin contaminant:
 S**2 before annihilation     0.7600,   after     0.7501
 Leave Link  502 at Tue Dec  5 12:12:26 2023, MaxMem=  1879048192 cpu:             178.2 elap:              15.9
 (Enter /home/sekinelabo/g16/l601.exe)
 Copying SCF densities to generalized density rwf, IOpCl= 1 IROHF=0.

 **********************************************************************

            Population analysis using the SCF Density.

 **********************************************************************

 Orbital symmetries:
 Alpha Orbitals:
       Occupied  (A) (A) (A) (A) (A) (A) (A) (A) (A) (A) (A) (A)
                 (A) (A) (A) (A) (A) (A) (A) (A) (A) (A) (A) (A)
                 (A) (A) (A) (A) (A) (A) (A) (A) (A) (A) (A) (A)
                 (A) (A) (A)
       Virtual   (A) (A) (A) (A) (A) (A) (A) (A) (A) (A) (A) (A)
                 (A) (A) (A) (A) (A) (A) (A) (A) (A) (A) (A) (A)
                 (A) (A) (A) (A) (A) (A) (A) (A) (A) (A) (A) (A)
                 (A) (A) (A) (A) (A) (A) (A) (A) (A) (A) (A) (A)
                 (A) (A) (A) (A) (A) (A) (A) (A) (A) (A) (A) (A)
                 (A) (A) (A) (A) (A) (A) (A) (A) (A) (A) (A) (A)
                 (A) (A) (A) (A) (A) (A) (A) (A) (A) (A) (A) (A)
                 (A) (A) (A) (A) (A) (A) (A) (A) (A) (A) (A) (A)
                 (A) (A) (A) (A) (A) (A) (A) (A) (A) (A) (A) (A)
                 (A) (A) (A) (A) (A) (A) (A) (A) (A) (A) (A) (A)
                 (A) (A) (A) (A) (A) (A) (A) (A) (A) (A) (A) (A)
                 (A) (A) (A) (A) (A) (A) (A) (A) (A) (A) (A) (A)
                 (A) (A) (A) (A) (A) (A) (A) (A) (A) (A) (A) (A)
                 (A) (A) (A) (A) (A) (A) (A) (A) (A) (A) (A) (A)
                 (A) (A) (A)
 Beta  Orbitals:
       Occupied  (A) (A) (A) (A) (A) (A) (A) (A) (A) (A) (A) (A)
                 (A) (A) (A) (A) (A) (A) (A) (A) (A) (A) (A) (A)
                 (A) (A) (A) (A) (A) (A) (A) (A) (A) (A) (A) (A)
                 (A) (A)
       Virtual   (A) (A) (A) (A) (A) (A) (A) (A) (A) (A) (A) (A)
                 (A) (A) (A) (A) (A) (A) (A) (A) (A) (A) (A) (A)
                 (A) (A) (A) (A) (A) (A) (A) (A) (A) (A) (A) (A)
                 (A) (A) (A) (A) (A) (A) (A) (A) (A) (A) (A) (A)
                 (A) (A) (A) (A) (A) (A) (A) (A) (A) (A) (A) (A)
                 (A) (A) (A) (A) (A) (A) (A) (A) (A) (A) (A) (A)
                 (A) (A) (A) (A) (A) (A) (A) (A) (A) (A) (A) (A)
                 (A) (A) (A) (A) (A) (A) (A) (A) (A) (A) (A) (A)
                 (A) (A) (A) (A) (A) (A) (A) (A) (A) (A) (A) (A)
                 (A) (A) (A) (A) (A) (A) (A) (A) (A) (A) (A) (A)
                 (A) (A) (A) (A) (A) (A) (A) (A) (A) (A) (A) (A)
                 (A) (A) (A) (A) (A) (A) (A) (A) (A) (A) (A) (A)
                 (A) (A) (A) (A) (A) (A) (A) (A) (A) (A) (A) (A)
                 (A) (A) (A) (A) (A) (A) (A) (A) (A) (A) (A) (A)
                 (A) (A) (A) (A)
 The electronic state is 2-A.
 Alpha  occ. eigenvalues --  -38.44137 -38.43908 -38.43764 -38.43693 -38.43623
 Alpha  occ. eigenvalues --  -38.43424 -38.43329  -2.19916  -2.19762  -2.19675
 Alpha  occ. eigenvalues --   -2.19534  -2.19475  -2.19304  -2.19229  -1.13595
 Alpha  occ. eigenvalues --   -1.13573  -1.13562  -1.13426  -1.13398  -1.13383
 Alpha  occ. eigenvalues --   -1.13358  -1.13318  -1.13310  -1.13218  -1.13204
 Alpha  occ. eigenvalues --   -1.13194  -1.13162  -1.13136  -1.13105  -1.12999
 Alpha  occ. eigenvalues --   -1.12963  -1.12942  -1.12880  -1.12871  -1.12849
 Alpha  occ. eigenvalues --   -0.18472  -0.12682  -0.12652  -0.11115
 Alpha virt. eigenvalues --   -0.05664  -0.04939  -0.04628  -0.03477  -0.03270
 Alpha virt. eigenvalues --   -0.02842  -0.01326  -0.01017  -0.00225  -0.00183
 Alpha virt. eigenvalues --   -0.00049   0.00400   0.00799   0.00868   0.00905
 Alpha virt. eigenvalues --    0.00928   0.00963   0.01064   0.01086   0.01293
 Alpha virt. eigenvalues --    0.01320   0.01427   0.01732   0.01761   0.02065
 Alpha virt. eigenvalues --    0.02300   0.02331   0.02605   0.02657   0.02806
 Alpha virt. eigenvalues --    0.02875   0.02928   0.02941   0.02971   0.03139
 Alpha virt. eigenvalues --    0.03173   0.03208   0.03230   0.03277   0.03483
 Alpha virt. eigenvalues --    0.04214   0.04459   0.04470   0.04690   0.04962
 Alpha virt. eigenvalues --    0.05039   0.05106   0.05252   0.05398   0.05422
 Alpha virt. eigenvalues --    0.05671   0.06789   0.06919   0.07031   0.07264
 Alpha virt. eigenvalues --    0.07370   0.07564   0.07992   0.08056   0.08844
 Alpha virt. eigenvalues --    0.09052   0.09788   0.10570   0.11227   0.11365
 Alpha virt. eigenvalues --    0.12148   0.12314   0.12489   0.12795   0.13342
 Alpha virt. eigenvalues --    0.13534   0.13857   0.14347   0.14773   0.14808
 Alpha virt. eigenvalues --    0.15182   0.15333   0.15908   0.16124   0.16229
 Alpha virt. eigenvalues --    0.26579   0.27074   0.27351   0.27862   0.28534
 Alpha virt. eigenvalues --    0.29227   0.30603   0.31057   0.31522   0.32940
 Alpha virt. eigenvalues --    0.34455   0.35378   0.36457   0.37275   0.38436
 Alpha virt. eigenvalues --    0.39875   0.40813   0.41071   0.41538   0.42341
 Alpha virt. eigenvalues --    0.43466   0.43653   0.44078   0.44164   0.44734
 Alpha virt. eigenvalues --    0.44834   0.45049   0.45744   0.45946   0.46213
 Alpha virt. eigenvalues --    0.46507   0.46894   0.47945   0.48567   0.49467
 Alpha virt. eigenvalues --    0.50165   0.50507   0.50696   0.51506   0.51967
 Alpha virt. eigenvalues --    0.52457   0.53027   0.53678   0.55467   0.56190
 Alpha virt. eigenvalues --    0.56458   0.57523   0.57843   0.58789   0.61076
 Alpha virt. eigenvalues --    0.61726   0.62782   0.64187   0.66099   0.66528
 Alpha virt. eigenvalues --    0.72224   2.02854   2.13225   2.15631   2.18250
 Alpha virt. eigenvalues --    2.19780   2.22253   2.24442   4.42478   4.44178
 Alpha virt. eigenvalues --    4.44244   4.44795   4.45197   4.45438   4.45719
 Alpha virt. eigenvalues --    4.46404   4.46909   4.47516   4.49243   4.49303
 Alpha virt. eigenvalues --    4.50051   4.51034   4.52340   4.52898   4.53939
 Alpha virt. eigenvalues --    4.57540   4.59099   4.63006   4.66220  96.22540
 Alpha virt. eigenvalues --   96.34100  96.37123  96.40118  96.42750  96.46034
 Alpha virt. eigenvalues --   96.48574
  Beta  occ. eigenvalues --  -38.44135 -38.43832 -38.43688 -38.43688 -38.43616
  Beta  occ. eigenvalues --  -38.43420 -38.43316  -2.19916  -2.19622  -2.19536
  Beta  occ. eigenvalues --   -2.19528  -2.19465  -2.19300  -2.19208  -1.13583
  Beta  occ. eigenvalues --   -1.13569  -1.13561  -1.13335  -1.13301  -1.13282
  Beta  occ. eigenvalues --   -1.13272  -1.13233  -1.13215  -1.13203  -1.13186
  Beta  occ. eigenvalues --   -1.13171  -1.13158  -1.13106  -1.13098  -1.12995
  Beta  occ. eigenvalues --   -1.12945  -1.12934  -1.12868  -1.12842  -1.12829
  Beta  occ. eigenvalues --   -0.17719  -0.12492  -0.12438
  Beta virt. eigenvalues --   -0.07238  -0.05634  -0.04736  -0.04607  -0.02764
  Beta virt. eigenvalues --   -0.02488  -0.01856  -0.01239  -0.00944  -0.00237
  Beta virt. eigenvalues --   -0.00184   0.00078   0.00428   0.00846   0.00932
  Beta virt. eigenvalues --    0.00959   0.01030   0.01108   0.01181   0.01237
  Beta virt. eigenvalues --    0.01421   0.01468   0.01507   0.01782   0.01794
  Beta virt. eigenvalues --    0.02225   0.02298   0.02329   0.02580   0.02648
  Beta virt. eigenvalues --    0.02940   0.02957   0.02977   0.03027   0.03095
  Beta virt. eigenvalues --    0.03190   0.03231   0.03287   0.03321   0.03353
  Beta virt. eigenvalues --    0.03586   0.04286   0.04520   0.04556   0.04798
  Beta virt. eigenvalues --    0.05042   0.05068   0.05204   0.05376   0.05574
  Beta virt. eigenvalues --    0.05635   0.06021   0.06878   0.07042   0.07188
  Beta virt. eigenvalues --    0.07346   0.07478   0.07581   0.08041   0.08149
  Beta virt. eigenvalues --    0.09155   0.09223   0.10041   0.10686   0.11473
  Beta virt. eigenvalues --    0.11565   0.12398   0.12516   0.12848   0.13052
  Beta virt. eigenvalues --    0.13522   0.13739   0.14067   0.14545   0.14926
  Beta virt. eigenvalues --    0.14957   0.15422   0.15690   0.16121   0.16242
  Beta virt. eigenvalues --    0.16404   0.26794   0.27421   0.27802   0.28082
  Beta virt. eigenvalues --    0.28784   0.29684   0.30835   0.31215   0.31639
  Beta virt. eigenvalues --    0.33262   0.34567   0.35629   0.36710   0.37458
  Beta virt. eigenvalues --    0.38838   0.40168   0.41061   0.41350   0.42054
  Beta virt. eigenvalues --    0.42446   0.43693   0.43807   0.44161   0.44312
  Beta virt. eigenvalues --    0.44887   0.44975   0.45294   0.45851   0.45932
  Beta virt. eigenvalues --    0.46359   0.46677   0.47002   0.48149   0.48758
  Beta virt. eigenvalues --    0.49512   0.50223   0.50577   0.50886   0.51588
  Beta virt. eigenvalues --    0.52182   0.52573   0.53146   0.53913   0.55644
  Beta virt. eigenvalues --    0.56376   0.56653   0.57700   0.58171   0.59055
  Beta virt. eigenvalues --    0.61309   0.61879   0.63078   0.64325   0.66353
  Beta virt. eigenvalues --    0.66562   0.72195   2.02986   2.13242   2.15638
  Beta virt. eigenvalues --    2.18481   2.19885   2.22383   2.24589   4.42479
  Beta virt. eigenvalues --    4.44246   4.44283   4.44816   4.45246   4.45483
  Beta virt. eigenvalues --    4.45777   4.46413   4.46950   4.47588   4.49336
  Beta virt. eigenvalues --    4.49374   4.50126   4.51095   4.52377   4.52940
  Beta virt. eigenvalues --    4.53969   4.57563   4.59125   4.63091   4.66231
  Beta virt. eigenvalues --   96.22582  96.34108  96.37129  96.40197  96.42773
  Beta virt. eigenvalues --   96.46080  96.48610
          Condensed to atoms (all electrons):
               1          2          3          4          5          6
     1  Na  11.228872  -0.078193   0.486257   0.379814  -0.067944  -1.481538
     2  Na  -0.078193  10.910491  -0.651669   0.042464   0.350496   0.316273
     3  Na   0.486257  -0.651669  13.294850  -0.122068  -0.446961  -1.384642
     4  Na   0.379814   0.042464  -0.122068  10.975873   0.222514  -0.894505
     5  Na  -0.067944   0.350496  -0.446961   0.222514  10.755852   0.147534
     6  Na  -1.481538   0.316273  -1.384642  -0.894505   0.147534  15.388812
     7  Na   0.428772  -0.055689   0.228849   0.269112  -0.044857  -0.785391
               7
     1  Na   0.428772
     2  Na  -0.055689
     3  Na   0.228849
     4  Na   0.269112
     5  Na  -0.044857
     6  Na  -0.785391
     7  Na  10.727991
          Atomic-Atomic Spin Densities.
               1          2          3          4          5          6
     1  Na   0.309642  -0.095426   0.611599   0.052125  -0.083665  -0.788428
     2  Na  -0.095426   0.069401  -0.348635  -0.037389   0.017494   0.407270
     3  Na   0.611599  -0.348635   1.990135   0.215947  -0.294432  -1.949262
     4  Na   0.052125  -0.037389   0.215947   0.011660  -0.052902  -0.306611
     5  Na  -0.083665   0.017494  -0.294432  -0.052902  -0.010829   0.332453
     6  Na  -0.788428   0.407270  -1.949262  -0.306611   0.332453   3.242322
     7  Na   0.102375  -0.045834   0.303154   0.037287  -0.035773  -0.373199
               7
     1  Na   0.102375
     2  Na  -0.045834
     3  Na   0.303154
     4  Na   0.037287
     5  Na  -0.035773
     6  Na  -0.373199
     7  Na   0.051370
 Mulliken charges and spin densities:
               1          2
     1  Na   0.103959   0.108223
     2  Na   0.165827  -0.033118
     3  Na  -0.404616   0.528507
     4  Na   0.126796  -0.079883
     5  Na   0.083365  -0.127653
     6  Na  -0.306544   0.564545
     7  Na   0.231212   0.039380
 Sum of Mulliken charges =  -0.00000   1.00000
 Mulliken charges and spin densities with hydrogens summed into heavy atoms:
               1          2
     1  Na   0.103959   0.108223
     2  Na   0.165827  -0.033118
     3  Na  -0.404616   0.528507
     4  Na   0.126796  -0.079883
     5  Na   0.083365  -0.127653
     6  Na  -0.306544   0.564545
     7  Na   0.231212   0.039380
 Electronic spatial extent (au):  <R**2>=           2261.0168
 Charge=             -0.0000 electrons
 Dipole moment (field-independent basis, Debye):
    X=              0.4272    Y=             -0.1552    Z=             -0.0230  Tot=              0.4551
 Quadrupole moment (field-independent basis, Debye-Ang):
   XX=            -60.5700   YY=            -64.2329   ZZ=            -70.8774
   XY=              0.5350   XZ=             -2.6100   YZ=             -0.1549
 Traceless Quadrupole moment (field-independent basis, Debye-Ang):
   XX=              4.6567   YY=              0.9939   ZZ=             -5.6506
   XY=              0.5350   XZ=             -2.6100   YZ=             -0.1549
 Octapole moment (field-independent basis, Debye-Ang**2):
  XXX=              8.6023  YYY=             -2.8685  ZZZ=              0.7649  XYY=              3.5840
  XXY=             -2.4148  XXZ=             -3.4074  XZZ=              1.9482  YZZ=              0.5421
  YYZ=             -0.3382  XYZ=             -1.3461
 Hexadecapole moment (field-independent basis, Debye-Ang**3):
 XXXX=          -1410.8499 YYYY=          -1388.3512 ZZZZ=           -808.5390 XXXY=             -4.0913
 XXXZ=            -62.9341 YYYX=             19.8337 YYYZ=            -19.6268 ZZZX=             19.5247
 ZZZY=              1.7654 XXYY=           -515.8678 XXZZ=           -439.4458 YYZZ=           -434.6816
 XXYZ=             13.6904 YYXZ=            -25.0214 ZZXY=             -1.6432
 N-N= 3.387734398577D+02 E-N=-3.407021996613D+03  KE= 1.132906219951D+03
                          Isotropic Fermi Contact Couplings
        Atom                 a.u.       MegaHertz       Gauss      10(-4) cm-1
     1  Na(23)             0.02078      24.58016       8.77081       8.19906
     2  Na(23)            -0.00582      -6.88633      -2.45721      -2.29703
     3  Na(23)             0.31070     367.56723     131.15713     122.60723
     4  Na(23)            -0.01406     -16.63101      -5.93436      -5.54751
     5  Na(23)            -0.01886     -22.30649      -7.95951      -7.44064
     6  Na(23)             0.30681     362.96482     129.51487     121.07203
     7  Na(23)            -0.01749     -20.69047      -7.38287      -6.90160
 --------------------------------------------------------
       Center         ----  Spin Dipole Couplings  ----
                      3XX-RR        3YY-RR        3ZZ-RR
 --------------------------------------------------------
     1   Atom       -0.012860     -0.011651      0.024511
     2   Atom       -0.016400     -0.009078      0.025478
     3   Atom        0.004081      0.001018     -0.005098
     4   Atom       -0.016936     -0.010650      0.027585
     5   Atom       -0.006197     -0.010281      0.016478
     6   Atom        0.002820      0.002502     -0.005323
     7   Atom       -0.010820     -0.013146      0.023966
 --------------------------------------------------------
                        XY            XZ            YZ
 --------------------------------------------------------
     1   Atom       -0.003722      0.005663     -0.009175
     2   Atom        0.000952     -0.001806      0.009384
     3   Atom       -0.001958     -0.002769      0.000132
     4   Atom       -0.000318      0.000284      0.001134
     5   Atom       -0.001339      0.005434     -0.003679
     6   Atom        0.003710     -0.003105     -0.001276
     7   Atom        0.001484     -0.001953      0.004583
 --------------------------------------------------------


 ---------------------------------------------------------------------------------
              Anisotropic Spin Dipole Couplings in Principal Axis System
 ---------------------------------------------------------------------------------

       Atom             a.u.   MegaHertz   Gauss  10(-4) cm-1        Axes

              Baa    -0.0161    -2.278    -0.813    -0.760  0.7004  0.7110  0.0629
     1 Na(23) Bbb    -0.0116    -1.635    -0.584    -0.545  0.6966 -0.6616 -0.2775
              Bcc     0.0277     3.913     1.396     1.305  0.1557 -0.2382  0.9587
 
              Baa    -0.0168    -2.373    -0.847    -0.791  0.9682 -0.2323  0.0929
     2 Na(23) Bbb    -0.0111    -1.569    -0.560    -0.523  0.2478  0.9413 -0.2292
              Bcc     0.0279     3.942     1.407     1.315 -0.0342  0.2449  0.9689
 
              Baa    -0.0059    -0.832    -0.297    -0.278  0.2780  0.0604  0.9587
     3 Na(23) Bbb     0.0002     0.034     0.012     0.011  0.3540  0.9213 -0.1607
              Bcc     0.0057     0.798     0.285     0.266  0.8930 -0.3841 -0.2348
 
              Baa    -0.0170    -2.394    -0.854    -0.799  0.9986  0.0517 -0.0077
     4 Na(23) Bbb    -0.0107    -1.506    -0.537    -0.502 -0.0519  0.9982 -0.0292
              Bcc     0.0276     3.900     1.392     1.301  0.0062  0.0296  0.9995
 
              Baa    -0.0109    -1.536    -0.548    -0.512  0.1658  0.9812  0.0990
     5 Na(23) Bbb    -0.0074    -1.040    -0.371    -0.347  0.9608 -0.1381 -0.2403
              Bcc     0.0182     2.576     0.919     0.859  0.2221 -0.1350  0.9656
 
              Baa    -0.0064    -0.900    -0.321    -0.300  0.3189  0.0030  0.9478
     6 Na(23) Bbb    -0.0008    -0.113    -0.040    -0.038 -0.6107  0.7654  0.2031
              Bcc     0.0072     1.012     0.361     0.338  0.7248  0.6436 -0.2459
 
              Baa    -0.0145    -2.049    -0.731    -0.684 -0.4275  0.8948 -0.1283
     7 Na(23) Bbb    -0.0101    -1.426    -0.509    -0.476  0.9026  0.4304 -0.0061
              Bcc     0.0246     3.475     1.240     1.159 -0.0497  0.1184  0.9917
 

 ---------------------------------------------------------------------------------

 No NMR shielding tensors so no spin-rotation constants.
 Leave Link  601 at Tue Dec  5 12:12:26 2023, MaxMem=  1879048192 cpu:               2.3 elap:               0.2
 (Enter /home/sekinelabo/g16/l701.exe)
 ... and contract with generalized density number  0.
 Compute integral first derivatives.
 Leave Link  701 at Tue Dec  5 12:12:26 2023, MaxMem=  1879048192 cpu:               1.5 elap:               0.1
 (Enter /home/sekinelabo/g16/l702.exe)
 L702 exits ... SP integral derivatives will be done elsewhere.
 Leave Link  702 at Tue Dec  5 12:12:26 2023, MaxMem=  1879048192 cpu:               0.4 elap:               0.0
 (Enter /home/sekinelabo/g16/l703.exe)
 Integral derivatives from FoFJK, PRISM(SPDF).
 Compute integral first derivatives, UseDBF=F ICtDFT=           0.
 Calling FoFJK, ICntrl=      2127 FMM=F ISym2X=0 I1Cent= 0 IOpClX= 1 NMat=1 NMatS=1 NMatT=0.
 FoFJK:  IHMeth= 1 ICntrl=    2127 DoSepK=F KAlg= 0 I1Cent=           0 FoldK=F
 IRaf=         0 NMat=       1 IRICut=       1 DoRegI=T DoRafI=F ISym2E= 0 IDoP0=0 IntGTp=1.
 FoFCou: FMM=F IPFlag=           0 FMFlag=      100000 FMFlg1=         800
         NFxFlg=           0 DoJE=F BraDBF=F KetDBF=F FulRan=T
         wScrn=  0.000000 ICntrl=      2127 IOpCl=  1 I1Cent=           0 NGrid=           0
         NMat0=    1 NMatS0=      1 NMatT0=    0 NMatD0=    1 NMtDS0=    0 NMtDT0=    0
 Symmetry not used in FoFCou.
 Leave Link  703 at Tue Dec  5 12:12:28 2023, MaxMem=  1879048192 cpu:              33.6 elap:               2.3
 (Enter /home/sekinelabo/g16/l716.exe)
 Dipole        = 1.68079965D-01-6.10756171D-02-9.03053633D-03
 ***** Axes restored to original set *****
 -------------------------------------------------------------------
 Center     Atomic                   Forces (Hartrees/Bohr)
 Number     Number              X              Y              Z
 -------------------------------------------------------------------
      1       11          -0.001990580   -0.001541825   -0.001800804
      2       11           0.003024155    0.000167955    0.003801910
      3       11          -0.001073740    0.002618483   -0.000430143
      4       11           0.000622618   -0.000017551    0.002742806
      5       11          -0.002464183    0.000115091   -0.003736111
      6       11           0.000773992   -0.000444479    0.002476206
      7       11           0.001107739   -0.000897674   -0.003053864
 -------------------------------------------------------------------
 Cartesian Forces:  Max     0.003801910 RMS     0.002042959
 Z-matrix is all fixed cartesians, so copy forces.
 Force constants in Cartesian coordinates: 
                1             2             3             4             5 
      1  0.102479D+00
      2  0.137205D-01  0.488112D-01
      3  0.101154D-01  0.815577D-02  0.791024D-01
      4 -0.303585D-01 -0.660343D-02 -0.186322D-01  0.738682D-01
      5  0.377450D-03 -0.129365D-01 -0.999734D-02 -0.257586D-03  0.430326D-01
      6  0.158611D-01 -0.475810D-02 -0.389066D-01 -0.176761D-01  0.935568D-02
      7 -0.160533D-01  0.111686D-01 -0.414857D-03 -0.111563D-01  0.100820D-01
      8 -0.896245D-02 -0.142146D-01 -0.440172D-02 -0.404312D-02 -0.167732D-01
      9 -0.446800D-02  0.768211D-02 -0.988296D-02  0.880089D-02 -0.107930D-01
     10 -0.749864D-02  0.172904D-03  0.914704D-03 -0.291184D-02 -0.291324D-03
     11 -0.291979D-02  0.495046D-02 -0.969534D-03 -0.649432D-03  0.698902D-02
     12  0.166374D-02 -0.114983D-02  0.558587D-02  0.313982D-02 -0.150076D-02
     13 -0.144063D-02 -0.147973D-02 -0.441504D-02 -0.170199D-01 -0.284078D-02
     14 -0.213489D-02  0.628949D-02 -0.101915D-02  0.215465D-02 -0.281624D-02
     15 -0.636212D-02 -0.910600D-03  0.492529D-03  0.144552D-01 -0.175588D-02
     16 -0.188181D-01 -0.145336D-01 -0.360955D-02 -0.175613D-01 -0.101499D-01
     17  0.619228D-02 -0.245676D-01  0.185748D-02  0.732123D-02 -0.226348D-01
     18 -0.493814D-02 -0.438030D-02 -0.110070D-01  0.507285D-02  0.155876D-01
     19 -0.283098D-01 -0.244514D-02  0.160416D-01  0.513956D-02  0.308021D-02
     20 -0.627304D-02 -0.833247D-02  0.637450D-02  0.207768D-02  0.513910D-02
     21 -0.118720D-01 -0.463905D-02 -0.253843D-01  0.483962D-02 -0.896311D-03
                6             7             8             9            10 
      6  0.846354D-01
      7  0.335781D-02  0.524300D-01
      8  0.295226D-02 -0.348833D-02  0.860270D-01
      9 -0.112514D-01  0.129027D-02 -0.893409D-03  0.497046D-01
     10  0.626508D-02 -0.186652D-01  0.741045D-02  0.153210D-02  0.920991D-01
     11 -0.139381D-02 -0.108686D-01 -0.184900D-01  0.106136D-01 -0.131658D-02
     12  0.149931D-04  0.272909D-02 -0.406647D-02 -0.107014D-01 -0.127648D-01
     13 -0.138578D-01 -0.153503D-01  0.624540D-02 -0.495065D-02 -0.154965D-01
     14 -0.116988D-02 -0.951451D-02 -0.213997D-01 -0.159959D-01  0.140203D-04
     15 -0.127884D-01 -0.537378D-02  0.308512D-02 -0.154780D-01 -0.130576D-01
     16  0.454423D-02  0.484919D-02  0.215140D-02 -0.967116D-03 -0.189495D-01
     17 -0.705983D-02  0.139516D-02 -0.136056D-01  0.435748D-02 -0.712334D-02
     18 -0.183859D-01 -0.433809D-03  0.149623D-02  0.252644D-02  0.448485D-02
     19  0.150568D-02  0.394586D-02  0.686653D-03 -0.123751D-02 -0.285774D-01
     20  0.207367D-02  0.122571D-02 -0.154389D-02  0.502913D-02  0.113387D-02
     21 -0.331806D-02 -0.115474D-02  0.182800D-02 -0.491724D-02  0.126256D-01
               11            12            13            14            15 
     11  0.397433D-01
     12  0.508094D-04  0.618084D-01
     13  0.181652D-02  0.159560D-01  0.552521D-01
     14 -0.340018D-02 -0.444952D-03  0.238811D-02  0.352224D-01
     15 -0.292126D-02 -0.184362D-01  0.152125D-01  0.797185D-02  0.609488D-01
     16  0.168469D-01  0.518674D-02 -0.967233D-02  0.944643D-02 -0.335936D-02
     17 -0.237714D-01  0.394767D-02 -0.541633D-02 -0.177032D-01 -0.779852D-02
     18 -0.431750D-02 -0.145036D-01 -0.332776D-02  0.124796D-01 -0.124365D-01
     19 -0.290901D-02 -0.159106D-01  0.372753D-02 -0.235382D-02 -0.151483D-02
     20 -0.602121D-02  0.316352D-02 -0.713188D-03  0.380751D-02  0.232929D-02
     21 -0.106227D-02 -0.237681D-01 -0.461725D-02 -0.182153D-02 -0.230225D-02
               16            17            18            19            20 
     16  0.752004D-01
     17 -0.262641D-02  0.128632D+00
     18 -0.814149D-03  0.137668D-02  0.788027D-01
     19 -0.150484D-01  0.257412D-03 -0.438422D-04  0.591226D-01
     20 -0.113473D-02 -0.263496D-01 -0.222422D-01  0.368370D-02  0.333006D-01
     21 -0.980793D-03  0.331904D-02 -0.249961D-01  0.115954D-02  0.327212D-02
               21 
     21  0.846861D-01
 Leave Link  716 at Tue Dec  5 12:12:29 2023, MaxMem=  1879048192 cpu:               0.4 elap:               0.0
 (Enter /home/sekinelabo/g16/l103.exe)

 GradGradGradGradGradGradGradGradGradGradGradGradGradGradGradGradGradGrad
 Berny optimization.
 Search for a local minimum.
 Step number   1 out of a maximum of    2
 All quantities printed in internal units (Hartrees-Bohrs-Radians)
 Second derivative matrix not updated -- first step.
 ITU=  0
     Eigenvalues ---    0.03810   0.04844   0.05602   0.06150   0.06620
     Eigenvalues ---    0.07769   0.08461   0.09309   0.09825   0.10595
     Eigenvalues ---    0.11447   0.12309   0.14269   0.15262   0.15693
 Angle between quadratic step and forces=  21.28 degrees.
 Linear search not attempted -- first point.
 B after Tr=    -0.000000    0.000000    0.000000
         Rot=    1.000000   -0.000000    0.000000   -0.000000 Ang=   0.00 deg.
 Variable       Old X    -DE/DX   Delta X   Delta X   Delta X     New X
                                 (Linear)    (Quad)   (Total)
    X1       17.20325  -0.00199   0.00000  -0.01235  -0.01235  17.19090
    Y1       21.22654  -0.00154   0.00000  -0.00782  -0.00782  21.21871
    Z1       20.54246  -0.00180   0.00000  -0.00417  -0.00417  20.53829
    X2       18.24311   0.00302   0.00000   0.04531   0.04531  18.28843
    Y2       22.59375   0.00017   0.00000  -0.00858  -0.00858  22.58517
    Z2       26.11715   0.00380   0.00000   0.04210   0.04210  26.15925
    X3       22.96622  -0.00107   0.00000  -0.02888  -0.02888  22.93734
    Y3       18.05165   0.00262   0.00000   0.03251   0.03251  18.08415
    Z3       23.27330  -0.00043   0.00000  -0.01951  -0.01951  23.25379
    X4       27.00400   0.00062   0.00000   0.00002   0.00002  27.00401
    Y4       22.13455  -0.00002   0.00000   0.00659   0.00659  22.14114
    Z4       19.74707   0.00274   0.00000   0.03853   0.03853  19.78560
    X5       25.90739  -0.00246   0.00000  -0.03542  -0.03542  25.87197
    Y5       22.50116   0.00012   0.00000   0.00679   0.00679  22.50795
    Z5       27.07127  -0.00374   0.00000  -0.05018  -0.05018  27.02109
    X6       21.88265   0.00077   0.00000   0.00586   0.00586  21.88852
    Y6       25.89832  -0.00044   0.00000  -0.00884  -0.00884  25.88947
    Z6       21.65456   0.00248   0.00000   0.02108   0.02108  21.67564
    X7       21.69141   0.00111   0.00000   0.02546   0.02546  21.71687
    Y7       22.49209  -0.00090   0.00000  -0.02064  -0.02064  22.47145
    Z7       16.49223  -0.00305   0.00000  -0.02785  -0.02785  16.46437
         Item               Value     Threshold  Converged?
 Maximum Force            0.003802     0.000450     NO 
 RMS     Force            0.002043     0.000300     NO 
 Maximum Displacement     0.050179     0.001800     NO 
 RMS     Displacement     0.025963     0.001200     NO 
 Predicted change in Energy=-5.189612D-04
 GradGradGradGradGradGradGradGradGradGradGradGradGradGradGradGradGradGrad

 Leave Link  103 at Tue Dec  5 12:12:29 2023, MaxMem=  1879048192 cpu:               0.2 elap:               0.0
 (Enter /home/sekinelabo/g16/l9999.exe)
 1\1\GINC-SEKINELABO-XA7R-R37\Force\UB3LYP\6-311+G(d)\Na7(2)\SEKINELABO
 \05-Dec-2023\0\\#P B3LYP/6-311+g(d) force\\DPGEN\\0,2\Na,9.10357,11.23
 26,10.8706\Na,9.65384,11.9561,13.8206\Na,12.1532,9.55252,12.3157\Na,14
 .2899,11.7131,10.4497\Na,13.7096,11.9071,14.3255\Na,11.5798,13.7048,11
 .4591\Na,11.4786,11.9023,8.72731\\Version=ES64L-G16RevB.01\State=2-A\H
 F=-1136.1358914\S2=0.76001\S2-1=0.\S2A=0.750058\RMSD=5.394e-09\RMSF=2.
 043e-03\Dipole=0.134786,0.0004129,0.117878\Quadrupole=1.0472889,-4.411
 1667,3.3638779,0.7456737,1.0023034,1.2375395\PG=C01 [X(Na7)]\\@


 THE MORE PROGRESS PHYSICAL SCIENCES MAKE, THE MORE THEY TEND TO ENTER
 THE DOMAIN OF MATHEMATICS, WHICH IS A KIND OF CENTRE TO WHICH THEY ALL
 CONVERGE.  WE MAY EVEN JUDGE THE DEGREE OF PERFECTION TO WHICH A 
 SCIENCE HAS ARRIVED BY THE FACILITY WITH WHICH IT MAY BE SUBMITTED
 TO CALCULATION.

                               -- ADOLPHE QUETELET, 1796-1874
 Job cpu time:       0 days  0 hours  3 minutes 47.6 seconds.
 Elapsed time:       0 days  0 hours  0 minutes 19.3 seconds.
 File lengths (MBytes):  RWF=     32 Int=      0 D2E=      0 Chk=      4 Scr=      1
 Normal termination of Gaussian 16 at Tue Dec  5 12:12:29 2023.
