 Set GAUSS_MDEF to "14GB".
 Entering Gaussian System, Link 0=g16
 Initial command:
 /home/sekinelabo/g16/l1.exe "/home/sekinelabo/g16temp/Gau-25396.inp" -scrdir="/home/sekinelabo/g16temp/"
 Entering Link 1 = /home/sekinelabo/g16/l1.exe PID=     25398.
  
 Copyright (c) 1988-2017, Gaussian, Inc.  All Rights Reserved.
  
 This is part of the Gaussian(R) 16 program.  It is based on
 the Gaussian(R) 09 system (copyright 2009, Gaussian, Inc.),
 the Gaussian(R) 03 system (copyright 2003, Gaussian, Inc.),
 the Gaussian(R) 98 system (copyright 1998, Gaussian, Inc.),
 the Gaussian(R) 94 system (copyright 1995, Gaussian, Inc.),
 the Gaussian 92(TM) system (copyright 1992, Gaussian, Inc.),
 the Gaussian 90(TM) system (copyright 1990, Gaussian, Inc.),
 the Gaussian 88(TM) system (copyright 1988, Gaussian, Inc.),
 the Gaussian 86(TM) system (copyright 1986, Carnegie Mellon
 University), and the Gaussian 82(TM) system (copyright 1983,
 Carnegie Mellon University). Gaussian is a federally registered
 trademark of Gaussian, Inc.
  
 This software contains proprietary and confidential information,
 including trade secrets, belonging to Gaussian, Inc.
  
 This software is provided under written license and may be
 used, copied, transmitted, or stored only in accord with that
 written license.
  
 The following legend is applicable only to US Government
 contracts under FAR:
  
                    RESTRICTED RIGHTS LEGEND
  
 Use, reproduction and disclosure by the US Government is
 subject to restrictions as set forth in subparagraphs (a)
 and (c) of the Commercial Computer Software - Restricted
 Rights clause in FAR 52.227-19.
  
 Gaussian, Inc.
 340 Quinnipiac St., Bldg. 40, Wallingford CT 06492
  
  
 ---------------------------------------------------------------
 Warning -- This program may not be used in any manner that
 competes with the business of Gaussian, Inc. or will provide
 assistance to any competitor of Gaussian, Inc.  The licensee
 of this program is prohibited from giving any competitor of
 Gaussian, Inc. access to this program.  By using this program,
 the user acknowledges that Gaussian, Inc. is engaged in the
 business of creating and licensing software in the field of
 computational chemistry and represents and warrants to the
 licensee that it is not a competitor of Gaussian, Inc. and that
 it will not use this program in any manner prohibited above.
 ---------------------------------------------------------------
  

 Cite this work as:
 Gaussian 16, Revision B.01,
 M. J. Frisch, G. W. Trucks, H. B. Schlegel, G. E. Scuseria, 
 M. A. Robb, J. R. Cheeseman, G. Scalmani, V. Barone, 
 G. A. Petersson, H. Nakatsuji, X. Li, M. Caricato, A. V. Marenich, 
 J. Bloino, B. G. Janesko, R. Gomperts, B. Mennucci, H. P. Hratchian, 
 J. V. Ortiz, A. F. Izmaylov, J. L. Sonnenberg, D. Williams-Young, 
 F. Ding, F. Lipparini, F. Egidi, J. Goings, B. Peng, A. Petrone, 
 T. Henderson, D. Ranasinghe, V. G. Zakrzewski, J. Gao, N. Rega, 
 G. Zheng, W. Liang, M. Hada, M. Ehara, K. Toyota, R. Fukuda, 
 J. Hasegawa, M. Ishida, T. Nakajima, Y. Honda, O. Kitao, H. Nakai, 
 T. Vreven, K. Throssell, J. A. Montgomery, Jr., J. E. Peralta, 
 F. Ogliaro, M. J. Bearpark, J. J. Heyd, E. N. Brothers, K. N. Kudin, 
 V. N. Staroverov, T. A. Keith, R. Kobayashi, J. Normand, 
 K. Raghavachari, A. P. Rendell, J. C. Burant, S. S. Iyengar, 
 J. Tomasi, M. Cossi, J. M. Millam, M. Klene, C. Adamo, R. Cammi, 
 J. W. Ochterski, R. L. Martin, K. Morokuma, O. Farkas, 
 J. B. Foresman, and D. J. Fox, Gaussian, Inc., Wallingford CT, 2016.
 
 ******************************************
 Gaussian 16:  ES64L-G16RevB.01 20-Dec-2017
                28-Nov-2023 
 ******************************************
 %nproc=15
 Will use up to   15 processors via shared memory.
 -------------------------
 #P B3LYP/6-311+g(d) force
 -------------------------
 1/10=7,30=1,38=1/1,3;
 2/12=2,17=6,18=5,40=1/2;
 3/5=4,6=6,7=11,11=2,25=1,30=1,71=1,74=-5/1,2,3;
 4//1;
 5/5=2,38=5/2;
 6/7=2,8=2,9=2,10=2,28=1/1;
 7/29=1/1,2,3,16;
 1/10=7,30=1/3;
 99//99;
 Leave Link    1 at Tue Nov 28 19:16:26 2023, MaxMem=           0 cpu:               0.3 elap:               0.0
 (Enter /home/sekinelabo/g16/l101.exe)
 -----
 DPGEN
 -----
 Symbolic Z-matrix:
 Charge =  0 Multiplicity = 2
 Na                    12.7495   16.2934   14.8719 
 Na                    16.0635   16.1192   16.3368 
 Na                    17.9792   13.1912   14.8052 
 Na                    14.8237   13.4194   13.9159 
 Na                    11.2204   13.4701   14.6316 
 Na                    19.6753   16.009    16.6248 
 Na                    14.9139   18.9231   16.2395 
 
 ITRead=  0  0  0  0  0  0  0
 MicOpt= -1 -1 -1 -1 -1 -1 -1
 NAtoms=      7 NQM=        7 NQMF=       0 NMMI=      0 NMMIF=      0
                NMic=       0 NMicF=      0.
                    Isotopes and Nuclear Properties:
 (Nuclear quadrupole moments (NQMom) in fm**2, nuclear magnetic moments (NMagM)
  in nuclear magnetons)

  Atom         1           2           3           4           5           6           7
 IAtWgt=          23          23          23          23          23          23          23
 AtmWgt=  22.9897697  22.9897697  22.9897697  22.9897697  22.9897697  22.9897697  22.9897697
 NucSpn=           3           3           3           3           3           3           3
 AtZEff=  -0.0000000  -0.0000000  -0.0000000  -0.0000000  -0.0000000  -0.0000000  -0.0000000
 NQMom=   10.4000000  10.4000000  10.4000000  10.4000000  10.4000000  10.4000000  10.4000000
 NMagM=    2.2175200   2.2175200   2.2175200   2.2175200   2.2175200   2.2175200   2.2175200
 AtZNuc=  11.0000000  11.0000000  11.0000000  11.0000000  11.0000000  11.0000000  11.0000000
 Leave Link  101 at Tue Nov 28 19:16:26 2023, MaxMem=  1879048192 cpu:               2.3 elap:               0.2
 (Enter /home/sekinelabo/g16/l103.exe)

 GradGradGradGradGradGradGradGradGradGradGradGradGradGradGradGradGradGrad
 Berny optimization.
 Initialization pass.
 Trust Radius=3.00D-01 FncErr=1.00D-07 GrdErr=1.00D-07 EigMax=2.50D+02 EigMin=1.00D-04
 Number of steps in this run=      2 maximum allowed number of steps=      2.
 GradGradGradGradGradGradGradGradGradGradGradGradGradGradGradGradGradGrad

 Leave Link  103 at Tue Nov 28 19:16:26 2023, MaxMem=  1879048192 cpu:               0.2 elap:               0.0
 (Enter /home/sekinelabo/g16/l202.exe)
                          Input orientation:                          
 ---------------------------------------------------------------------
 Center     Atomic      Atomic             Coordinates (Angstroms)
 Number     Number       Type             X           Y           Z
 ---------------------------------------------------------------------
      1         11           0       12.749500   16.293400   14.871900
      2         11           0       16.063500   16.119200   16.336800
      3         11           0       17.979200   13.191200   14.805200
      4         11           0       14.823700   13.419400   13.915900
      5         11           0       11.220400   13.470100   14.631600
      6         11           0       19.675300   16.009000   16.624800
      7         11           0       14.913900   18.923100   16.239500
 ---------------------------------------------------------------------
                    Distance matrix (angstroms):
                    1          2          3          4          5
     1  Na   0.000000
     2  Na   3.627516   0.000000
     3  Na   6.080942   3.819540   0.000000
     4  Na   3.670983   3.832334   3.286352   0.000000
     5  Na   3.219769   5.777634   6.766779   3.674040   0.000000
     6  Na   7.149842   3.624940   3.758683   6.130431   9.050094
     7  Na   3.670188   3.031980   6.656422   5.974778   6.779564
                    6          7
     6  Na   0.000000
     7  Na   5.595656   0.000000
 Stoichiometry    Na7(2)
 Framework group  C1[X(Na7)]
 Deg. of freedom    15
 Full point group                 C1      NOp   1
 Largest Abelian subgroup         C1      NOp   1
 Largest concise Abelian subgroup C1      NOp   1
                         Standard orientation:                         
 ---------------------------------------------------------------------
 Center     Atomic      Atomic             Coordinates (Angstroms)
 Number     Number       Type             X           Y           Z
 ---------------------------------------------------------------------
      1         11           0       -2.432749    1.352448   -0.344885
      2         11           0        1.046619    0.837733    0.542777
      3         11           0        2.026085   -2.779641   -0.194884
      4         11           0       -1.160731   -2.082213   -0.592257
      5         11           0       -4.441056   -0.967473    0.630606
      6         11           0        4.553829   -0.036931    0.269605
      7         11           0        0.408003    3.676077   -0.310963
 ---------------------------------------------------------------------
 Rotational constants (GHZ):           0.7228041           0.4036340           0.2676367
 Leave Link  202 at Tue Nov 28 19:16:26 2023, MaxMem=  1879048192 cpu:               0.0 elap:               0.0
 (Enter /home/sekinelabo/g16/l301.exe)
 Standard basis: 6-311+G(d) (5D, 7F)
 Ernie: Thresh=  0.10000D-02 Tol=  0.10000D-05 Strict=F.
 There are   217 symmetry adapted cartesian basis functions of A   symmetry.
 There are   210 symmetry adapted basis functions of A   symmetry.
   210 basis functions,   350 primitive gaussians,   217 cartesian basis functions
    39 alpha electrons       38 beta electrons
       nuclear repulsion energy       297.4009407088 Hartrees.
 IExCor=  402 DFT=T Ex+Corr=B3LYP ExCW=0 ScaHFX=  0.200000
 ScaDFX=  0.800000  0.720000  1.000000  0.810000 ScalE2=  1.000000  1.000000
 IRadAn=      5 IRanWt=     -1 IRanGd=            0 ICorTp=0 IEmpDi=  4
 NAtoms=    7 NActive=    7 NUniq=    7 SFac= 1.00D+00 NAtFMM=   60 NAOKFM=F Big=F
 Integral buffers will be    131072 words long.
 Raffenetti 2 integral format.
 Two-electron integral symmetry is turned on.
 Leave Link  301 at Tue Nov 28 19:16:26 2023, MaxMem=  1879048192 cpu:               0.5 elap:               0.0
 (Enter /home/sekinelabo/g16/l302.exe)
 NPDir=0 NMtPBC=     1 NCelOv=     1 NCel=       1 NClECP=     1 NCelD=      1
         NCelK=      1 NCelE2=     1 NClLst=     1 CellRange=     0.0.
 One-electron integrals computed using PRISM.
 One-electron integral symmetry used in STVInt
 NBasis=   210 RedAO= T EigKep=  9.20D-06  NBF=   210
 NBsUse=   210 1.00D-06 EigRej= -1.00D+00 NBFU=   210
 Precomputing XC quadrature grid using
 IXCGrd= 4 IRadAn=           5 IRanWt=          -1 IRanGd=           0 AccXCQ= 0.00D+00.
 Generated NRdTot=       0 NPtTot=           0 NUsed=           0 NTot=          32
 NSgBfM=   208   208   208   208   208 MxSgAt=     7 MxSgA2=     7.
 Leave Link  302 at Tue Nov 28 19:16:26 2023, MaxMem=  1879048192 cpu:               1.9 elap:               0.1
 (Enter /home/sekinelabo/g16/l303.exe)
 DipDrv:  MaxL=1.
 Leave Link  303 at Tue Nov 28 19:16:26 2023, MaxMem=  1879048192 cpu:               0.5 elap:               0.0
 (Enter /home/sekinelabo/g16/l401.exe)
 ExpMin= 7.60D-03 ExpMax= 3.62D+04 ExpMxC= 1.21D+03 IAcc=3 IRadAn=         5 AccDes= 0.00D+00
 Harris functional with IExCor=  402 and IRadAn=       5 diagonalized for initial guess.
 HarFok:  IExCor=  402 AccDes= 0.00D+00 IRadAn=         5 IDoV= 1 UseB2=F ITyADJ=14
 ICtDFT=  3500011 ScaDFX=  1.000000  1.000000  1.000000  1.000000
 FoFCou: FMM=F IPFlag=           0 FMFlag=      100000 FMFlg1=           0
         NFxFlg=           0 DoJE=T BraDBF=F KetDBF=T FulRan=T
         wScrn=  0.000000 ICntrl=       500 IOpCl=  0 I1Cent=   200000004 NGrid=           0
         NMat0=    1 NMatS0=      1 NMatT0=    0 NMatD0=    1 NMtDS0=    0 NMtDT0=    0
 Petite list used in FoFCou.
 Harris En= -1135.89617775799    
 JPrj=0 DoOrth=F DoCkMO=F.
 Initial guess <Sx>= 0.0000 <Sy>= 0.0000 <Sz>= 0.5000 <S**2>= 0.7500 S= 0.5000
 Leave Link  401 at Tue Nov 28 19:16:27 2023, MaxMem=  1879048192 cpu:               4.2 elap:               0.3
 (Enter /home/sekinelabo/g16/l502.exe)
 Keep R1 and R2 ints in memory in canonical form, NReq=506573307.
 FoFCou: FMM=F IPFlag=           0 FMFlag=           0 FMFlg1=           0
         NFxFlg=           0 DoJE=F BraDBF=F KetDBF=F FulRan=T
         wScrn=  0.000000 ICntrl=       600 IOpCl=  0 I1Cent=           0 NGrid=           0
         NMat0=    1 NMatS0=  22155 NMatT0=    0 NMatD0=    1 NMtDS0=    0 NMtDT0=    0
 Symmetry not used in FoFCou.
 Two-electron integral symmetry not used.
 UHF open shell SCF:
 Using DIIS extrapolation, IDIIS=  1040.
 NGot=  1879048192 LenX=  1388082593 LenY=  1388035063
 Requested convergence on RMS density matrix=1.00D-08 within 128 cycles.
 Requested convergence on MAX density matrix=1.00D-06.
 Requested convergence on             energy=1.00D-06.
 No special actions if energy rises.

 Cycle   1  Pass 1  IDiag  1:
 E= -1136.10067490904    
 DIIS: error= 1.05D-02 at cycle   1 NSaved=   1.
 NSaved= 1 IEnMin= 1 EnMin= -1136.10067490904     IErMin= 1 ErrMin= 1.05D-02
 ErrMax= 1.05D-02  0.00D+00 EMaxC= 1.00D-01 BMatC= 1.83D-01 BMatP= 1.83D-01
 IDIUse=3 WtCom= 8.95D-01 WtEn= 1.05D-01
 Coeff-Com:  0.100D+01
 Coeff-En:   0.100D+01
 Coeff:      0.100D+01
 Gap=     0.051 Goal=   None    Shift=    0.000
 Gap=     0.044 Goal=   None    Shift=    0.000
 GapD=    0.044 DampG=0.250 DampE=0.500 DampFc=0.2500 IDamp=-1.
 Damping current iteration by 2.50D-01
 RMSDP=1.08D-02 MaxDP=1.07D+00              OVMax= 1.93D-01

 Cycle   2  Pass 1  IDiag  1:
 E= -1136.11015048903     Delta-E=       -0.009475579983 Rises=F Damp=T
 DIIS: error= 7.33D-03 at cycle   2 NSaved=   2.
 NSaved= 2 IEnMin= 2 EnMin= -1136.11015048903     IErMin= 2 ErrMin= 7.33D-03
 ErrMax= 7.33D-03  0.00D+00 EMaxC= 1.00D-01 BMatC= 7.05D-02 BMatP= 1.83D-01
 IDIUse=3 WtCom= 9.27D-01 WtEn= 7.33D-02
 Coeff-Com: -0.129D+01 0.229D+01
 Coeff-En:   0.000D+00 0.100D+01
 Coeff:     -0.119D+01 0.219D+01
 Gap=     0.052 Goal=   None    Shift=    0.000
 Gap=     0.053 Goal=   None    Shift=    0.000
 RMSDP=5.25D-03 MaxDP=4.63D-01 DE=-9.48D-03 OVMax= 1.32D-01

 Cycle   3  Pass 1  IDiag  1:
 E= -1136.12757689699     Delta-E=       -0.017426407964 Rises=F Damp=F
 DIIS: error= 1.98D-03 at cycle   3 NSaved=   3.
 NSaved= 3 IEnMin= 3 EnMin= -1136.12757689699     IErMin= 3 ErrMin= 1.98D-03
 ErrMax= 1.98D-03  0.00D+00 EMaxC= 1.00D-01 BMatC= 1.48D-03 BMatP= 7.05D-02
 IDIUse=3 WtCom= 9.80D-01 WtEn= 1.98D-02
 Coeff-Com: -0.133D+00 0.232D+00 0.901D+00
 Coeff-En:   0.000D+00 0.000D+00 0.100D+01
 Coeff:     -0.130D+00 0.228D+00 0.903D+00
 Gap=     0.051 Goal=   None    Shift=    0.000
 Gap=     0.050 Goal=   None    Shift=    0.000
 RMSDP=2.27D-03 MaxDP=1.70D-01 DE=-1.74D-02 OVMax= 7.29D-02

 Cycle   4  Pass 1  IDiag  1:
 E= -1136.12719799116     Delta-E=        0.000378905831 Rises=F Damp=F
 DIIS: error= 2.28D-03 at cycle   4 NSaved=   4.
 NSaved= 4 IEnMin= 3 EnMin= -1136.12757689699     IErMin= 3 ErrMin= 1.98D-03
 ErrMax= 2.28D-03  0.00D+00 EMaxC= 1.00D-01 BMatC= 1.92D-03 BMatP= 1.48D-03
 IDIUse=3 WtCom= 1.73D-01 WtEn= 8.27D-01
 Coeff-Com: -0.449D-02 0.493D-02 0.533D+00 0.466D+00
 Coeff-En:   0.000D+00 0.000D+00 0.552D+00 0.448D+00
 Coeff:     -0.779D-03 0.854D-03 0.549D+00 0.451D+00
 Gap=     0.051 Goal=   None    Shift=    0.000
 Gap=     0.052 Goal=   None    Shift=    0.000
 RMSDP=1.06D-03 MaxDP=7.30D-02 DE= 3.79D-04 OVMax= 4.02D-02

 Cycle   5  Pass 1  IDiag  1:
 E= -1136.12901601379     Delta-E=       -0.001818022634 Rises=F Damp=F
 DIIS: error= 2.19D-04 at cycle   5 NSaved=   5.
 NSaved= 5 IEnMin= 5 EnMin= -1136.12901601379     IErMin= 5 ErrMin= 2.19D-04
 ErrMax= 2.19D-04  0.00D+00 EMaxC= 1.00D-01 BMatC= 1.96D-05 BMatP= 1.48D-03
 IDIUse=3 WtCom= 9.98D-01 WtEn= 2.19D-03
 Coeff-Com:  0.277D-03-0.151D-02 0.221D+00 0.176D+00 0.604D+00
 Coeff-En:   0.000D+00 0.000D+00 0.000D+00 0.000D+00 0.100D+01
 Coeff:      0.276D-03-0.150D-02 0.220D+00 0.176D+00 0.605D+00
 Gap=     0.050 Goal=   None    Shift=    0.000
 Gap=     0.052 Goal=   None    Shift=    0.000
 RMSDP=1.98D-04 MaxDP=1.20D-02 DE=-1.82D-03 OVMax= 8.93D-03

 Cycle   6  Pass 1  IDiag  1:
 E= -1136.12904281199     Delta-E=       -0.000026798194 Rises=F Damp=F
 DIIS: error= 1.95D-04 at cycle   6 NSaved=   6.
 NSaved= 6 IEnMin= 6 EnMin= -1136.12904281199     IErMin= 6 ErrMin= 1.95D-04
 ErrMax= 1.95D-04  0.00D+00 EMaxC= 1.00D-01 BMatC= 6.76D-06 BMatP= 1.96D-05
 IDIUse=3 WtCom= 9.98D-01 WtEn= 1.95D-03
 Coeff-Com:  0.137D-02-0.208D-02-0.133D+00-0.128D+00 0.346D+00 0.916D+00
 Coeff-En:   0.000D+00 0.000D+00 0.000D+00 0.000D+00 0.000D+00 0.100D+01
 Coeff:      0.137D-02-0.208D-02-0.133D+00-0.128D+00 0.345D+00 0.916D+00
 Gap=     0.051 Goal=   None    Shift=    0.000
 Gap=     0.053 Goal=   None    Shift=    0.000
 RMSDP=1.88D-04 MaxDP=1.44D-02 DE=-2.68D-05 OVMax= 6.95D-03

 Cycle   7  Pass 1  IDiag  1:
 E= -1136.12906225349     Delta-E=       -0.000019441502 Rises=F Damp=F
 DIIS: error= 4.32D-05 at cycle   7 NSaved=   7.
 NSaved= 7 IEnMin= 7 EnMin= -1136.12906225349     IErMin= 7 ErrMin= 4.32D-05
 ErrMax= 4.32D-05  0.00D+00 EMaxC= 1.00D-01 BMatC= 4.51D-07 BMatP= 6.76D-06
 IDIUse=1 WtCom= 1.00D+00 WtEn= 0.00D+00
 Coeff-Com:  0.114D-02-0.140D-02-0.377D-01-0.308D-01-0.681D-01 0.126D-01
 Coeff-Com:  0.112D+01
 Coeff:      0.114D-02-0.140D-02-0.377D-01-0.308D-01-0.681D-01 0.126D-01
 Coeff:      0.112D+01
 Gap=     0.051 Goal=   None    Shift=    0.000
 Gap=     0.053 Goal=   None    Shift=    0.000
 RMSDP=9.17D-05 MaxDP=6.16D-03 DE=-1.94D-05 OVMax= 3.23D-03

 Cycle   8  Pass 1  IDiag  1:
 E= -1136.12906490115     Delta-E=       -0.000002647658 Rises=F Damp=F
 DIIS: error= 2.95D-05 at cycle   8 NSaved=   8.
 NSaved= 8 IEnMin= 8 EnMin= -1136.12906490115     IErMin= 8 ErrMin= 2.95D-05
 ErrMax= 2.95D-05  0.00D+00 EMaxC= 1.00D-01 BMatC= 1.78D-07 BMatP= 4.51D-07
 IDIUse=1 WtCom= 1.00D+00 WtEn= 0.00D+00
 Coeff-Com:  0.622D-03-0.727D-03 0.338D-03 0.233D-02-0.798D-01-0.117D+00
 Coeff-Com:  0.510D+00 0.684D+00
 Coeff:      0.622D-03-0.727D-03 0.338D-03 0.233D-02-0.798D-01-0.117D+00
 Coeff:      0.510D+00 0.684D+00
 Gap=     0.051 Goal=   None    Shift=    0.000
 Gap=     0.053 Goal=   None    Shift=    0.000
 RMSDP=2.52D-05 MaxDP=1.64D-03 DE=-2.65D-06 OVMax= 1.57D-03

 Cycle   9  Pass 1  IDiag  1:
 E= -1136.12906535228     Delta-E=       -0.000000451134 Rises=F Damp=F
 DIIS: error= 1.82D-05 at cycle   9 NSaved=   9.
 NSaved= 9 IEnMin= 9 EnMin= -1136.12906535228     IErMin= 9 ErrMin= 1.82D-05
 ErrMax= 1.82D-05  0.00D+00 EMaxC= 1.00D-01 BMatC= 4.89D-08 BMatP= 1.78D-07
 IDIUse=1 WtCom= 1.00D+00 WtEn= 0.00D+00
 Coeff-Com:  0.112D-03-0.124D-03 0.899D-02 0.767D-02-0.243D-01-0.623D-01
 Coeff-Com: -0.173D-01 0.334D+00 0.753D+00
 Coeff:      0.112D-03-0.124D-03 0.899D-02 0.767D-02-0.243D-01-0.623D-01
 Coeff:     -0.173D-01 0.334D+00 0.753D+00
 Gap=     0.051 Goal=   None    Shift=    0.000
 Gap=     0.053 Goal=   None    Shift=    0.000
 RMSDP=1.46D-05 MaxDP=8.29D-04 DE=-4.51D-07 OVMax= 7.11D-04

 Cycle  10  Pass 1  IDiag  1:
 E= -1136.12906550893     Delta-E=       -0.000000156653 Rises=F Damp=F
 DIIS: error= 5.06D-06 at cycle  10 NSaved=  10.
 NSaved=10 IEnMin=10 EnMin= -1136.12906550893     IErMin=10 ErrMin= 5.06D-06
 ErrMax= 5.06D-06  0.00D+00 EMaxC= 1.00D-01 BMatC= 7.96D-09 BMatP= 4.89D-08
 IDIUse=1 WtCom= 1.00D+00 WtEn= 0.00D+00
 Coeff-Com: -0.186D-03 0.229D-03 0.298D-02 0.152D-02 0.145D-01 0.622D-02
 Coeff-Com: -0.118D+00-0.106D+00 0.148D+00 0.105D+01
 Coeff:     -0.186D-03 0.229D-03 0.298D-02 0.152D-02 0.145D-01 0.622D-02
 Coeff:     -0.118D+00-0.106D+00 0.148D+00 0.105D+01
 Gap=     0.051 Goal=   None    Shift=    0.000
 Gap=     0.053 Goal=   None    Shift=    0.000
 RMSDP=8.80D-06 MaxDP=4.00D-04 DE=-1.57D-07 OVMax= 4.57D-04

 Cycle  11  Pass 1  IDiag  1:
 E= -1136.12906555433     Delta-E=       -0.000000045397 Rises=F Damp=F
 DIIS: error= 2.52D-06 at cycle  11 NSaved=  11.
 NSaved=11 IEnMin=11 EnMin= -1136.12906555433     IErMin=11 ErrMin= 2.52D-06
 ErrMax= 2.52D-06  0.00D+00 EMaxC= 1.00D-01 BMatC= 1.27D-09 BMatP= 7.96D-09
 IDIUse=1 WtCom= 1.00D+00 WtEn= 0.00D+00
 Coeff-Com: -0.654D-04 0.760D-04-0.838D-03-0.858D-03 0.736D-02 0.858D-02
 Coeff-Com: -0.121D-01-0.780D-01-0.143D+00 0.181D+00 0.104D+01
 Coeff:     -0.654D-04 0.760D-04-0.838D-03-0.858D-03 0.736D-02 0.858D-02
 Coeff:     -0.121D-01-0.780D-01-0.143D+00 0.181D+00 0.104D+01
 Gap=     0.051 Goal=   None    Shift=    0.000
 Gap=     0.053 Goal=   None    Shift=    0.000
 RMSDP=4.10D-06 MaxDP=1.88D-04 DE=-4.54D-08 OVMax= 1.88D-04

 Cycle  12  Pass 1  IDiag  1:
 E= -1136.12906556210     Delta-E=       -0.000000007764 Rises=F Damp=F
 DIIS: error= 5.34D-07 at cycle  12 NSaved=  12.
 NSaved=12 IEnMin=12 EnMin= -1136.12906556210     IErMin=12 ErrMin= 5.34D-07
 ErrMax= 5.34D-07  0.00D+00 EMaxC= 1.00D-01 BMatC= 1.34D-10 BMatP= 1.27D-09
 IDIUse=1 WtCom= 1.00D+00 WtEn= 0.00D+00
 Coeff-Com:  0.367D-04-0.486D-04-0.317D-03-0.842D-04-0.194D-02-0.148D-02
 Coeff-Com:  0.177D-01 0.100D-01-0.373D-01-0.133D+00 0.966D-01 0.105D+01
 Coeff:      0.367D-04-0.486D-04-0.317D-03-0.842D-04-0.194D-02-0.148D-02
 Coeff:      0.177D-01 0.100D-01-0.373D-01-0.133D+00 0.966D-01 0.105D+01
 Gap=     0.051 Goal=   None    Shift=    0.000
 Gap=     0.053 Goal=   None    Shift=    0.000
 RMSDP=1.61D-06 MaxDP=1.20D-04 DE=-7.76D-09 OVMax= 6.65D-05

 Cycle  13  Pass 1  IDiag  1:
 E= -1136.12906556291     Delta-E=       -0.000000000812 Rises=F Damp=F
 DIIS: error= 2.44D-07 at cycle  13 NSaved=  13.
 NSaved=13 IEnMin=13 EnMin= -1136.12906556291     IErMin=13 ErrMin= 2.44D-07
 ErrMax= 2.44D-07  0.00D+00 EMaxC= 1.00D-01 BMatC= 1.61D-11 BMatP= 1.34D-10
 IDIUse=1 WtCom= 1.00D+00 WtEn= 0.00D+00
 Coeff-Com:  0.169D-04-0.211D-04-0.811D-05 0.376D-04-0.107D-02-0.119D-02
 Coeff-Com:  0.433D-02 0.102D-01 0.128D-01-0.365D-01-0.132D+00 0.109D+00
 Coeff-Com:  0.103D+01
 Coeff:      0.169D-04-0.211D-04-0.811D-05 0.376D-04-0.107D-02-0.119D-02
 Coeff:      0.433D-02 0.102D-01 0.128D-01-0.365D-01-0.132D+00 0.109D+00
 Coeff:      0.103D+01
 Gap=     0.051 Goal=   None    Shift=    0.000
 Gap=     0.053 Goal=   None    Shift=    0.000
 RMSDP=6.35D-07 MaxDP=5.10D-05 DE=-8.12D-10 OVMax= 2.25D-05

 Cycle  14  Pass 1  IDiag  1:
 E= -1136.12906556298     Delta-E=       -0.000000000068 Rises=F Damp=F
 DIIS: error= 6.60D-08 at cycle  14 NSaved=  14.
 NSaved=14 IEnMin=14 EnMin= -1136.12906556298     IErMin=14 ErrMin= 6.60D-08
 ErrMax= 6.60D-08  0.00D+00 EMaxC= 1.00D-01 BMatC= 1.81D-12 BMatP= 1.61D-11
 IDIUse=1 WtCom= 1.00D+00 WtEn= 0.00D+00
 Coeff-Com: -0.531D-05 0.711D-05 0.363D-04 0.216D-05 0.215D-03 0.137D-03
 Coeff-Com: -0.162D-02-0.135D-02 0.281D-02 0.120D-01 0.547D-02-0.124D+00
 Coeff-Com: -0.661D-04 0.111D+01
 Coeff:     -0.531D-05 0.711D-05 0.363D-04 0.216D-05 0.215D-03 0.137D-03
 Coeff:     -0.162D-02-0.135D-02 0.281D-02 0.120D-01 0.547D-02-0.124D+00
 Coeff:     -0.661D-04 0.111D+01
 Gap=     0.051 Goal=   None    Shift=    0.000
 Gap=     0.053 Goal=   None    Shift=    0.000
 RMSDP=1.53D-07 MaxDP=8.53D-06 DE=-6.78D-11 OVMax= 6.84D-06

 Cycle  15  Pass 1  IDiag  1:
 E= -1136.12906556300     Delta-E=       -0.000000000021 Rises=F Damp=F
 DIIS: error= 2.47D-08 at cycle  15 NSaved=  15.
 NSaved=15 IEnMin=15 EnMin= -1136.12906556300     IErMin=15 ErrMin= 2.47D-08
 ErrMax= 2.47D-08  0.00D+00 EMaxC= 1.00D-01 BMatC= 2.80D-13 BMatP= 1.81D-12
 IDIUse=1 WtCom= 1.00D+00 WtEn= 0.00D+00
 Coeff-Com: -0.325D-05 0.420D-05 0.114D-04-0.246D-05 0.174D-03 0.168D-03
 Coeff-Com: -0.903D-03-0.157D-02-0.377D-03 0.810D-02 0.116D-01-0.328D-01
 Coeff-Com: -0.125D+00 0.225D+00 0.916D+00
 Coeff:     -0.325D-05 0.420D-05 0.114D-04-0.246D-05 0.174D-03 0.168D-03
 Coeff:     -0.903D-03-0.157D-02-0.377D-03 0.810D-02 0.116D-01-0.328D-01
 Coeff:     -0.125D+00 0.225D+00 0.916D+00
 Gap=     0.051 Goal=   None    Shift=    0.000
 Gap=     0.053 Goal=   None    Shift=    0.000
 RMSDP=4.67D-08 MaxDP=2.06D-06 DE=-2.07D-11 OVMax= 1.87D-06

 Cycle  16  Pass 1  IDiag  1:
 E= -1136.12906556301     Delta-E=       -0.000000000011 Rises=F Damp=F
 DIIS: error= 9.44D-09 at cycle  16 NSaved=  16.
 NSaved=16 IEnMin=16 EnMin= -1136.12906556301     IErMin=16 ErrMin= 9.44D-09
 ErrMax= 9.44D-09  0.00D+00 EMaxC= 1.00D-01 BMatC= 4.79D-14 BMatP= 2.80D-13
 IDIUse=1 WtCom= 1.00D+00 WtEn= 0.00D+00
 Coeff-Com:  0.278D-06-0.406D-06-0.417D-05-0.132D-05 0.126D-04 0.718D-05
 Coeff-Com:  0.161D-04-0.296D-04-0.378D-03-0.601D-03 0.159D-02 0.114D-01
 Coeff-Com: -0.194D-01-0.115D+00 0.124D+00 0.999D+00
 Coeff:      0.278D-06-0.406D-06-0.417D-05-0.132D-05 0.126D-04 0.718D-05
 Coeff:      0.161D-04-0.296D-04-0.378D-03-0.601D-03 0.159D-02 0.114D-01
 Coeff:     -0.194D-01-0.115D+00 0.124D+00 0.999D+00
 Gap=     0.051 Goal=   None    Shift=    0.000
 Gap=     0.053 Goal=   None    Shift=    0.000
 RMSDP=2.50D-08 MaxDP=1.78D-06 DE=-1.07D-11 OVMax= 9.36D-07

 Cycle  17  Pass 1  IDiag  1:
 E= -1136.12906556300     Delta-E=        0.000000000007 Rises=F Damp=F
 DIIS: error= 4.22D-09 at cycle  17 NSaved=  17.
 NSaved=17 IEnMin=16 EnMin= -1136.12906556301     IErMin=17 ErrMin= 4.22D-09
 ErrMax= 4.22D-09  0.00D+00 EMaxC= 1.00D-01 BMatC= 1.04D-14 BMatP= 4.79D-14
 IDIUse=1 WtCom= 1.00D+00 WtEn= 0.00D+00
 Coeff-Com:  0.746D-06-0.971D-06-0.285D-05 0.463D-06-0.326D-04-0.347D-04
 Coeff-Com:  0.191D-03 0.309D-03-0.103D-04-0.171D-02-0.240D-02 0.865D-02
 Coeff-Com:  0.275D-01-0.799D-01-0.171D+00 0.163D+00 0.106D+01
 Coeff:      0.746D-06-0.971D-06-0.285D-05 0.463D-06-0.326D-04-0.347D-04
 Coeff:      0.191D-03 0.309D-03-0.103D-04-0.171D-02-0.240D-02 0.865D-02
 Coeff:      0.275D-01-0.799D-01-0.171D+00 0.163D+00 0.106D+01
 Gap=     0.051 Goal=   None    Shift=    0.000
 Gap=     0.053 Goal=   None    Shift=    0.000
 RMSDP=1.40D-08 MaxDP=1.01D-06 DE= 7.05D-12 OVMax= 5.13D-07

 Cycle  18  Pass 1  IDiag  1:
 E= -1136.12906556299     Delta-E=        0.000000000005 Rises=F Damp=F
 DIIS: error= 2.05D-09 at cycle  18 NSaved=  18.
 NSaved=18 IEnMin=16 EnMin= -1136.12906556301     IErMin=18 ErrMin= 2.05D-09
 ErrMax= 2.05D-09  0.00D+00 EMaxC= 1.00D-01 BMatC= 2.13D-15 BMatP= 1.04D-14
 IDIUse=1 WtCom= 1.00D+00 WtEn= 0.00D+00
 Large coefficients: NSaved= 18 BigCof=    0.00 CofMax=   10.00 Det=-4.36D-15
 Inversion failed.  Reducing to 17 matrices.
 Large coefficients: NSaved= 17 BigCof=    0.00 CofMax=   10.00 Det=-5.79D-15
 Inversion failed.  Reducing to 16 matrices.
 Large coefficients: NSaved= 16 BigCof=    0.00 CofMax=   10.00 Det=-5.96D-15
 Inversion failed.  Reducing to 15 matrices.
 Coeff-Com:  0.553D-07-0.331D-05 0.945D-06-0.476D-05 0.388D-04 0.943D-04
 Coeff-Com: -0.453D-04-0.558D-03-0.144D-02 0.651D-02 0.153D-01-0.546D-01
 Coeff-Com: -0.156D+00 0.166D+00 0.102D+01
 Coeff:      0.553D-07-0.331D-05 0.945D-06-0.476D-05 0.388D-04 0.943D-04
 Coeff:     -0.453D-04-0.558D-03-0.144D-02 0.651D-02 0.153D-01-0.546D-01
 Coeff:     -0.156D+00 0.166D+00 0.102D+01
 Gap=     0.051 Goal=   None    Shift=    0.000
 Gap=     0.053 Goal=   None    Shift=    0.000
 RMSDP=5.78D-09 MaxDP=3.98D-07 DE= 4.77D-12 OVMax= 2.32D-07

 SCF Done:  E(UB3LYP) =  -1136.12906556     A.U. after   18 cycles
            NFock= 18  Conv=0.58D-08     -V/T= 2.0029
 <Sx>= 0.0000 <Sy>= 0.0000 <Sz>= 0.5000 <S**2>= 0.7828 S= 0.5163
 <L.S>= 0.000000000000E+00
 KE= 1.132895263736D+03 PE=-3.324150798819D+03 EE= 7.577255288114D+02
 Annihilation of the first spin contaminant:
 S**2 before annihilation     0.7828,   after     0.7506
 Leave Link  502 at Tue Nov 28 19:16:42 2023, MaxMem=  1879048192 cpu:             166.1 elap:              14.9
 (Enter /home/sekinelabo/g16/l601.exe)
 Copying SCF densities to generalized density rwf, IOpCl= 1 IROHF=0.

 **********************************************************************

            Population analysis using the SCF Density.

 **********************************************************************

 Orbital symmetries:
 Alpha Orbitals:
       Occupied  (A) (A) (A) (A) (A) (A) (A) (A) (A) (A) (A) (A)
                 (A) (A) (A) (A) (A) (A) (A) (A) (A) (A) (A) (A)
                 (A) (A) (A) (A) (A) (A) (A) (A) (A) (A) (A) (A)
                 (A) (A) (A)
       Virtual   (A) (A) (A) (A) (A) (A) (A) (A) (A) (A) (A) (A)
                 (A) (A) (A) (A) (A) (A) (A) (A) (A) (A) (A) (A)
                 (A) (A) (A) (A) (A) (A) (A) (A) (A) (A) (A) (A)
                 (A) (A) (A) (A) (A) (A) (A) (A) (A) (A) (A) (A)
                 (A) (A) (A) (A) (A) (A) (A) (A) (A) (A) (A) (A)
                 (A) (A) (A) (A) (A) (A) (A) (A) (A) (A) (A) (A)
                 (A) (A) (A) (A) (A) (A) (A) (A) (A) (A) (A) (A)
                 (A) (A) (A) (A) (A) (A) (A) (A) (A) (A) (A) (A)
                 (A) (A) (A) (A) (A) (A) (A) (A) (A) (A) (A) (A)
                 (A) (A) (A) (A) (A) (A) (A) (A) (A) (A) (A) (A)
                 (A) (A) (A) (A) (A) (A) (A) (A) (A) (A) (A) (A)
                 (A) (A) (A) (A) (A) (A) (A) (A) (A) (A) (A) (A)
                 (A) (A) (A) (A) (A) (A) (A) (A) (A) (A) (A) (A)
                 (A) (A) (A) (A) (A) (A) (A) (A) (A) (A) (A) (A)
                 (A) (A) (A)
 Beta  Orbitals:
       Occupied  (A) (A) (A) (A) (A) (A) (A) (A) (A) (A) (A) (A)
                 (A) (A) (A) (A) (A) (A) (A) (A) (A) (A) (A) (A)
                 (A) (A) (A) (A) (A) (A) (A) (A) (A) (A) (A) (A)
                 (A) (A)
       Virtual   (A) (A) (A) (A) (A) (A) (A) (A) (A) (A) (A) (A)
                 (A) (A) (A) (A) (A) (A) (A) (A) (A) (A) (A) (A)
                 (A) (A) (A) (A) (A) (A) (A) (A) (A) (A) (A) (A)
                 (A) (A) (A) (A) (A) (A) (A) (A) (A) (A) (A) (A)
                 (A) (A) (A) (A) (A) (A) (A) (A) (A) (A) (A) (A)
                 (A) (A) (A) (A) (A) (A) (A) (A) (A) (A) (A) (A)
                 (A) (A) (A) (A) (A) (A) (A) (A) (A) (A) (A) (A)
                 (A) (A) (A) (A) (A) (A) (A) (A) (A) (A) (A) (A)
                 (A) (A) (A) (A) (A) (A) (A) (A) (A) (A) (A) (A)
                 (A) (A) (A) (A) (A) (A) (A) (A) (A) (A) (A) (A)
                 (A) (A) (A) (A) (A) (A) (A) (A) (A) (A) (A) (A)
                 (A) (A) (A) (A) (A) (A) (A) (A) (A) (A) (A) (A)
                 (A) (A) (A) (A) (A) (A) (A) (A) (A) (A) (A) (A)
                 (A) (A) (A) (A) (A) (A) (A) (A) (A) (A) (A) (A)
                 (A) (A) (A) (A)
 The electronic state is 2-A.
 Alpha  occ. eigenvalues --  -38.44105 -38.44091 -38.43878 -38.43853 -38.43756
 Alpha  occ. eigenvalues --  -38.43746 -38.43727  -2.19956  -2.19897  -2.19711
 Alpha  occ. eigenvalues --   -2.19668  -2.19632  -2.19584  -2.19577  -1.13664
 Alpha  occ. eigenvalues --   -1.13657  -1.13573  -1.13543  -1.13538  -1.13504
 Alpha  occ. eigenvalues --   -1.13406  -1.13365  -1.13360  -1.13355  -1.13346
 Alpha  occ. eigenvalues --   -1.13325  -1.13318  -1.13302  -1.13297  -1.13263
 Alpha  occ. eigenvalues --   -1.13253  -1.13233  -1.13215  -1.13162  -1.13144
 Alpha  occ. eigenvalues --   -0.17040  -0.13898  -0.12849  -0.10717
 Alpha virt. eigenvalues --   -0.05653  -0.05492  -0.04845  -0.03652  -0.02474
 Alpha virt. eigenvalues --   -0.02246  -0.01850  -0.01507  -0.01186  -0.00699
 Alpha virt. eigenvalues --   -0.00239  -0.00015   0.00557   0.00596   0.00728
 Alpha virt. eigenvalues --    0.00827   0.00918   0.01220   0.01244   0.01327
 Alpha virt. eigenvalues --    0.01416   0.01569   0.01817   0.01857   0.01975
 Alpha virt. eigenvalues --    0.02057   0.02172   0.02250   0.02330   0.02626
 Alpha virt. eigenvalues --    0.02813   0.02855   0.02996   0.03084   0.03143
 Alpha virt. eigenvalues --    0.03235   0.03291   0.03428   0.03555   0.03563
 Alpha virt. eigenvalues --    0.03617   0.03736   0.03971   0.04217   0.04409
 Alpha virt. eigenvalues --    0.04435   0.04943   0.05136   0.05515   0.05617
 Alpha virt. eigenvalues --    0.05828   0.06282   0.06678   0.07014   0.07195
 Alpha virt. eigenvalues --    0.07386   0.07760   0.08283   0.08369   0.08692
 Alpha virt. eigenvalues --    0.08912   0.09184   0.09670   0.10007   0.10223
 Alpha virt. eigenvalues --    0.10535   0.10880   0.11223   0.11956   0.12347
 Alpha virt. eigenvalues --    0.12744   0.13070   0.13306   0.13441   0.13979
 Alpha virt. eigenvalues --    0.14374   0.14842   0.16026   0.16656   0.17103
 Alpha virt. eigenvalues --    0.26710   0.27578   0.28374   0.28736   0.29756
 Alpha virt. eigenvalues --    0.29936   0.31036   0.32066   0.32397   0.33330
 Alpha virt. eigenvalues --    0.33375   0.34439   0.36096   0.36764   0.37230
 Alpha virt. eigenvalues --    0.37905   0.38877   0.39538   0.40068   0.41124
 Alpha virt. eigenvalues --    0.41352   0.41880   0.41980   0.43440   0.43457
 Alpha virt. eigenvalues --    0.43678   0.44163   0.44338   0.44546   0.44697
 Alpha virt. eigenvalues --    0.44952   0.45356   0.45886   0.45924   0.46362
 Alpha virt. eigenvalues --    0.46588   0.47181   0.47672   0.48438   0.48708
 Alpha virt. eigenvalues --    0.49449   0.50516   0.50906   0.51696   0.52545
 Alpha virt. eigenvalues --    0.52984   0.54666   0.54883   0.55072   0.56595
 Alpha virt. eigenvalues --    0.57408   0.57822   0.60035   0.65182   0.67704
 Alpha virt. eigenvalues --    0.72332   2.01971   2.09285   2.11610   2.13109
 Alpha virt. eigenvalues --    2.17851   2.18739   2.19874   4.43307   4.43635
 Alpha virt. eigenvalues --    4.44539   4.44879   4.45199   4.45324   4.45493
 Alpha virt. eigenvalues --    4.45997   4.46289   4.46532   4.47184   4.47604
 Alpha virt. eigenvalues --    4.47797   4.47971   4.48853   4.49143   4.49393
 Alpha virt. eigenvalues --    4.51578   4.57582   4.59165   4.65991  96.21047
 Alpha virt. eigenvalues --   96.30274  96.32916  96.34499  96.40101  96.41378
 Alpha virt. eigenvalues --   96.42878
  Beta  occ. eigenvalues --  -38.44097 -38.43992 -38.43837 -38.43826 -38.43758
  Beta  occ. eigenvalues --  -38.43742 -38.43687  -2.19946  -2.19713  -2.19646
  Beta  occ. eigenvalues --   -2.19628  -2.19613  -2.19588  -2.19508  -1.13656
  Beta  occ. eigenvalues --   -1.13650  -1.13544  -1.13417  -1.13413  -1.13409
  Beta  occ. eigenvalues --   -1.13388  -1.13336  -1.13329  -1.13315  -1.13294
  Beta  occ. eigenvalues --   -1.13288  -1.13279  -1.13266  -1.13260  -1.13236
  Beta  occ. eigenvalues --   -1.13219  -1.13217  -1.13210  -1.13146  -1.13092
  Beta  occ. eigenvalues --   -0.16634  -0.13136  -0.12482
  Beta virt. eigenvalues --   -0.07207  -0.05541  -0.05351  -0.04461  -0.03168
  Beta virt. eigenvalues --   -0.02137  -0.01931  -0.01605  -0.01292  -0.01050
  Beta virt. eigenvalues --   -0.00341   0.00075   0.00216   0.00631   0.00688
  Beta virt. eigenvalues --    0.00783   0.00912   0.00951   0.01271   0.01371
  Beta virt. eigenvalues --    0.01459   0.01474   0.01628   0.01928   0.01931
  Beta virt. eigenvalues --    0.02063   0.02093   0.02258   0.02363   0.02460
  Beta virt. eigenvalues --    0.02705   0.02889   0.02980   0.03040   0.03106
  Beta virt. eigenvalues --    0.03219   0.03286   0.03371   0.03461   0.03572
  Beta virt. eigenvalues --    0.03648   0.03666   0.03789   0.04067   0.04278
  Beta virt. eigenvalues --    0.04467   0.04500   0.05063   0.05232   0.05540
  Beta virt. eigenvalues --    0.05749   0.05928   0.06356   0.06748   0.07079
  Beta virt. eigenvalues --    0.07352   0.07499   0.07831   0.08440   0.08634
  Beta virt. eigenvalues --    0.08737   0.09132   0.09478   0.09678   0.10087
  Beta virt. eigenvalues --    0.10538   0.10767   0.11047   0.11402   0.12007
  Beta virt. eigenvalues --    0.12581   0.12825   0.13095   0.13478   0.13589
  Beta virt. eigenvalues --    0.14070   0.14564   0.15001   0.16253   0.16830
  Beta virt. eigenvalues --    0.17185   0.26969   0.27897   0.28525   0.29006
  Beta virt. eigenvalues --    0.30067   0.30213   0.31393   0.32231   0.32691
  Beta virt. eigenvalues --    0.33580   0.33887   0.34820   0.36551   0.37128
  Beta virt. eigenvalues --    0.37639   0.38364   0.39221   0.39889   0.40257
  Beta virt. eigenvalues --    0.41415   0.41631   0.42038   0.42124   0.43460
  Beta virt. eigenvalues --    0.43655   0.43861   0.44301   0.44487   0.44747
  Beta virt. eigenvalues --    0.44861   0.44987   0.45516   0.45908   0.46074
  Beta virt. eigenvalues --    0.46451   0.46567   0.47330   0.47760   0.48618
  Beta virt. eigenvalues --    0.48694   0.49576   0.50662   0.51046   0.51828
  Beta virt. eigenvalues --    0.52589   0.53159   0.54697   0.55067   0.55187
  Beta virt. eigenvalues --    0.56549   0.57501   0.57961   0.60212   0.65356
  Beta virt. eigenvalues --    0.67857   0.72289   2.02086   2.09595   2.11659
  Beta virt. eigenvalues --    2.13300   2.17936   2.18784   2.19907   4.43320
  Beta virt. eigenvalues --    4.43687   4.44601   4.44932   4.45274   4.45429
  Beta virt. eigenvalues --    4.45506   4.46097   4.46307   4.46588   4.47219
  Beta virt. eigenvalues --    4.47662   4.47835   4.48015   4.48885   4.49194
  Beta virt. eigenvalues --    4.49423   4.51611   4.57670   4.59222   4.65984
  Beta virt. eigenvalues --   96.21086  96.30381  96.32932  96.34560  96.40137
  Beta virt. eigenvalues --   96.41396  96.42891
          Condensed to atoms (all electrons):
               1          2          3          4          5          6
     1  Na  11.103048   0.272755  -0.028579  -0.168697   0.101879  -0.160618
     2  Na   0.272755  12.767934   0.247785  -0.136985   0.005778  -0.242632
     3  Na  -0.028579   0.247785  10.519712   0.208771  -0.039230  -0.018728
     4  Na  -0.168697  -0.136985   0.208771  11.235872  -0.193627   0.155746
     5  Na   0.101879   0.005778  -0.039230  -0.193627  10.608045  -0.058212
     6  Na  -0.160618  -0.242632  -0.018728   0.155746  -0.058212  10.796735
     7  Na   0.056112  -0.357495   0.010824   0.029236   0.014176  -0.007560
               7
     1  Na   0.056112
     2  Na  -0.357495
     3  Na   0.010824
     4  Na   0.029236
     5  Na   0.014176
     6  Na  -0.007560
     7  Na  10.587256
          Atomic-Atomic Spin Densities.
               1          2          3          4          5          6
     1  Na   0.492443  -0.163446  -0.063157  -0.175958   0.077913   0.064824
     2  Na  -0.163446  -0.039373  -0.059452   0.138218  -0.068448   0.201455
     3  Na  -0.063157  -0.059452  -0.020515   0.111538   0.003872   0.058245
     4  Na  -0.175958   0.138218   0.111538   0.097793   0.021329  -0.113372
     5  Na   0.077913  -0.068448   0.003872   0.021329   0.141575   0.039155
     6  Na   0.064824   0.201455   0.058245  -0.113372   0.039155   0.192202
     7  Na   0.011102  -0.034271  -0.008403  -0.005560   0.013630   0.020337
               7
     1  Na   0.011102
     2  Na  -0.034271
     3  Na  -0.008403
     4  Na  -0.005560
     5  Na   0.013630
     6  Na   0.020337
     7  Na  -0.003230
 Mulliken charges and spin densities:
               1          2
     1  Na  -0.175899   0.243722
     2  Na  -1.557139  -0.025316
     3  Na   0.099445   0.022127
     4  Na  -0.130317   0.073989
     5  Na   0.561191   0.229026
     6  Na   0.535267   0.462847
     7  Na   0.667451  -0.006395
 Sum of Mulliken charges =  -0.00000   1.00000
 Mulliken charges and spin densities with hydrogens summed into heavy atoms:
               1          2
     1  Na  -0.175899   0.243722
     2  Na  -1.557139  -0.025316
     3  Na   0.099445   0.022127
     4  Na  -0.130317   0.073989
     5  Na   0.561191   0.229026
     6  Na   0.535267   0.462847
     7  Na   0.667451  -0.006395
 Electronic spatial extent (au):  <R**2>=           3425.8429
 Charge=             -0.0000 electrons
 Dipole moment (field-independent basis, Debye):
    X=             -0.3662    Y=              0.2232    Z=             -0.1836  Tot=              0.4665
 Quadrupole moment (field-independent basis, Debye-Ang):
   XX=            -64.2146   YY=            -60.4390   ZZ=            -71.1626
   XY=              0.7653   XZ=             -1.8371   YZ=             -1.9059
 Traceless Quadrupole moment (field-independent basis, Debye-Ang):
   XX=              1.0575   YY=              4.8330   ZZ=             -5.8905
   XY=              0.7653   XZ=             -1.8371   YZ=             -1.9059
 Octapole moment (field-independent basis, Debye-Ang**2):
  XXX=            -15.7216  YYY=             24.2987  ZZZ=             -1.3164  XYY=              8.0446
  XXY=            -14.3483  XXZ=              6.9907  XZZ=             -7.2697  YZZ=              0.0320
  YYZ=            -10.9839  XYZ=              5.9685
 Hexadecapole moment (field-independent basis, Debye-Ang**3):
 XXXX=          -3327.2738 YYYY=          -1749.8036 ZZZZ=           -346.4035 XXXY=             78.0931
 XXXZ=            -89.9603 YYYX=            -20.8953 YYYZ=            -38.8940 ZZZX=             -7.6875
 ZZZY=             -7.5604 XXYY=           -865.8390 XXZZ=           -657.7070 YYZZ=           -395.7619
 XXYZ=            -26.5732 YYXZ=            -10.2973 ZZXY=              5.1614
 N-N= 2.974009407088D+02 E-N=-3.324150798383D+03  KE= 1.132895263736D+03
                          Isotropic Fermi Contact Couplings
        Atom                 a.u.       MegaHertz       Gauss      10(-4) cm-1
     1  Na(23)            -0.00564      -6.67764      -2.38275      -2.22742
     2  Na(23)            -0.01259     -14.89553      -5.31509      -4.96861
     3  Na(23)             0.00406       4.80283       1.71377       1.60205
     4  Na(23)             0.13101     154.99348      55.30553      51.70026
     5  Na(23)             0.22849     270.31034      96.45345      90.16583
     6  Na(23)             0.43103     509.92487     181.95387     170.09263
     7  Na(23)            -0.01147     -13.57052      -4.84230      -4.52664
 --------------------------------------------------------
       Center         ----  Spin Dipole Couplings  ----
                      3XX-RR        3YY-RR        3ZZ-RR
 --------------------------------------------------------
     1   Atom        0.032297     -0.019817     -0.012480
     2   Atom        0.026649     -0.018110     -0.008539
     3   Atom        0.046432     -0.023535     -0.022896
     4   Atom        0.028537     -0.013120     -0.015417
     5   Atom       -0.007640      0.008030     -0.000391
     6   Atom       -0.004092      0.000539      0.003554
     7   Atom        0.000319      0.001841     -0.002160
 --------------------------------------------------------
                        XY            XZ            YZ
 --------------------------------------------------------
     1   Atom        0.013367     -0.009789     -0.003588
     2   Atom        0.007410      0.010906      0.001890
     3   Atom        0.012697      0.012040      0.001375
     4   Atom       -0.007928     -0.001300     -0.000479
     5   Atom       -0.000815      0.004179     -0.001452
     6   Atom       -0.004472     -0.000441     -0.000195
     7   Atom        0.002988     -0.000251      0.000351
 --------------------------------------------------------


 ---------------------------------------------------------------------------------
              Anisotropic Spin Dipole Couplings in Principal Axis System
 ---------------------------------------------------------------------------------

       Atom             a.u.   MegaHertz   Gauss  10(-4) cm-1        Axes

              Baa    -0.0232    -3.277    -1.169    -1.093 -0.2099  0.9687  0.1324
     1 Na(23) Bbb    -0.0145    -2.042    -0.729    -0.681  0.2270 -0.0835  0.9703
              Bcc     0.0377     5.319     1.898     1.774  0.9510  0.2338 -0.2024
 
              Baa    -0.0193    -2.726    -0.973    -0.909 -0.1555  0.9877 -0.0159
     2 Na(23) Bbb    -0.0116    -1.644    -0.586    -0.548 -0.2690 -0.0269  0.9628
              Bcc     0.0309     4.370     1.559     1.458  0.9505  0.1540  0.2699
 
              Baa    -0.0262    -3.696    -1.319    -1.233 -0.2279  0.8456  0.4827
     3 Na(23) Bbb    -0.0245    -3.457    -1.234    -1.153 -0.0555 -0.5063  0.8606
              Bcc     0.0507     7.153     2.552     2.386  0.9721  0.1694  0.1623
 
              Baa    -0.0158    -2.237    -0.798    -0.746  0.1105  0.4753  0.8729
     4 Na(23) Bbb    -0.0142    -2.003    -0.715    -0.668  0.1450  0.8611 -0.4873
              Bcc     0.0300     4.240     1.513     1.414  0.9832 -0.1804 -0.0262
 
              Baa    -0.0095    -1.348    -0.481    -0.450  0.9102  0.0080 -0.4141
     5 Na(23) Bbb     0.0011     0.158     0.056     0.053  0.4010  0.2334  0.8859
              Bcc     0.0084     1.190     0.425     0.397 -0.1037  0.9723 -0.2093
 
              Baa    -0.0068    -0.965    -0.344    -0.322  0.8536  0.5189  0.0459
     6 Na(23) Bbb     0.0032     0.459     0.164     0.153 -0.5029  0.8438 -0.1874
              Bcc     0.0036     0.507     0.181     0.169 -0.1360  0.1368  0.9812
 
              Baa    -0.0025    -0.354    -0.126    -0.118  0.4940 -0.4021  0.7709
     7 Na(23) Bbb    -0.0017    -0.235    -0.084    -0.078 -0.6170  0.4625  0.6367
              Bcc     0.0042     0.588     0.210     0.196  0.6126  0.7902  0.0196
 

 ---------------------------------------------------------------------------------

 No NMR shielding tensors so no spin-rotation constants.
 Leave Link  601 at Tue Nov 28 19:16:42 2023, MaxMem=  1879048192 cpu:               2.2 elap:               0.2
 (Enter /home/sekinelabo/g16/l701.exe)
 ... and contract with generalized density number  0.
 Compute integral first derivatives.
 Leave Link  701 at Tue Nov 28 19:16:42 2023, MaxMem=  1879048192 cpu:               1.5 elap:               0.1
 (Enter /home/sekinelabo/g16/l702.exe)
 L702 exits ... SP integral derivatives will be done elsewhere.
 Leave Link  702 at Tue Nov 28 19:16:42 2023, MaxMem=  1879048192 cpu:               0.4 elap:               0.0
 (Enter /home/sekinelabo/g16/l703.exe)
 Integral derivatives from FoFJK, PRISM(SPDF).
 Compute integral first derivatives, UseDBF=F ICtDFT=           0.
 Calling FoFJK, ICntrl=      2127 FMM=F ISym2X=0 I1Cent= 0 IOpClX= 1 NMat=1 NMatS=1 NMatT=0.
 FoFJK:  IHMeth= 1 ICntrl=    2127 DoSepK=F KAlg= 0 I1Cent=           0 FoldK=F
 IRaf=         0 NMat=       1 IRICut=       1 DoRegI=T DoRafI=F ISym2E= 0 IDoP0=0 IntGTp=1.
 FoFCou: FMM=F IPFlag=           0 FMFlag=      100000 FMFlg1=         800
         NFxFlg=           0 DoJE=F BraDBF=F KetDBF=F FulRan=T
         wScrn=  0.000000 ICntrl=      2127 IOpCl=  1 I1Cent=           0 NGrid=           0
         NMat0=    1 NMatS0=      1 NMatT0=    0 NMatD0=    1 NMtDS0=    0 NMtDT0=    0
 Symmetry not used in FoFCou.
 Leave Link  703 at Tue Nov 28 19:16:44 2023, MaxMem=  1879048192 cpu:              30.2 elap:               2.0
 (Enter /home/sekinelabo/g16/l716.exe)
 Dipole        =-1.44056887D-01 8.78008771D-02-7.22326452D-02
 ***** Axes restored to original set *****
 -------------------------------------------------------------------
 Center     Atomic                   Forces (Hartrees/Bohr)
 Number     Number              X              Y              Z
 -------------------------------------------------------------------
      1       11           0.002077137    0.001806125    0.001232328
      2       11           0.003422819   -0.004905223   -0.001405220
      3       11           0.000808310    0.002766363    0.001842979
      4       11          -0.002449674    0.000000883    0.000420905
      5       11           0.000187952   -0.001213707   -0.000854883
      6       11          -0.001513651   -0.001310469   -0.000702784
      7       11          -0.002532893    0.002856027   -0.000533326
 -------------------------------------------------------------------
 Cartesian Forces:  Max     0.004905223 RMS     0.002027502
 Z-matrix is all fixed cartesians, so copy forces.
 Force constants in Cartesian coordinates: 
                1             2             3             4             5 
      1  0.792148D-01
      2 -0.304082D-02  0.872709D-01
      3  0.124104D-01 -0.267510D-02  0.604660D-01
      4 -0.220952D-01  0.735871D-03 -0.545999D-02  0.106058D+00
      5  0.444567D-02 -0.244415D-01  0.407792D-02 -0.483986D-02  0.115888D+00
      6  0.472342D-02  0.114887D-02 -0.302008D-01 -0.890873D-03 -0.211953D-02
      7 -0.902028D-03  0.341932D-02  0.136404D-02 -0.146509D-01  0.142685D-02
      8  0.453527D-02  0.379520D-02  0.156328D-02  0.239179D-02 -0.179045D-01
      9  0.465847D-03  0.202402D-02  0.594848D-02  0.603204D-02 -0.358969D-02
     10 -0.214574D-01  0.359255D-02  0.253337D-02 -0.205052D-01  0.174960D-02
     11 -0.979059D-03 -0.206187D-01 -0.107339D-01  0.431360D-02 -0.169316D-01
     12 -0.697985D-02 -0.245316D-03 -0.120832D-01  0.427921D-03 -0.475273D-02
     13 -0.191974D-01  0.719020D-02 -0.458397D-02 -0.121020D-02 -0.460621D-02
     14 -0.131732D-01 -0.316585D-01  0.372988D-02 -0.303524D-02  0.339014D-02
     15 -0.471447D-02  0.499630D-02 -0.166440D-01 -0.430880D-02 -0.306400D-02
     16  0.249985D-03  0.137441D-03 -0.544217D-03 -0.202618D-01 -0.573299D-02
     17  0.623499D-03  0.211271D-02 -0.115208D-02  0.241222D-02 -0.208518D-01
     18 -0.293842D-02 -0.988728D-03  0.651413D-02  0.100463D-01 -0.150273D-02
     19 -0.158127D-01 -0.120346D-01 -0.571959D-02 -0.273345D-01  0.755696D-02
     20  0.758859D-02 -0.164601D-01  0.518999D-02 -0.197838D-02 -0.391491D-01
     21 -0.296688D-02 -0.426005D-02 -0.140007D-01 -0.584665D-02  0.109508D-01
                6             7             8             9            10 
      6  0.124731D+00
      7 -0.646044D-04  0.522154D-01
      8  0.470390D-02 -0.898591D-02  0.516971D-01
      9 -0.238390D-01  0.352259D-02  0.125551D-01  0.358411D-01
     10 -0.430928D-03 -0.267184D-01 -0.702897D-02 -0.108271D-01  0.798962D-01
     11  0.238913D-03  0.114236D-01 -0.243915D-01 -0.194082D-02 -0.221000D-02
     12 -0.228775D-01  0.469565D-02 -0.909482D-02 -0.256838D-01  0.286924D-02
     13  0.858790D-03 -0.377379D-03 -0.183720D-03  0.128308D-02 -0.177882D-01
     14  0.636862D-03  0.404359D-03  0.105648D-02 -0.116063D-02  0.867393D-02
     15  0.315077D-02 -0.186656D-02 -0.892447D-03  0.641444D-02  0.841246D-02
     16 -0.309748D-02 -0.105321D-01  0.750535D-02  0.169065D-02  0.438212D-03
     17 -0.102653D-02 -0.804733D-02 -0.148342D-01 -0.723238D-02 -0.339816D-02
     18 -0.227933D-01 -0.678714D-02 -0.506084D-02 -0.479931D-02 -0.388843D-02
     19 -0.109832D-02  0.965299D-03  0.176618D-02 -0.216708D-02  0.613470D-02
     20 -0.358249D-02  0.359125D-03  0.581484D-03 -0.655543D-03 -0.137895D-02
     21 -0.281709D-01 -0.863974D-03 -0.377413D-02  0.611802D-02  0.133141D-02
               11            12            13            14            15 
     11  0.675445D-01
     12  0.178761D-01  0.720261D-01
     13 -0.846431D-02 -0.105830D-02  0.374013D-01
     14 -0.800356D-02 -0.375907D-02  0.785982D-02  0.340100D-01
     15  0.434519D-03 -0.179431D-01  0.204582D-02  0.172782D-02  0.191898D-01
     16 -0.424561D-02 -0.214835D-02 -0.365252D-05 -0.289505D-04 -0.264373D-05
     17  0.473128D-02  0.794814D-03 -0.787248D-04  0.144770D-05  0.137298D-03
     18 -0.955912D-03  0.255740D-02  0.475163D-05  0.770901D-04  0.509526D-04
     19  0.161790D-03  0.219369D-02  0.117557D-02 -0.700773D-03  0.434201D-03
     20 -0.233038D-02 -0.818934D-03 -0.171706D-02  0.120395D-02 -0.333949D-02
     21 -0.491887D-02  0.400400D-02  0.144983D-02 -0.125196D-02  0.578105D-02
               16            17            18            19            20 
     16  0.298677D-01
     17  0.226956D-02  0.262968D-01
     18  0.421343D-02  0.865167D-02  0.171393D-01
     19  0.241620D-03  0.621894D-02 -0.650544D-03  0.346301D-01
     20  0.951990D-04  0.254377D-02 -0.220543D-03 -0.296852D-02  0.536104D-01
     21 -0.111387D-03 -0.172784D-03  0.133079D-02  0.700765D-02  0.342701D-02
               21 
     21  0.249378D-01
 Leave Link  716 at Tue Nov 28 19:16:44 2023, MaxMem=  1879048192 cpu:               0.4 elap:               0.0
 (Enter /home/sekinelabo/g16/l103.exe)

 GradGradGradGradGradGradGradGradGradGradGradGradGradGradGradGradGradGrad
 Berny optimization.
 Search for a local minimum.
 Step number   1 out of a maximum of    2
 All quantities printed in internal units (Hartrees-Bohrs-Radians)
 Second derivative matrix not updated -- first step.
 ITU=  0
     Eigenvalues ---    0.01370   0.02436   0.02735   0.03432   0.04645
     Eigenvalues ---    0.05300   0.06306   0.06890   0.08665   0.10316
     Eigenvalues ---    0.11659   0.12566   0.13005   0.15108   0.15536
 Angle between quadratic step and forces=  33.45 degrees.
 Linear search not attempted -- first point.
 B after Tr=     0.000000   -0.000000    0.000000
         Rot=    1.000000    0.000000   -0.000000   -0.000000 Ang=   0.00 deg.
 Variable       Old X    -DE/DX   Delta X   Delta X   Delta X     New X
                                 (Linear)    (Quad)   (Total)
    X1       24.09306   0.00208   0.00000   0.02463   0.02463  24.11769
    Y1       30.79006   0.00181   0.00000   0.01117   0.01117  30.80123
    Z1       28.10382   0.00123   0.00000   0.01258   0.01258  28.11640
    X2       30.35562   0.00342   0.00000   0.02351   0.02351  30.37913
    Y2       30.46087  -0.00491   0.00000  -0.02958  -0.02958  30.43129
    Z2       30.87208  -0.00141   0.00000  -0.00960  -0.00960  30.86247
    X3       33.97576   0.00081   0.00000   0.00271   0.00271  33.97848
    Y3       24.92776   0.00277   0.00000   0.03177   0.03177  24.95953
    Z3       27.97777   0.00184   0.00000   0.02297   0.02297  28.00074
    X4       28.01273  -0.00245   0.00000  -0.00584  -0.00584  28.00689
    Y4       25.35899   0.00000   0.00000   0.00611   0.00611  25.36510
    Z4       26.29724   0.00042   0.00000   0.01432   0.01432  26.31156
    X5       21.20348   0.00019   0.00000   0.01815   0.01815  21.22163
    Y5       25.45480  -0.00121   0.00000  -0.01299  -0.01299  25.44181
    Z5       27.64972  -0.00085   0.00000  -0.01106  -0.01106  27.63866
    X6       37.18093  -0.00151   0.00000  -0.04049  -0.04049  37.14044
    Y6       30.25263  -0.00131   0.00000  -0.03816  -0.03816  30.21446
    Z6       31.41632  -0.00070   0.00000  -0.02902  -0.02902  31.38730
    X7       28.18319  -0.00253   0.00000  -0.02267  -0.02267  28.16051
    Y7       35.75948   0.00286   0.00000   0.03168   0.03168  35.79116
    Z7       30.68821  -0.00053   0.00000  -0.00018  -0.00018  30.68803
         Item               Value     Threshold  Converged?
 Maximum Force            0.004905     0.000450     NO 
 RMS     Force            0.002028     0.000300     NO 
 Maximum Displacement     0.040487     0.001800     NO 
 RMS     Displacement     0.022154     0.001200     NO 
 Predicted change in Energy=-3.935053D-04
 GradGradGradGradGradGradGradGradGradGradGradGradGradGradGradGradGradGrad

 Leave Link  103 at Tue Nov 28 19:16:44 2023, MaxMem=  1879048192 cpu:               0.2 elap:               0.0
 (Enter /home/sekinelabo/g16/l9999.exe)
 1\1\GINC-SEKINELABO-XA7R-R37\Force\UB3LYP\6-311+G(d)\Na7(2)\SEKINELABO
 \28-Nov-2023\0\\#P B3LYP/6-311+g(d) force\\DPGEN\\0,2\Na,12.7495,16.29
 34,14.8719\Na,16.0635,16.1192,16.3368\Na,17.9792,13.1912,14.8052\Na,14
 .8237,13.4194,13.9159\Na,11.2204,13.4701,14.6316\Na,19.6753,16.009,16.
 6248\Na,14.9139,18.9231,16.2395\\Version=ES64L-G16RevB.01\State=2-A\HF
 =-1136.1290656\S2=0.782781\S2-1=0.\S2A=0.750552\RMSD=5.784e-09\RMSF=2.
 028e-03\Dipole=-0.1473313,0.0807139,-0.0738762\Quadrupole=0.8644083,3.
 8267712,-4.6911795,0.1608282,-0.0853983,1.3488038\PG=C01 [X(Na7)]\\@


 I FIND THAT THE THREE TRULY GREAT TIMES FOR THINKING THOUGHTS
 ARE WHEN I AM STANDING IN THE SHOWER, SITTING ON THE JOHN, OR WALKING.

                                    -- COLIN FLETCHER
 Job cpu time:       0 days  0 hours  3 minutes 31.8 seconds.
 Elapsed time:       0 days  0 hours  0 minutes 18.0 seconds.
 File lengths (MBytes):  RWF=     32 Int=      0 D2E=      0 Chk=      4 Scr=      1
 Normal termination of Gaussian 16 at Tue Nov 28 19:16:44 2023.
