 Set GAUSS_MDEF to "14GB".
 Entering Gaussian System, Link 0=g16
 Initial command:
 /home/sekinelabo/g16/l1.exe "/home/sekinelabo/g16temp/Gau-984483.inp" -scrdir="/home/sekinelabo/g16temp/"
 Entering Link 1 = /home/sekinelabo/g16/l1.exe PID=    984485.
  
 Copyright (c) 1988-2017, Gaussian, Inc.  All Rights Reserved.
  
 This is part of the Gaussian(R) 16 program.  It is based on
 the Gaussian(R) 09 system (copyright 2009, Gaussian, Inc.),
 the Gaussian(R) 03 system (copyright 2003, Gaussian, Inc.),
 the Gaussian(R) 98 system (copyright 1998, Gaussian, Inc.),
 the Gaussian(R) 94 system (copyright 1995, Gaussian, Inc.),
 the Gaussian 92(TM) system (copyright 1992, Gaussian, Inc.),
 the Gaussian 90(TM) system (copyright 1990, Gaussian, Inc.),
 the Gaussian 88(TM) system (copyright 1988, Gaussian, Inc.),
 the Gaussian 86(TM) system (copyright 1986, Carnegie Mellon
 University), and the Gaussian 82(TM) system (copyright 1983,
 Carnegie Mellon University). Gaussian is a federally registered
 trademark of Gaussian, Inc.
  
 This software contains proprietary and confidential information,
 including trade secrets, belonging to Gaussian, Inc.
  
 This software is provided under written license and may be
 used, copied, transmitted, or stored only in accord with that
 written license.
  
 The following legend is applicable only to US Government
 contracts under FAR:
  
                    RESTRICTED RIGHTS LEGEND
  
 Use, reproduction and disclosure by the US Government is
 subject to restrictions as set forth in subparagraphs (a)
 and (c) of the Commercial Computer Software - Restricted
 Rights clause in FAR 52.227-19.
  
 Gaussian, Inc.
 340 Quinnipiac St., Bldg. 40, Wallingford CT 06492
  
  
 ---------------------------------------------------------------
 Warning -- This program may not be used in any manner that
 competes with the business of Gaussian, Inc. or will provide
 assistance to any competitor of Gaussian, Inc.  The licensee
 of this program is prohibited from giving any competitor of
 Gaussian, Inc. access to this program.  By using this program,
 the user acknowledges that Gaussian, Inc. is engaged in the
 business of creating and licensing software in the field of
 computational chemistry and represents and warrants to the
 licensee that it is not a competitor of Gaussian, Inc. and that
 it will not use this program in any manner prohibited above.
 ---------------------------------------------------------------
  

 Cite this work as:
 Gaussian 16, Revision B.01,
 M. J. Frisch, G. W. Trucks, H. B. Schlegel, G. E. Scuseria, 
 M. A. Robb, J. R. Cheeseman, G. Scalmani, V. Barone, 
 G. A. Petersson, H. Nakatsuji, X. Li, M. Caricato, A. V. Marenich, 
 J. Bloino, B. G. Janesko, R. Gomperts, B. Mennucci, H. P. Hratchian, 
 J. V. Ortiz, A. F. Izmaylov, J. L. Sonnenberg, D. Williams-Young, 
 F. Ding, F. Lipparini, F. Egidi, J. Goings, B. Peng, A. Petrone, 
 T. Henderson, D. Ranasinghe, V. G. Zakrzewski, J. Gao, N. Rega, 
 G. Zheng, W. Liang, M. Hada, M. Ehara, K. Toyota, R. Fukuda, 
 J. Hasegawa, M. Ishida, T. Nakajima, Y. Honda, O. Kitao, H. Nakai, 
 T. Vreven, K. Throssell, J. A. Montgomery, Jr., J. E. Peralta, 
 F. Ogliaro, M. J. Bearpark, J. J. Heyd, E. N. Brothers, K. N. Kudin, 
 V. N. Staroverov, T. A. Keith, R. Kobayashi, J. Normand, 
 K. Raghavachari, A. P. Rendell, J. C. Burant, S. S. Iyengar, 
 J. Tomasi, M. Cossi, J. M. Millam, M. Klene, C. Adamo, R. Cammi, 
 J. W. Ochterski, R. L. Martin, K. Morokuma, O. Farkas, 
 J. B. Foresman, and D. J. Fox, Gaussian, Inc., Wallingford CT, 2016.
 
 ******************************************
 Gaussian 16:  ES64L-G16RevB.01 20-Dec-2017
                 3-Dec-2023 
 ******************************************
 %nproc=15
 Will use up to   15 processors via shared memory.
 -------------------------
 #P B3LYP/6-311+g(d) force
 -------------------------
 1/10=7,30=1,38=1/1,3;
 2/12=2,17=6,18=5,40=1/2;
 3/5=4,6=6,7=11,11=2,25=1,30=1,71=1,74=-5/1,2,3;
 4//1;
 5/5=2,38=5/2;
 6/7=2,8=2,9=2,10=2,28=1/1;
 7/29=1/1,2,3,16;
 1/10=7,30=1/3;
 99//99;
 Leave Link    1 at Sun Dec  3 22:58:07 2023, MaxMem=           0 cpu:               0.3 elap:               0.0
 (Enter /home/sekinelabo/g16/l101.exe)
 -----
 DPGEN
 -----
 Symbolic Z-matrix:
 Charge =  0 Multiplicity = 2
 Na                    9.33977   13.2118   13.209 
 Na                    13.0424   9.53152   11.7069 
 Na                    12.1147   12.5897   9.76 
 Na                    15.3056   13.1973   11.5458 
 Na                    12.093    14.7143   12.5341 
 Na                    9.68809   9.69021   11.5374 
 Na                    13.0332   11.6822   14.3238 
 
 ITRead=  0  0  0  0  0  0  0
 MicOpt= -1 -1 -1 -1 -1 -1 -1
 NAtoms=      7 NQM=        7 NQMF=       0 NMMI=      0 NMMIF=      0
                NMic=       0 NMicF=      0.
                    Isotopes and Nuclear Properties:
 (Nuclear quadrupole moments (NQMom) in fm**2, nuclear magnetic moments (NMagM)
  in nuclear magnetons)

  Atom         1           2           3           4           5           6           7
 IAtWgt=          23          23          23          23          23          23          23
 AtmWgt=  22.9897697  22.9897697  22.9897697  22.9897697  22.9897697  22.9897697  22.9897697
 NucSpn=           3           3           3           3           3           3           3
 AtZEff=  -0.0000000  -0.0000000  -0.0000000  -0.0000000  -0.0000000  -0.0000000  -0.0000000
 NQMom=   10.4000000  10.4000000  10.4000000  10.4000000  10.4000000  10.4000000  10.4000000
 NMagM=    2.2175200   2.2175200   2.2175200   2.2175200   2.2175200   2.2175200   2.2175200
 AtZNuc=  11.0000000  11.0000000  11.0000000  11.0000000  11.0000000  11.0000000  11.0000000
 Leave Link  101 at Sun Dec  3 22:58:07 2023, MaxMem=  1879048192 cpu:               2.5 elap:               0.2
 (Enter /home/sekinelabo/g16/l103.exe)

 GradGradGradGradGradGradGradGradGradGradGradGradGradGradGradGradGradGrad
 Berny optimization.
 Initialization pass.
 Trust Radius=3.00D-01 FncErr=1.00D-07 GrdErr=1.00D-07 EigMax=2.50D+02 EigMin=1.00D-04
 Number of steps in this run=      2 maximum allowed number of steps=      2.
 GradGradGradGradGradGradGradGradGradGradGradGradGradGradGradGradGradGrad

 Leave Link  103 at Sun Dec  3 22:58:07 2023, MaxMem=  1879048192 cpu:               0.2 elap:               0.0
 (Enter /home/sekinelabo/g16/l202.exe)
                          Input orientation:                          
 ---------------------------------------------------------------------
 Center     Atomic      Atomic             Coordinates (Angstroms)
 Number     Number       Type             X           Y           Z
 ---------------------------------------------------------------------
      1         11           0        9.339770   13.211800   13.209000
      2         11           0       13.042400    9.531520   11.706900
      3         11           0       12.114700   12.589700    9.760000
      4         11           0       15.305600   13.197300   11.545800
      5         11           0       12.093000   14.714300   12.534100
      6         11           0        9.688090    9.690210   11.537400
      7         11           0       13.033200   11.682200   14.323800
 ---------------------------------------------------------------------
                    Distance matrix (angstroms):
                    1          2          3          4          5
     1  Na   0.000000
     2  Na   5.432332   0.000000
     3  Na   4.470218   3.742127   0.000000
     4  Na   6.193349   4.311145   3.706764   0.000000
     5  Na   3.208313   5.333557   3.494285   3.687658   0.000000
     6  Na   3.913716   3.362337   4.177874   6.622399   5.658488
     7  Na   4.150166   3.387281   4.742939   3.895717   3.644260
                    6          7
     6  Na   0.000000
     7  Na   4.787673   0.000000
 Stoichiometry    Na7(2)
 Framework group  C1[X(Na7)]
 Deg. of freedom    15
 Full point group                 C1      NOp   1
 Largest Abelian subgroup         C1      NOp   1
 Largest concise Abelian subgroup C1      NOp   1
                         Standard orientation:                         
 ---------------------------------------------------------------------
 Center     Atomic      Atomic             Coordinates (Angstroms)
 Number     Number       Type             X           Y           Z
 ---------------------------------------------------------------------
      1         11           0       -1.801466    2.599097    0.267761
      2         11           0       -0.498554   -2.671315    0.455940
      3         11           0        0.358431   -0.326635   -2.331812
      4         11           0        3.341724   -0.821048   -0.188071
      5         11           0        1.351971    2.283433   -0.231705
      6         11           0       -3.276400   -0.968678   -0.374668
      7         11           0        0.524294   -0.094855    2.402555
 ---------------------------------------------------------------------
 Rotational constants (GHZ):           0.6753111           0.5587105           0.4536238
 Leave Link  202 at Sun Dec  3 22:58:07 2023, MaxMem=  1879048192 cpu:               0.0 elap:               0.0
 (Enter /home/sekinelabo/g16/l301.exe)
 Standard basis: 6-311+G(d) (5D, 7F)
 Ernie: Thresh=  0.10000D-02 Tol=  0.10000D-05 Strict=F.
 There are   217 symmetry adapted cartesian basis functions of A   symmetry.
 There are   210 symmetry adapted basis functions of A   symmetry.
   210 basis functions,   350 primitive gaussians,   217 cartesian basis functions
    39 alpha electrons       38 beta electrons
       nuclear repulsion energy       320.2636386821 Hartrees.
 IExCor=  402 DFT=T Ex+Corr=B3LYP ExCW=0 ScaHFX=  0.200000
 ScaDFX=  0.800000  0.720000  1.000000  0.810000 ScalE2=  1.000000  1.000000
 IRadAn=      5 IRanWt=     -1 IRanGd=            0 ICorTp=0 IEmpDi=  4
 NAtoms=    7 NActive=    7 NUniq=    7 SFac= 1.00D+00 NAtFMM=   60 NAOKFM=F Big=F
 Integral buffers will be    131072 words long.
 Raffenetti 2 integral format.
 Two-electron integral symmetry is turned on.
 Leave Link  301 at Sun Dec  3 22:58:07 2023, MaxMem=  1879048192 cpu:               0.5 elap:               0.0
 (Enter /home/sekinelabo/g16/l302.exe)
 NPDir=0 NMtPBC=     1 NCelOv=     1 NCel=       1 NClECP=     1 NCelD=      1
         NCelK=      1 NCelE2=     1 NClLst=     1 CellRange=     0.0.
 One-electron integrals computed using PRISM.
 One-electron integral symmetry used in STVInt
 NBasis=   210 RedAO= T EigKep=  4.90D-06  NBF=   210
 NBsUse=   210 1.00D-06 EigRej= -1.00D+00 NBFU=   210
 Precomputing XC quadrature grid using
 IXCGrd= 4 IRadAn=           5 IRanWt=          -1 IRanGd=           0 AccXCQ= 0.00D+00.
 Generated NRdTot=       0 NPtTot=           0 NUsed=           0 NTot=          32
 NSgBfM=   209   209   209   209   209 MxSgAt=     7 MxSgA2=     7.
 Leave Link  302 at Sun Dec  3 22:58:07 2023, MaxMem=  1879048192 cpu:               2.0 elap:               0.1
 (Enter /home/sekinelabo/g16/l303.exe)
 DipDrv:  MaxL=1.
 Leave Link  303 at Sun Dec  3 22:58:07 2023, MaxMem=  1879048192 cpu:               0.5 elap:               0.0
 (Enter /home/sekinelabo/g16/l401.exe)
 ExpMin= 7.60D-03 ExpMax= 3.62D+04 ExpMxC= 1.21D+03 IAcc=3 IRadAn=         5 AccDes= 0.00D+00
 Harris functional with IExCor=  402 and IRadAn=       5 diagonalized for initial guess.
 HarFok:  IExCor=  402 AccDes= 0.00D+00 IRadAn=         5 IDoV= 1 UseB2=F ITyADJ=14
 ICtDFT=  3500011 ScaDFX=  1.000000  1.000000  1.000000  1.000000
 FoFCou: FMM=F IPFlag=           0 FMFlag=      100000 FMFlg1=           0
         NFxFlg=           0 DoJE=T BraDBF=F KetDBF=T FulRan=T
         wScrn=  0.000000 ICntrl=       500 IOpCl=  0 I1Cent=   200000004 NGrid=           0
         NMat0=    1 NMatS0=      1 NMatT0=    0 NMatD0=    1 NMtDS0=    0 NMtDT0=    0
 Petite list used in FoFCou.
 Harris En= -1135.89780608212    
 JPrj=0 DoOrth=F DoCkMO=F.
 Initial guess <Sx>= 0.0000 <Sy>= 0.0000 <Sz>= 0.5000 <S**2>= 0.7500 S= 0.5000
 Leave Link  401 at Sun Dec  3 22:58:08 2023, MaxMem=  1879048192 cpu:               4.4 elap:               0.3
 (Enter /home/sekinelabo/g16/l502.exe)
 Keep R1 and R2 ints in memory in canonical form, NReq=506573307.
 FoFCou: FMM=F IPFlag=           0 FMFlag=           0 FMFlg1=           0
         NFxFlg=           0 DoJE=F BraDBF=F KetDBF=F FulRan=T
         wScrn=  0.000000 ICntrl=       600 IOpCl=  0 I1Cent=           0 NGrid=           0
         NMat0=    1 NMatS0=  22155 NMatT0=    0 NMatD0=    1 NMtDS0=    0 NMtDT0=    0
 Symmetry not used in FoFCou.
 Two-electron integral symmetry not used.
 UHF open shell SCF:
 Using DIIS extrapolation, IDIIS=  1040.
 NGot=  1879048192 LenX=  1388082593 LenY=  1388035063
 Requested convergence on RMS density matrix=1.00D-08 within 128 cycles.
 Requested convergence on MAX density matrix=1.00D-06.
 Requested convergence on             energy=1.00D-06.
 No special actions if energy rises.

 Cycle   1  Pass 1  IDiag  1:
 E= -1136.09752926673    
 DIIS: error= 1.14D-02 at cycle   1 NSaved=   1.
 NSaved= 1 IEnMin= 1 EnMin= -1136.09752926673     IErMin= 1 ErrMin= 1.14D-02
 ErrMax= 1.14D-02  0.00D+00 EMaxC= 1.00D-01 BMatC= 1.90D-01 BMatP= 1.90D-01
 IDIUse=3 WtCom= 8.86D-01 WtEn= 1.14D-01
 Coeff-Com:  0.100D+01
 Coeff-En:   0.100D+01
 Coeff:      0.100D+01
 Gap=     0.047 Goal=   None    Shift=    0.000
 Gap=     0.039 Goal=   None    Shift=    0.000
 GapD=    0.039 DampG=0.250 DampE=0.500 DampFc=0.2500 IDamp=-1.
 Damping current iteration by 2.50D-01
 RMSDP=1.64D-02 MaxDP=1.03D+00              OVMax= 1.94D-01

 Cycle   2  Pass 1  IDiag  1:
 E= -1136.10822203118     Delta-E=       -0.010692764447 Rises=F Damp=T
 DIIS: error= 8.07D-03 at cycle   2 NSaved=   2.
 NSaved= 2 IEnMin= 2 EnMin= -1136.10822203118     IErMin= 2 ErrMin= 8.07D-03
 ErrMax= 8.07D-03  0.00D+00 EMaxC= 1.00D-01 BMatC= 7.27D-02 BMatP= 1.90D-01
 IDIUse=3 WtCom= 9.19D-01 WtEn= 8.07D-02
 Coeff-Com: -0.130D+01 0.230D+01
 Coeff-En:   0.000D+00 0.100D+01
 Coeff:     -0.119D+01 0.219D+01
 Gap=     0.059 Goal=   None    Shift=    0.000
 Gap=     0.040 Goal=   None    Shift=    0.000
 RMSDP=1.01D-02 MaxDP=8.51D-01 DE=-1.07D-02 OVMax= 1.07D-01

 Cycle   3  Pass 1  IDiag  1:
 E= -1136.12845917905     Delta-E=       -0.020237147868 Rises=F Damp=F
 DIIS: error= 1.44D-03 at cycle   3 NSaved=   3.
 NSaved= 3 IEnMin= 3 EnMin= -1136.12845917905     IErMin= 3 ErrMin= 1.44D-03
 ErrMax= 1.44D-03  0.00D+00 EMaxC= 1.00D-01 BMatC= 7.05D-04 BMatP= 7.27D-02
 IDIUse=3 WtCom= 9.86D-01 WtEn= 1.44D-02
 Coeff-Com: -0.293D-01 0.665D-01 0.963D+00
 Coeff-En:   0.000D+00 0.000D+00 0.100D+01
 Coeff:     -0.288D-01 0.656D-01 0.963D+00
 Gap=     0.054 Goal=   None    Shift=    0.000
 Gap=     0.040 Goal=   None    Shift=    0.000
 RMSDP=2.35D-03 MaxDP=1.60D-01 DE=-2.02D-02 OVMax= 5.13D-02

 Cycle   4  Pass 1  IDiag  1:
 E= -1136.12786801418     Delta-E=        0.000591164872 Rises=F Damp=F
 DIIS: error= 1.58D-03 at cycle   4 NSaved=   4.
 NSaved= 4 IEnMin= 3 EnMin= -1136.12845917905     IErMin= 3 ErrMin= 1.44D-03
 ErrMax= 1.58D-03  0.00D+00 EMaxC= 1.00D-01 BMatC= 1.15D-03 BMatP= 7.05D-04
 IDIUse=3 WtCom= 2.01D-01 WtEn= 7.99D-01
 Coeff-Com:  0.148D-01-0.198D-01 0.567D+00 0.438D+00
 Coeff-En:   0.000D+00 0.000D+00 0.643D+00 0.357D+00
 Coeff:      0.298D-02-0.397D-02 0.627D+00 0.374D+00
 Gap=     0.056 Goal=   None    Shift=    0.000
 Gap=     0.041 Goal=   None    Shift=    0.000
 RMSDP=8.56D-04 MaxDP=3.78D-02 DE= 5.91D-04 OVMax= 3.29D-02

 Cycle   5  Pass 1  IDiag  1:
 E= -1136.12907907390     Delta-E=       -0.001211059723 Rises=F Damp=F
 DIIS: error= 3.44D-04 at cycle   5 NSaved=   5.
 NSaved= 5 IEnMin= 5 EnMin= -1136.12907907390     IErMin= 5 ErrMin= 3.44D-04
 ErrMax= 3.44D-04  0.00D+00 EMaxC= 1.00D-01 BMatC= 4.08D-05 BMatP= 7.05D-04
 IDIUse=3 WtCom= 9.97D-01 WtEn= 3.44D-03
 Coeff-Com:  0.882D-03-0.182D-02 0.304D+00 0.184D+00 0.512D+00
 Coeff-En:   0.000D+00 0.000D+00 0.000D+00 0.000D+00 0.100D+01
 Coeff:      0.879D-03-0.182D-02 0.303D+00 0.183D+00 0.514D+00
 Gap=     0.057 Goal=   None    Shift=    0.000
 Gap=     0.040 Goal=   None    Shift=    0.000
 RMSDP=2.16D-04 MaxDP=8.92D-03 DE=-1.21D-03 OVMax= 5.66D-03

 Cycle   6  Pass 1  IDiag  1:
 E= -1136.12910784055     Delta-E=       -0.000028766652 Rises=F Damp=F
 DIIS: error= 6.66D-05 at cycle   6 NSaved=   6.
 NSaved= 6 IEnMin= 6 EnMin= -1136.12910784055     IErMin= 6 ErrMin= 6.66D-05
 ErrMax= 6.66D-05  0.00D+00 EMaxC= 1.00D-01 BMatC= 1.89D-06 BMatP= 4.08D-05
 IDIUse=1 WtCom= 1.00D+00 WtEn= 0.00D+00
 Coeff-Com: -0.446D-02 0.558D-02-0.393D-01-0.442D-01 0.132D+00 0.951D+00
 Coeff:     -0.446D-02 0.558D-02-0.393D-01-0.442D-01 0.132D+00 0.951D+00
 Gap=     0.057 Goal=   None    Shift=    0.000
 Gap=     0.041 Goal=   None    Shift=    0.000
 RMSDP=1.17D-04 MaxDP=9.24D-03 DE=-2.88D-05 OVMax= 3.35D-03

 Cycle   7  Pass 1  IDiag  1:
 E= -1136.12911155225     Delta-E=       -0.000003711695 Rises=F Damp=F
 DIIS: error= 7.50D-05 at cycle   7 NSaved=   7.
 NSaved= 7 IEnMin= 7 EnMin= -1136.12911155225     IErMin= 6 ErrMin= 6.66D-05
 ErrMax= 7.50D-05  0.00D+00 EMaxC= 1.00D-01 BMatC= 8.82D-07 BMatP= 1.89D-06
 IDIUse=1 WtCom= 1.00D+00 WtEn= 0.00D+00
 Coeff-Com: -0.260D-02 0.327D-02-0.466D-01-0.395D-01 0.420D-01 0.548D+00
 Coeff-Com:  0.495D+00
 Coeff:     -0.260D-02 0.327D-02-0.466D-01-0.395D-01 0.420D-01 0.548D+00
 Coeff:      0.495D+00
 Gap=     0.057 Goal=   None    Shift=    0.000
 Gap=     0.041 Goal=   None    Shift=    0.000
 RMSDP=2.93D-05 MaxDP=2.76D-03 DE=-3.71D-06 OVMax= 1.84D-03

 Cycle   8  Pass 1  IDiag  1:
 E= -1136.12911297188     Delta-E=       -0.000001419628 Rises=F Damp=F
 DIIS: error= 3.97D-05 at cycle   8 NSaved=   8.
 NSaved= 8 IEnMin= 8 EnMin= -1136.12911297188     IErMin= 8 ErrMin= 3.97D-05
 ErrMax= 3.97D-05  0.00D+00 EMaxC= 1.00D-01 BMatC= 2.69D-07 BMatP= 8.82D-07
 IDIUse=1 WtCom= 1.00D+00 WtEn= 0.00D+00
 Coeff-Com:  0.946D-03-0.119D-02-0.108D-01-0.213D-02-0.423D-01-0.168D+00
 Coeff-Com:  0.356D+00 0.867D+00
 Coeff:      0.946D-03-0.119D-02-0.108D-01-0.213D-02-0.423D-01-0.168D+00
 Coeff:      0.356D+00 0.867D+00
 Gap=     0.057 Goal=   None    Shift=    0.000
 Gap=     0.041 Goal=   None    Shift=    0.000
 RMSDP=2.78D-05 MaxDP=2.55D-03 DE=-1.42D-06 OVMax= 1.72D-03

 Cycle   9  Pass 1  IDiag  1:
 E= -1136.12911389527     Delta-E=       -0.000000923393 Rises=F Damp=F
 DIIS: error= 1.16D-05 at cycle   9 NSaved=   9.
 NSaved= 9 IEnMin= 9 EnMin= -1136.12911389527     IErMin= 9 ErrMin= 1.16D-05
 ErrMax= 1.16D-05  0.00D+00 EMaxC= 1.00D-01 BMatC= 2.99D-08 BMatP= 2.69D-07
 IDIUse=1 WtCom= 1.00D+00 WtEn= 0.00D+00
 Coeff-Com:  0.722D-03-0.917D-03 0.445D-02 0.466D-02-0.170D-01-0.934D-01
 Coeff-Com: -0.617D-02 0.110D+00 0.998D+00
 Coeff:      0.722D-03-0.917D-03 0.445D-02 0.466D-02-0.170D-01-0.934D-01
 Coeff:     -0.617D-02 0.110D+00 0.998D+00
 Gap=     0.057 Goal=   None    Shift=    0.000
 Gap=     0.041 Goal=   None    Shift=    0.000
 RMSDP=1.24D-05 MaxDP=6.86D-04 DE=-9.23D-07 OVMax= 1.02D-03

 Cycle  10  Pass 1  IDiag  1:
 E= -1136.12911409279     Delta-E=       -0.000000197520 Rises=F Damp=F
 DIIS: error= 9.91D-06 at cycle  10 NSaved=  10.
 NSaved=10 IEnMin=10 EnMin= -1136.12911409279     IErMin=10 ErrMin= 9.91D-06
 ErrMax= 9.91D-06  0.00D+00 EMaxC= 1.00D-01 BMatC= 2.58D-08 BMatP= 2.99D-08
 IDIUse=1 WtCom= 1.00D+00 WtEn= 0.00D+00
 Coeff-Com:  0.151D-03-0.193D-03 0.839D-02 0.475D-02 0.370D-02-0.203D-02
 Coeff-Com: -0.151D+00-0.291D+00 0.743D+00 0.685D+00
 Coeff:      0.151D-03-0.193D-03 0.839D-02 0.475D-02 0.370D-02-0.203D-02
 Coeff:     -0.151D+00-0.291D+00 0.743D+00 0.685D+00
 Gap=     0.057 Goal=   None    Shift=    0.000
 Gap=     0.041 Goal=   None    Shift=    0.000
 RMSDP=9.09D-06 MaxDP=5.20D-04 DE=-1.98D-07 OVMax= 7.15D-04

 Cycle  11  Pass 1  IDiag  1:
 E= -1136.12911420415     Delta-E=       -0.000000111357 Rises=F Damp=F
 DIIS: error= 3.45D-06 at cycle  11 NSaved=  11.
 NSaved=11 IEnMin=11 EnMin= -1136.12911420415     IErMin=11 ErrMin= 3.45D-06
 ErrMax= 3.45D-06  0.00D+00 EMaxC= 1.00D-01 BMatC= 3.56D-09 BMatP= 2.58D-08
 IDIUse=1 WtCom= 1.00D+00 WtEn= 0.00D+00
 Coeff-Com: -0.327D-03 0.422D-03 0.697D-03-0.121D-03 0.709D-02 0.270D-01
 Coeff-Com: -0.231D-01-0.960D-01-0.220D+00 0.143D+00 0.116D+01
 Coeff:     -0.327D-03 0.422D-03 0.697D-03-0.121D-03 0.709D-02 0.270D-01
 Coeff:     -0.231D-01-0.960D-01-0.220D+00 0.143D+00 0.116D+01
 Gap=     0.057 Goal=   None    Shift=    0.000
 Gap=     0.041 Goal=   None    Shift=    0.000
 RMSDP=6.20D-06 MaxDP=2.53D-04 DE=-1.11D-07 OVMax= 6.17D-04

 Cycle  12  Pass 1  IDiag  1:
 E= -1136.12911423739     Delta-E=       -0.000000033246 Rises=F Damp=F
 DIIS: error= 1.51D-06 at cycle  12 NSaved=  12.
 NSaved=12 IEnMin=12 EnMin= -1136.12911423739     IErMin=12 ErrMin= 1.51D-06
 ErrMax= 1.51D-06  0.00D+00 EMaxC= 1.00D-01 BMatC= 9.02D-10 BMatP= 3.56D-09
 IDIUse=1 WtCom= 1.00D+00 WtEn= 0.00D+00
 Coeff-Com: -0.173D-03 0.221D-03-0.140D-02-0.105D-02 0.281D-02 0.152D-01
 Coeff-Com:  0.124D-01 0.119D-03-0.206D+00-0.620D-01 0.473D+00 0.766D+00
 Coeff:     -0.173D-03 0.221D-03-0.140D-02-0.105D-02 0.281D-02 0.152D-01
 Coeff:      0.124D-01 0.119D-03-0.206D+00-0.620D-01 0.473D+00 0.766D+00
 Gap=     0.057 Goal=   None    Shift=    0.000
 Gap=     0.041 Goal=   None    Shift=    0.000
 RMSDP=2.01D-06 MaxDP=8.10D-05 DE=-3.32D-08 OVMax= 2.06D-04

 Cycle  13  Pass 1  IDiag  1:
 E= -1136.12911424193     Delta-E=       -0.000000004533 Rises=F Damp=F
 DIIS: error= 7.60D-07 at cycle  13 NSaved=  13.
 NSaved=13 IEnMin=13 EnMin= -1136.12911424193     IErMin=13 ErrMin= 7.60D-07
 ErrMax= 7.60D-07  0.00D+00 EMaxC= 1.00D-01 BMatC= 1.44D-10 BMatP= 9.02D-10
 IDIUse=1 WtCom= 1.00D+00 WtEn= 0.00D+00
 Coeff-Com:  0.108D-03-0.141D-03-0.267D-03 0.951D-04-0.230D-02-0.884D-02
 Coeff-Com:  0.118D-01 0.377D-01 0.279D-01-0.580D-01-0.254D+00-0.581D-01
 Coeff-Com:  0.130D+01
 Coeff:      0.108D-03-0.141D-03-0.267D-03 0.951D-04-0.230D-02-0.884D-02
 Coeff:      0.118D-01 0.377D-01 0.279D-01-0.580D-01-0.254D+00-0.581D-01
 Coeff:      0.130D+01
 Gap=     0.057 Goal=   None    Shift=    0.000
 Gap=     0.041 Goal=   None    Shift=    0.000
 RMSDP=1.62D-06 MaxDP=8.71D-05 DE=-4.53D-09 OVMax= 1.55D-04

 Cycle  14  Pass 1  IDiag  1:
 E= -1136.12911424349     Delta-E=       -0.000000001561 Rises=F Damp=F
 DIIS: error= 3.36D-07 at cycle  14 NSaved=  14.
 NSaved=14 IEnMin=14 EnMin= -1136.12911424349     IErMin=14 ErrMin= 3.36D-07
 ErrMax= 3.36D-07  0.00D+00 EMaxC= 1.00D-01 BMatC= 2.48D-11 BMatP= 1.44D-10
 IDIUse=1 WtCom= 1.00D+00 WtEn= 0.00D+00
 Coeff-Com:  0.193D-04-0.242D-04 0.184D-03 0.145D-03-0.387D-03-0.151D-02
 Coeff-Com: -0.226D-02-0.212D-02 0.305D-01 0.803D-02-0.534D-01-0.102D+00
 Coeff-Com: -0.944D-01 0.122D+01
 Coeff:      0.193D-04-0.242D-04 0.184D-03 0.145D-03-0.387D-03-0.151D-02
 Coeff:     -0.226D-02-0.212D-02 0.305D-01 0.803D-02-0.534D-01-0.102D+00
 Coeff:     -0.944D-01 0.122D+01
 Gap=     0.057 Goal=   None    Shift=    0.000
 Gap=     0.041 Goal=   None    Shift=    0.000
 RMSDP=7.97D-07 MaxDP=4.45D-05 DE=-1.56D-09 OVMax= 6.03D-05

 Cycle  15  Pass 1  IDiag  1:
 E= -1136.12911424377     Delta-E=       -0.000000000286 Rises=F Damp=F
 DIIS: error= 1.69D-07 at cycle  15 NSaved=  15.
 NSaved=15 IEnMin=15 EnMin= -1136.12911424377     IErMin=15 ErrMin= 1.69D-07
 ErrMax= 1.69D-07  0.00D+00 EMaxC= 1.00D-01 BMatC= 6.32D-12 BMatP= 2.48D-11
 IDIUse=1 WtCom= 1.00D+00 WtEn= 0.00D+00
 Coeff-Com: -0.328D-04 0.430D-04 0.613D-04-0.393D-04 0.553D-03 0.270D-02
 Coeff-Com: -0.326D-02-0.105D-01-0.741D-02 0.130D-01 0.750D-01 0.174D-01
 Coeff-Com: -0.381D+00 0.544D-01 0.124D+01
 Coeff:     -0.328D-04 0.430D-04 0.613D-04-0.393D-04 0.553D-03 0.270D-02
 Coeff:     -0.326D-02-0.105D-01-0.741D-02 0.130D-01 0.750D-01 0.174D-01
 Coeff:     -0.381D+00 0.544D-01 0.124D+01
 Gap=     0.057 Goal=   None    Shift=    0.000
 Gap=     0.041 Goal=   None    Shift=    0.000
 RMSDP=4.71D-07 MaxDP=2.68D-05 DE=-2.86D-10 OVMax= 3.36D-05

 Cycle  16  Pass 1  IDiag  1:
 E= -1136.12911424383     Delta-E=       -0.000000000055 Rises=F Damp=F
 DIIS: error= 5.83D-08 at cycle  16 NSaved=  16.
 NSaved=16 IEnMin=16 EnMin= -1136.12911424383     IErMin=16 ErrMin= 5.83D-08
 ErrMax= 5.83D-08  0.00D+00 EMaxC= 1.00D-01 BMatC= 5.71D-13 BMatP= 6.32D-12
 IDIUse=1 WtCom= 1.00D+00 WtEn= 0.00D+00
 Coeff-Com:  0.563D-05-0.760D-05-0.252D-04-0.783D-06-0.775D-04-0.510D-03
 Coeff-Com:  0.975D-03 0.298D-02-0.281D-02-0.432D-02-0.697D-02 0.795D-02
 Coeff-Com:  0.836D-01-0.158D+00-0.253D+00 0.133D+01
 Coeff:      0.563D-05-0.760D-05-0.252D-04-0.783D-06-0.775D-04-0.510D-03
 Coeff:      0.975D-03 0.298D-02-0.281D-02-0.432D-02-0.697D-02 0.795D-02
 Coeff:      0.836D-01-0.158D+00-0.253D+00 0.133D+01
 Gap=     0.057 Goal=   None    Shift=    0.000
 Gap=     0.041 Goal=   None    Shift=    0.000
 RMSDP=1.28D-07 MaxDP=9.32D-06 DE=-5.53D-11 OVMax= 1.02D-05

 Cycle  17  Pass 1  IDiag  1:
 E= -1136.12911424383     Delta-E=       -0.000000000004 Rises=F Damp=F
 DIIS: error= 1.92D-08 at cycle  17 NSaved=  17.
 NSaved=17 IEnMin=17 EnMin= -1136.12911424383     IErMin=17 ErrMin= 1.92D-08
 ErrMax= 1.92D-08  0.00D+00 EMaxC= 1.00D-01 BMatC= 8.12D-14 BMatP= 5.71D-13
 IDIUse=1 WtCom= 1.00D+00 WtEn= 0.00D+00
 Coeff-Com:  0.387D-05-0.510D-05-0.117D-04 0.282D-05-0.635D-04-0.271D-03
 Coeff-Com:  0.409D-03 0.117D-02 0.641D-03-0.161D-02-0.822D-02-0.316D-02
 Coeff-Com:  0.497D-01-0.696D-02-0.172D+00 0.911D-01 0.105D+01
 Coeff:      0.387D-05-0.510D-05-0.117D-04 0.282D-05-0.635D-04-0.271D-03
 Coeff:      0.409D-03 0.117D-02 0.641D-03-0.161D-02-0.822D-02-0.316D-02
 Coeff:      0.497D-01-0.696D-02-0.172D+00 0.911D-01 0.105D+01
 Gap=     0.057 Goal=   None    Shift=    0.000
 Gap=     0.041 Goal=   None    Shift=    0.000
 RMSDP=3.20D-08 MaxDP=1.86D-06 DE=-3.87D-12 OVMax= 2.26D-06

 Cycle  18  Pass 1  IDiag  1:
 E= -1136.12911424384     Delta-E=       -0.000000000011 Rises=F Damp=F
 DIIS: error= 7.97D-09 at cycle  18 NSaved=  18.
 NSaved=18 IEnMin=18 EnMin= -1136.12911424384     IErMin=18 ErrMin= 7.97D-09
 ErrMax= 7.97D-09  0.00D+00 EMaxC= 1.00D-01 BMatC= 2.01D-14 BMatP= 8.12D-14
 IDIUse=1 WtCom= 1.00D+00 WtEn= 0.00D+00
 Coeff-Com: -0.289D-06 0.412D-06 0.129D-05 0.603D-06 0.111D-05 0.846D-05
 Coeff-Com: -0.318D-04-0.163D-03 0.307D-03 0.217D-03 0.128D-03-0.148D-02
 Coeff-Com: -0.522D-02 0.222D-01 0.158D-01-0.229D+00 0.268D+00 0.929D+00
 Coeff:     -0.289D-06 0.412D-06 0.129D-05 0.603D-06 0.111D-05 0.846D-05
 Coeff:     -0.318D-04-0.163D-03 0.307D-03 0.217D-03 0.128D-03-0.148D-02
 Coeff:     -0.522D-02 0.222D-01 0.158D-01-0.229D+00 0.268D+00 0.929D+00
 Gap=     0.057 Goal=   None    Shift=    0.000
 Gap=     0.041 Goal=   None    Shift=    0.000
 RMSDP=1.33D-08 MaxDP=6.50D-07 DE=-1.09D-11 OVMax= 1.04D-06

 Cycle  19  Pass 1  IDiag  1:
 E= -1136.12911424385     Delta-E=       -0.000000000010 Rises=F Damp=F
 DIIS: error= 3.39D-09 at cycle  19 NSaved=  19.
 NSaved=19 IEnMin=19 EnMin= -1136.12911424385     IErMin=19 ErrMin= 3.39D-09
 ErrMax= 3.39D-09  0.00D+00 EMaxC= 1.00D-01 BMatC= 3.34D-15 BMatP= 2.01D-14
 IDIUse=1 WtCom= 1.00D+00 WtEn= 0.00D+00
 Large coefficients: NSaved= 19 BigCof=    0.00 CofMax=   10.00 Det=-5.73D-15
 Inversion failed.  Reducing to 18 matrices.
 Large coefficients: NSaved= 18 BigCof=    0.00 CofMax=   10.00 Det=-5.74D-15
 Inversion failed.  Reducing to 17 matrices.
 Large coefficients: NSaved= 17 BigCof=    0.00 CofMax=   10.00 Det=-5.78D-15
 Inversion failed.  Reducing to 16 matrices.
 Large coefficients: NSaved= 16 BigCof=    0.00 CofMax=   10.00 Det=-5.79D-15
 Inversion failed.  Reducing to 15 matrices.
 Coeff-Com: -0.243D-05-0.805D-06-0.117D-04 0.104D-04 0.539D-04 0.216D-04
 Coeff-Com:  0.250D-04-0.141D-03-0.192D-02 0.176D-02 0.411D-02 0.550D-02
 Coeff-Com: -0.140D+00-0.580D-01 0.119D+01
 Coeff:     -0.243D-05-0.805D-06-0.117D-04 0.104D-04 0.539D-04 0.216D-04
 Coeff:      0.250D-04-0.141D-03-0.192D-02 0.176D-02 0.411D-02 0.550D-02
 Coeff:     -0.140D+00-0.580D-01 0.119D+01
 Gap=     0.057 Goal=   None    Shift=    0.000
 Gap=     0.041 Goal=   None    Shift=    0.000
 RMSDP=7.66D-09 MaxDP=3.49D-07 DE=-9.55D-12 OVMax= 5.92D-07

 SCF Done:  E(UB3LYP) =  -1136.12911424     A.U. after   19 cycles
            NFock= 19  Conv=0.77D-08     -V/T= 2.0029
 <Sx>= 0.0000 <Sy>= 0.0000 <Sz>= 0.5000 <S**2>= 0.7655 S= 0.5077
 <L.S>= 0.000000000000E+00
 KE= 1.132806801744D+03 PE=-3.369745901751D+03 EE= 7.805463470805D+02
 Annihilation of the first spin contaminant:
 S**2 before annihilation     0.7655,   after     0.7501
 Leave Link  502 at Sun Dec  3 22:58:24 2023, MaxMem=  1879048192 cpu:             181.3 elap:              16.1
 (Enter /home/sekinelabo/g16/l601.exe)
 Copying SCF densities to generalized density rwf, IOpCl= 1 IROHF=0.

 **********************************************************************

            Population analysis using the SCF Density.

 **********************************************************************

 Orbital symmetries:
 Alpha Orbitals:
       Occupied  (A) (A) (A) (A) (A) (A) (A) (A) (A) (A) (A) (A)
                 (A) (A) (A) (A) (A) (A) (A) (A) (A) (A) (A) (A)
                 (A) (A) (A) (A) (A) (A) (A) (A) (A) (A) (A) (A)
                 (A) (A) (A)
       Virtual   (A) (A) (A) (A) (A) (A) (A) (A) (A) (A) (A) (A)
                 (A) (A) (A) (A) (A) (A) (A) (A) (A) (A) (A) (A)
                 (A) (A) (A) (A) (A) (A) (A) (A) (A) (A) (A) (A)
                 (A) (A) (A) (A) (A) (A) (A) (A) (A) (A) (A) (A)
                 (A) (A) (A) (A) (A) (A) (A) (A) (A) (A) (A) (A)
                 (A) (A) (A) (A) (A) (A) (A) (A) (A) (A) (A) (A)
                 (A) (A) (A) (A) (A) (A) (A) (A) (A) (A) (A) (A)
                 (A) (A) (A) (A) (A) (A) (A) (A) (A) (A) (A) (A)
                 (A) (A) (A) (A) (A) (A) (A) (A) (A) (A) (A) (A)
                 (A) (A) (A) (A) (A) (A) (A) (A) (A) (A) (A) (A)
                 (A) (A) (A) (A) (A) (A) (A) (A) (A) (A) (A) (A)
                 (A) (A) (A) (A) (A) (A) (A) (A) (A) (A) (A) (A)
                 (A) (A) (A) (A) (A) (A) (A) (A) (A) (A) (A) (A)
                 (A) (A) (A) (A) (A) (A) (A) (A) (A) (A) (A) (A)
                 (A) (A) (A)
 Beta  Orbitals:
       Occupied  (A) (A) (A) (A) (A) (A) (A) (A) (A) (A) (A) (A)
                 (A) (A) (A) (A) (A) (A) (A) (A) (A) (A) (A) (A)
                 (A) (A) (A) (A) (A) (A) (A) (A) (A) (A) (A) (A)
                 (A) (A)
       Virtual   (A) (A) (A) (A) (A) (A) (A) (A) (A) (A) (A) (A)
                 (A) (A) (A) (A) (A) (A) (A) (A) (A) (A) (A) (A)
                 (A) (A) (A) (A) (A) (A) (A) (A) (A) (A) (A) (A)
                 (A) (A) (A) (A) (A) (A) (A) (A) (A) (A) (A) (A)
                 (A) (A) (A) (A) (A) (A) (A) (A) (A) (A) (A) (A)
                 (A) (A) (A) (A) (A) (A) (A) (A) (A) (A) (A) (A)
                 (A) (A) (A) (A) (A) (A) (A) (A) (A) (A) (A) (A)
                 (A) (A) (A) (A) (A) (A) (A) (A) (A) (A) (A) (A)
                 (A) (A) (A) (A) (A) (A) (A) (A) (A) (A) (A) (A)
                 (A) (A) (A) (A) (A) (A) (A) (A) (A) (A) (A) (A)
                 (A) (A) (A) (A) (A) (A) (A) (A) (A) (A) (A) (A)
                 (A) (A) (A) (A) (A) (A) (A) (A) (A) (A) (A) (A)
                 (A) (A) (A) (A) (A) (A) (A) (A) (A) (A) (A) (A)
                 (A) (A) (A) (A) (A) (A) (A) (A) (A) (A) (A) (A)
                 (A) (A) (A) (A)
 The electronic state is 2-A.
 Alpha  occ. eigenvalues --  -38.44940 -38.44826 -38.44309 -38.44123 -38.43397
 Alpha  occ. eigenvalues --  -38.43241 -38.43190  -2.20758  -2.20655  -2.20081
 Alpha  occ. eigenvalues --   -2.19896  -2.19226  -2.19056  -2.19038  -1.14419
 Alpha  occ. eigenvalues --   -1.14400  -1.14367  -1.14314  -1.14286  -1.14267
 Alpha  occ. eigenvalues --   -1.13754  -1.13742  -1.13728  -1.13569  -1.13554
 Alpha  occ. eigenvalues --   -1.13544  -1.12921  -1.12891  -1.12849  -1.12788
 Alpha  occ. eigenvalues --   -1.12739  -1.12717  -1.12701  -1.12683  -1.12630
 Alpha  occ. eigenvalues --   -0.17772  -0.12565  -0.12024  -0.11699
 Alpha virt. eigenvalues --   -0.05978  -0.04916  -0.04636  -0.03521  -0.03450
 Alpha virt. eigenvalues --   -0.03222  -0.01659  -0.00835  -0.00369  -0.00213
 Alpha virt. eigenvalues --   -0.00069   0.00323   0.00380   0.00662   0.00855
 Alpha virt. eigenvalues --    0.00921   0.00936   0.00966   0.01072   0.01142
 Alpha virt. eigenvalues --    0.01250   0.01367   0.01635   0.01780   0.01920
 Alpha virt. eigenvalues --    0.02241   0.02383   0.02536   0.02568   0.02649
 Alpha virt. eigenvalues --    0.02780   0.02791   0.02879   0.02945   0.03047
 Alpha virt. eigenvalues --    0.03086   0.03137   0.03179   0.03220   0.03317
 Alpha virt. eigenvalues --    0.03898   0.04217   0.04249   0.04542   0.04740
 Alpha virt. eigenvalues --    0.04884   0.05131   0.05260   0.05398   0.05554
 Alpha virt. eigenvalues --    0.05804   0.06309   0.06466   0.06618   0.06861
 Alpha virt. eigenvalues --    0.07079   0.07752   0.08015   0.08205   0.08464
 Alpha virt. eigenvalues --    0.08938   0.09346   0.10094   0.10623   0.11101
 Alpha virt. eigenvalues --    0.11337   0.12018   0.12290   0.12615   0.13021
 Alpha virt. eigenvalues --    0.13127   0.13663   0.13773   0.14220   0.14364
 Alpha virt. eigenvalues --    0.14639   0.15185   0.15807   0.16315   0.17023
 Alpha virt. eigenvalues --    0.25936   0.26992   0.27452   0.28326   0.28902
 Alpha virt. eigenvalues --    0.29321   0.30585   0.31564   0.32110   0.33190
 Alpha virt. eigenvalues --    0.34668   0.35020   0.36107   0.36710   0.37120
 Alpha virt. eigenvalues --    0.38293   0.38740   0.39211   0.39964   0.40412
 Alpha virt. eigenvalues --    0.41715   0.41911   0.42740   0.43294   0.43924
 Alpha virt. eigenvalues --    0.44532   0.44749   0.45004   0.45376   0.45562
 Alpha virt. eigenvalues --    0.45950   0.46223   0.46690   0.47597   0.48436
 Alpha virt. eigenvalues --    0.48585   0.48904   0.49633   0.50446   0.51373
 Alpha virt. eigenvalues --    0.51830   0.52228   0.53083   0.53274   0.54086
 Alpha virt. eigenvalues --    0.54808   0.55292   0.55926   0.57352   0.57403
 Alpha virt. eigenvalues --    0.58614   0.59148   0.60601   0.61983   0.65460
 Alpha virt. eigenvalues --    0.67548   2.02808   2.10132   2.11795   2.12706
 Alpha virt. eigenvalues --    2.14713   2.20718   2.23515   4.43593   4.44039
 Alpha virt. eigenvalues --    4.44595   4.45097   4.45446   4.45650   4.45903
 Alpha virt. eigenvalues --    4.46235   4.46585   4.47233   4.47304   4.48275
 Alpha virt. eigenvalues --    4.48925   4.49843   4.50796   4.52148   4.53949
 Alpha virt. eigenvalues --    4.54431   4.54789   4.57112   4.60250  96.22709
 Alpha virt. eigenvalues --   96.30584  96.32561  96.33505  96.35918  96.43760
 Alpha virt. eigenvalues --   96.47311
  Beta  occ. eigenvalues --  -38.44856 -38.44727 -38.44312 -38.44123 -38.43388
  Beta  occ. eigenvalues --  -38.43242 -38.43184  -2.20601  -2.20473  -2.20090
  Beta  occ. eigenvalues --   -2.19896  -2.19213  -2.19048  -2.19042  -1.14315
  Beta  occ. eigenvalues --   -1.14291  -1.14252  -1.14192  -1.14159  -1.14137
  Beta  occ. eigenvalues --   -1.13756  -1.13737  -1.13732  -1.13564  -1.13554
  Beta  occ. eigenvalues --   -1.13545  -1.12904  -1.12867  -1.12841  -1.12789
  Beta  occ. eigenvalues --   -1.12718  -1.12709  -1.12693  -1.12686  -1.12630
  Beta  occ. eigenvalues --   -0.16964  -0.12428  -0.11841
  Beta virt. eigenvalues --   -0.07772  -0.05814  -0.04917  -0.04266  -0.02790
  Beta virt. eigenvalues --   -0.02690  -0.02490  -0.01567  -0.00820  -0.00310
  Beta virt. eigenvalues --   -0.00112  -0.00044   0.00411   0.00630   0.00799
  Beta virt. eigenvalues --    0.00873   0.00925   0.01094   0.01116   0.01184
  Beta virt. eigenvalues --    0.01225   0.01338   0.01451   0.01664   0.01793
  Beta virt. eigenvalues --    0.02088   0.02248   0.02361   0.02528   0.02623
  Beta virt. eigenvalues --    0.02696   0.02834   0.02916   0.02945   0.03047
  Beta virt. eigenvalues --    0.03141   0.03162   0.03178   0.03218   0.03297
  Beta virt. eigenvalues --    0.03388   0.03949   0.04273   0.04336   0.04682
  Beta virt. eigenvalues --    0.04854   0.05003   0.05302   0.05355   0.05482
  Beta virt. eigenvalues --    0.05653   0.06003   0.06511   0.06598   0.06694
  Beta virt. eigenvalues --    0.07026   0.07108   0.07729   0.08006   0.08420
  Beta virt. eigenvalues --    0.08686   0.09147   0.09541   0.10213   0.10848
  Beta virt. eigenvalues --    0.11346   0.11724   0.12220   0.12544   0.12746
  Beta virt. eigenvalues --    0.13210   0.13496   0.13799   0.13966   0.14415
  Beta virt. eigenvalues --    0.14572   0.14766   0.15397   0.15839   0.16436
  Beta virt. eigenvalues --    0.17230   0.26417   0.27418   0.27950   0.28495
  Beta virt. eigenvalues --    0.29283   0.29745   0.30800   0.31993   0.32302
  Beta virt. eigenvalues --    0.33288   0.34802   0.35086   0.36216   0.36982
  Beta virt. eigenvalues --    0.37719   0.38471   0.39208   0.39536   0.40309
  Beta virt. eigenvalues --    0.40937   0.42059   0.42207   0.42832   0.43316
  Beta virt. eigenvalues --    0.44052   0.44717   0.44793   0.45131   0.45611
  Beta virt. eigenvalues --    0.45679   0.46059   0.46421   0.46732   0.47733
  Beta virt. eigenvalues --    0.48547   0.48717   0.48931   0.49817   0.50501
  Beta virt. eigenvalues --    0.51499   0.52074   0.52257   0.53297   0.53475
  Beta virt. eigenvalues --    0.54266   0.54934   0.55534   0.56078   0.57441
  Beta virt. eigenvalues --    0.57655   0.58742   0.59402   0.60679   0.62137
  Beta virt. eigenvalues --    0.65660   0.67505   2.02953   2.10134   2.11834
  Beta virt. eigenvalues --    2.13074   2.14825   2.20737   2.23672   4.43627
  Beta virt. eigenvalues --    4.44111   4.44645   4.45179   4.45491   4.45690
  Beta virt. eigenvalues --    4.45933   4.46261   4.46686   4.47238   4.47366
  Beta virt. eigenvalues --    4.48320   4.48982   4.49912   4.50881   4.52197
  Beta virt. eigenvalues --    4.53971   4.54471   4.54809   4.57169   4.60253
  Beta virt. eigenvalues --   96.22752  96.30586  96.32589  96.33602  96.35952
  Beta virt. eigenvalues --   96.43769  96.47362
          Condensed to atoms (all electrons):
               1          2          3          4          5          6
     1  Na  10.837629   0.157326  -0.052611  -0.014940   0.163320  -0.057686
     2  Na   0.157326  11.478681  -0.701157   0.297728  -0.006276  -0.044881
     3  Na  -0.052611  -0.701157  12.284308  -0.229892  -0.390004   0.285005
     4  Na  -0.014940   0.297728  -0.229892  10.666330   0.199105  -0.037693
     5  Na   0.163320  -0.006276  -0.390004   0.199105  11.248535   0.152897
     6  Na  -0.057686  -0.044881   0.285005  -0.037693   0.152897  10.774130
     7  Na   0.069301  -0.160936  -0.054413  -0.226756  -0.338001  -0.074609
               7
     1  Na   0.069301
     2  Na  -0.160936
     3  Na  -0.054413
     4  Na  -0.226756
     5  Na  -0.338001
     6  Na  -0.074609
     7  Na  11.840730
          Atomic-Atomic Spin Densities.
               1          2          3          4          5          6
     1  Na  -0.036520   0.007708  -0.120436  -0.007750   0.030474   0.001468
     2  Na   0.007708   0.104528  -0.267402  -0.023009  -0.044286  -0.091254
     3  Na  -0.120436  -0.267402   1.329361  -0.006929   0.030459   0.212761
     4  Na  -0.007750  -0.023009  -0.006929  -0.015869  -0.028516  -0.020658
     5  Na   0.030474  -0.044286   0.030459  -0.028516   0.067119  -0.013577
     6  Na   0.001468  -0.091254   0.212761  -0.020658  -0.013577   0.016069
     7  Na   0.052756   0.279305  -0.582113  -0.010054   0.020427  -0.128166
               7
     1  Na   0.052756
     2  Na   0.279305
     3  Na  -0.582113
     4  Na  -0.010054
     5  Na   0.020427
     6  Na  -0.128166
     7  Na   0.952896
 Mulliken charges and spin densities:
               1          2
     1  Na  -0.102340  -0.072300
     2  Na  -0.020484  -0.034411
     3  Na  -0.141236   0.595701
     4  Na   0.346118  -0.112784
     5  Na  -0.029577   0.062099
     6  Na   0.002835  -0.023358
     7  Na  -0.055316   0.585053
 Sum of Mulliken charges =  -0.00000   1.00000
 Mulliken charges and spin densities with hydrogens summed into heavy atoms:
               1          2
     1  Na  -0.102340  -0.072300
     2  Na  -0.020484  -0.034411
     3  Na  -0.141236   0.595701
     4  Na   0.346118  -0.112784
     5  Na  -0.029577   0.062099
     6  Na   0.002835  -0.023358
     7  Na  -0.055316   0.585053
 Electronic spatial extent (au):  <R**2>=           2510.7152
 Charge=             -0.0000 electrons
 Dipole moment (field-independent basis, Debye):
    X=              0.3552    Y=             -0.3827    Z=             -0.1108  Tot=              0.5338
 Quadrupole moment (field-independent basis, Debye-Ang):
   XX=            -58.5971   YY=            -71.5764   ZZ=            -67.2518
   XY=             -1.3682   XZ=              0.5266   YZ=              0.3764
 Traceless Quadrupole moment (field-independent basis, Debye-Ang):
   XX=              7.2114   YY=             -5.7680   ZZ=             -1.4434
   XY=             -1.3682   XZ=              0.5266   YZ=              0.3764
 Octapole moment (field-independent basis, Debye-Ang**2):
  XXX=              5.5118  YYY=             -5.3499  ZZZ=             -1.4612  XYY=              2.8462
  XXY=             -4.4731  XXZ=             -3.3351  XZZ=              0.9322  YZZ=             -0.6789
  YYZ=              1.8344  XYZ=             -2.1126
 Hexadecapole moment (field-independent basis, Debye-Ang**3):
 XXXX=          -1580.8093 YYYY=          -1545.2988 ZZZZ=           -894.1330 XXXY=            -28.4116
 XXXZ=             15.7653 YYYX=            -12.0866 YYYZ=            -18.6816 ZZZX=             10.8538
 ZZZY=             14.6041 XXYY=           -549.7208 XXZZ=           -524.8930 YYZZ=           -468.6982
 XXYZ=             13.8278 YYXZ=            -15.4880 ZZXY=              0.0749
 N-N= 3.202636386821D+02 E-N=-3.369745901712D+03  KE= 1.132806801744D+03
                          Isotropic Fermi Contact Couplings
        Atom                 a.u.       MegaHertz       Gauss      10(-4) cm-1
     1  Na(23)            -0.02099     -24.83708      -8.86249      -8.28476
     2  Na(23)            -0.00201      -2.38098      -0.84959      -0.79421
     3  Na(23)             0.35027     414.37880     147.86066     138.22189
     4  Na(23)            -0.04443     -52.56130     -18.75518     -17.53256
     5  Na(23)            -0.01249     -14.77795      -5.27314      -4.92939
     6  Na(23)            -0.00759      -8.97593      -3.20284      -2.99405
     7  Na(23)             0.40755     482.13937     172.03932     160.82438
 --------------------------------------------------------
       Center         ----  Spin Dipole Couplings  ----
                      3XX-RR        3YY-RR        3ZZ-RR
 --------------------------------------------------------
     1   Atom       -0.004769     -0.004466      0.009234
     2   Atom       -0.016919     -0.011308      0.028227
     3   Atom        0.006631      0.000443     -0.007074
     4   Atom       -0.009233     -0.012735      0.021968
     5   Atom       -0.017743     -0.013742      0.031485
     6   Atom       -0.001390     -0.006381      0.007770
     7   Atom       -0.002065      0.009974     -0.007909
 --------------------------------------------------------
                        XY            XZ            YZ
 --------------------------------------------------------
     1   Atom       -0.002491      0.004804     -0.000334
     2   Atom        0.003118      0.008538      0.009875
     3   Atom        0.002548     -0.002001      0.000703
     4   Atom       -0.000599      0.002829     -0.003489
     5   Atom        0.003273     -0.004001      0.007889
     6   Atom        0.001872     -0.003434      0.000054
     7   Atom       -0.000371      0.001642     -0.001418
 --------------------------------------------------------


 ---------------------------------------------------------------------------------
              Anisotropic Spin Dipole Couplings in Principal Axis System
 ---------------------------------------------------------------------------------

       Atom             a.u.   MegaHertz   Gauss  10(-4) cm-1        Axes

              Baa    -0.0078    -1.106    -0.395    -0.369  0.7954  0.5675 -0.2128
     1 Na(23) Bbb    -0.0030    -0.419    -0.150    -0.140 -0.5241  0.8203  0.2288
              Bcc     0.0108     1.525     0.544     0.509  0.3044 -0.0705  0.9499
 
              Baa    -0.0188    -2.654    -0.947    -0.885  0.9636 -0.2360 -0.1254
     2 Na(23) Bbb    -0.0134    -1.895    -0.676    -0.632  0.1968  0.9442 -0.2642
              Bcc     0.0322     4.549     1.623     1.517  0.1808  0.2299  0.9563
 
              Baa    -0.0075    -1.060    -0.378    -0.354  0.1632 -0.1387  0.9768
     3 Na(23) Bbb    -0.0002    -0.031    -0.011    -0.010 -0.2954  0.9378  0.1825
              Bcc     0.0077     1.092     0.390     0.364  0.9413  0.3183 -0.1121
 
              Baa    -0.0131    -1.851    -0.661    -0.618  0.0863  0.9920  0.0917
     4 Na(23) Bbb    -0.0095    -1.337    -0.477    -0.446  0.9922 -0.0772 -0.0979
              Bcc     0.0226     3.188     1.138     1.063  0.0900 -0.0994  0.9910
 
              Baa    -0.0207    -2.919    -1.042    -0.974  0.8195 -0.5540  0.1467
     5 Na(23) Bbb    -0.0124    -1.748    -0.624    -0.583  0.5691  0.8168 -0.0950
              Bcc     0.0331     4.667     1.665     1.557 -0.0672  0.1613  0.9846
 
              Baa    -0.0071    -1.003    -0.358    -0.335 -0.3564  0.9304 -0.0857
     6 Na(23) Bbb    -0.0018    -0.259    -0.092    -0.086  0.8774  0.3648  0.3117
              Bcc     0.0089     1.262     0.450     0.421 -0.3213 -0.0360  0.9463
 
              Baa    -0.0084    -1.190    -0.425    -0.397 -0.2454  0.0696  0.9669
     7 Na(23) Bbb    -0.0017    -0.237    -0.085    -0.079  0.9685  0.0602  0.2415
              Bcc     0.0101     1.427     0.509     0.476 -0.0414  0.9958 -0.0822
 

 ---------------------------------------------------------------------------------

 No NMR shielding tensors so no spin-rotation constants.
 Leave Link  601 at Sun Dec  3 22:58:24 2023, MaxMem=  1879048192 cpu:               2.3 elap:               0.2
 (Enter /home/sekinelabo/g16/l701.exe)
 ... and contract with generalized density number  0.
 Compute integral first derivatives.
 Leave Link  701 at Sun Dec  3 22:58:24 2023, MaxMem=  1879048192 cpu:               1.6 elap:               0.1
 (Enter /home/sekinelabo/g16/l702.exe)
 L702 exits ... SP integral derivatives will be done elsewhere.
 Leave Link  702 at Sun Dec  3 22:58:24 2023, MaxMem=  1879048192 cpu:               0.4 elap:               0.0
 (Enter /home/sekinelabo/g16/l703.exe)
 Integral derivatives from FoFJK, PRISM(SPDF).
 Compute integral first derivatives, UseDBF=F ICtDFT=           0.
 Calling FoFJK, ICntrl=      2127 FMM=F ISym2X=0 I1Cent= 0 IOpClX= 1 NMat=1 NMatS=1 NMatT=0.
 FoFJK:  IHMeth= 1 ICntrl=    2127 DoSepK=F KAlg= 0 I1Cent=           0 FoldK=F
 IRaf=         0 NMat=       1 IRICut=       1 DoRegI=T DoRafI=F ISym2E= 0 IDoP0=0 IntGTp=1.
 FoFCou: FMM=F IPFlag=           0 FMFlag=      100000 FMFlg1=         800
         NFxFlg=           0 DoJE=F BraDBF=F KetDBF=F FulRan=T
         wScrn=  0.000000 ICntrl=      2127 IOpCl=  1 I1Cent=           0 NGrid=           0
         NMat0=    1 NMatS0=      1 NMatT0=    0 NMatD0=    1 NMtDS0=    0 NMtDT0=    0
 Symmetry not used in FoFCou.
 Leave Link  703 at Sun Dec  3 22:58:27 2023, MaxMem=  1879048192 cpu:              33.2 elap:               2.2
 (Enter /home/sekinelabo/g16/l716.exe)
 Dipole        = 1.39763849D-01-1.50574843D-01-4.36034818D-02
 ***** Axes restored to original set *****
 -------------------------------------------------------------------
 Center     Atomic                   Forces (Hartrees/Bohr)
 Number     Number              X              Y              Z
 -------------------------------------------------------------------
      1       11           0.000643575   -0.002300416   -0.000887940
      2       11           0.000699032    0.001049039   -0.001644643
      3       11           0.000259782   -0.002181839    0.004085320
      4       11          -0.004431658   -0.002480013    0.000542969
      5       11           0.001751260    0.000536244    0.000321320
      6       11           0.002491483    0.003294458    0.000580192
      7       11          -0.001413473    0.002082528   -0.002997219
 -------------------------------------------------------------------
 Cartesian Forces:  Max     0.004431658 RMS     0.002122045
 Z-matrix is all fixed cartesians, so copy forces.
 Force constants in Cartesian coordinates: 
                1             2             3             4             5 
      1  0.356935D-01
      2  0.369245D-04  0.293545D-01
      3 -0.983042D-02  0.688044D-02  0.145104D-01
      4  0.773493D-04  0.752542D-04  0.265200D-04  0.399157D-01
      5  0.474148D-02  0.286124D-03  0.420579D-03 -0.987109D-02  0.462321D-01
      6  0.232844D-02  0.543384D-04  0.343103D-03  0.772372D-03  0.768759D-02
      7 -0.506841D-03  0.295535D-02  0.451348D-02 -0.875661D-02  0.346171D-02
      8 -0.323790D-03  0.154715D-02  0.207053D-02  0.446533D-02 -0.103411D-01
      9  0.247867D-03 -0.113650D-02 -0.160296D-02 -0.318122D-02 -0.592257D-02
     10 -0.112220D-02  0.234598D-02  0.644762D-03 -0.785399D-03 -0.628789D-03
     11 -0.253959D-02  0.514894D-02  0.110269D-02 -0.655645D-02 -0.474328D-02
     12  0.250298D-03 -0.277495D-03  0.403307D-03 -0.329832D-03 -0.101547D-02
     13 -0.210091D-01 -0.134526D-01  0.346014D-02  0.382864D-03  0.675713D-03
     14  0.439596D-02 -0.287644D-01 -0.622858D-02  0.787800D-03 -0.444952D-02
     15  0.725426D-02  0.181653D-03 -0.995460D-02  0.129809D-02 -0.193260D-02
     16 -0.101585D-01  0.377399D-02  0.381636D-02 -0.217555D-01 -0.407394D-02
     17 -0.550056D-02 -0.877447D-02 -0.369600D-02  0.904827D-02 -0.115329D-01
     18 -0.446005D-03 -0.553869D-02 -0.406652D-02  0.978139D-03 -0.391587D-02
     19 -0.297419D-02  0.426506D-02 -0.263084D-02 -0.907840D-02  0.569491D-02
     20 -0.810431D-03  0.120208D-02 -0.549653D-03  0.205089D-02 -0.154514D-01
     21  0.195562D-03 -0.163750D-03  0.367235D-03  0.435939D-03  0.467834D-02
                6             7             8             9            10 
      6  0.304724D-01
      7 -0.654707D-02  0.340275D-01
      8  0.694506D-02 -0.129175D-02  0.281432D-01
      9 -0.115722D-01  0.109303D-01  0.118125D-02  0.475864D-01
     10  0.425803D-03 -0.162456D-01  0.159940D-03  0.367813D-02  0.454194D-01
     11  0.607058D-03 -0.320293D-02 -0.486056D-02  0.975434D-03  0.236930D-02
     12  0.210294D-02 -0.132940D-01 -0.369868D-03 -0.832864D-02 -0.452685D-02
     13  0.119044D-02 -0.980551D-02 -0.369562D-02 -0.725827D-02 -0.172386D-01
     14 -0.167034D-02  0.300844D-02 -0.180622D-01  0.297083D-02 -0.599128D-02
     15  0.566953D-02  0.150021D-02 -0.135064D-01 -0.172886D-01  0.179438D-02
     16 -0.323737D-02 -0.371286D-03 -0.691456D-04  0.319381D-04 -0.857683D-05
     17 -0.304806D-02 -0.449993D-02 -0.106809D-02  0.498964D-03 -0.414597D-04
     18 -0.657788D-02  0.290914D-02  0.675195D-03 -0.401638D-03 -0.120153D-04
     19  0.506739D-02  0.165827D-02  0.755045D-03 -0.444879D-02 -0.100191D-01
     20 -0.105756D-01 -0.430895D-03  0.464164D-02  0.143258D-02  0.178630D-02
     21 -0.204378D-01 -0.121340D-04  0.300426D-02 -0.839234D-02 -0.200420D-02
               11            12            13            14            15 
     11  0.260993D-01
     12 -0.216922D-03  0.225872D-01
     13  0.163409D-01  0.588399D-02  0.531636D-01
     14 -0.174317D-01  0.426301D-03 -0.432137D-03  0.879102D-01
     15 -0.459513D-02 -0.644296D-02 -0.668684D-02  0.892131D-02  0.413870D-01
     16  0.270158D-05 -0.247561D-04  0.164126D-02 -0.411370D-02 -0.245073D-02
     17  0.282103D-04  0.288651D-04  0.332328D-03 -0.110079D-02 -0.767981D-03
     18  0.444503D-05  0.397358D-05 -0.518906D-03  0.142840D-02  0.113243D-02
     19 -0.641396D-02  0.120411D-01 -0.713448D-02  0.234492D-02 -0.270936D-02
     20 -0.424087D-02  0.142459D-02  0.231363D-03 -0.181016D-01  0.116992D-01
     21  0.212243D-02 -0.103258D-01  0.392944D-02 -0.584791D-02 -0.145028D-01
               16            17            18            19            20 
     16  0.305903D-01
     17  0.448993D-02  0.222229D-01
     18  0.188114D-02  0.716039D-02  0.101315D-01
     19  0.622771D-04 -0.382858D-02 -0.479149D-02  0.274856D-01
     20 -0.984462D-05  0.225052D-03  0.186129D-03 -0.281739D-02  0.317252D-01
     21 -0.165798D-04 -0.176181D-03 -0.221846D-03 -0.252802D-02 -0.361719D-02
               21 
     21  0.535134D-01
 Leave Link  716 at Sun Dec  3 22:58:27 2023, MaxMem=  1879048192 cpu:               0.4 elap:               0.0
 (Enter /home/sekinelabo/g16/l103.exe)

 GradGradGradGradGradGradGradGradGradGradGradGradGradGradGradGradGradGrad
 Berny optimization.
 Search for a local minimum.
 Step number   1 out of a maximum of    2
 All quantities printed in internal units (Hartrees-Bohrs-Radians)
 Second derivative matrix not updated -- first step.
 ITU=  0
     Eigenvalues ---    0.00934   0.01593   0.01893   0.02794   0.02978
     Eigenvalues ---    0.03242   0.03634   0.04813   0.05587   0.05750
     Eigenvalues ---    0.06516   0.07748   0.07893   0.08795   0.11599
 Quadratic step=3.482D-01 exceeds max=3.000D-01 adjusted using Lamda=-3.186D-03.
 Angle between NR and scaled steps=   3.58 degrees.
 Angle between quadratic step and forces=  27.86 degrees.
 Linear search not attempted -- first point.
 B after Tr=    -0.000000    0.000000   -0.000000
         Rot=    1.000000    0.000000    0.000000    0.000000 Ang=   0.00 deg.
 Variable       Old X    -DE/DX   Delta X   Delta X   Delta X     New X
                                 (Linear)    (Quad)   (Total)
    X1       17.64961   0.00064   0.00000   0.05522   0.05522  17.70483
    Y1       24.96668  -0.00230   0.00000  -0.03782  -0.03782  24.92886
    Z1       24.96139  -0.00089   0.00000   0.00360   0.00360  24.96499
    X2       24.64656   0.00070   0.00000   0.03849   0.03849  24.68506
    Y2       18.01196   0.00105   0.00000   0.07417   0.07417  18.08613
    Z2       22.12283  -0.00164   0.00000  -0.01997  -0.01997  22.10287
    X3       22.89347   0.00026   0.00000  -0.04878  -0.04878  22.84469
    Y3       23.79108  -0.00218   0.00000  -0.07796  -0.07796  23.71312
    Z3       18.44373   0.00409   0.00000   0.09795   0.09795  18.54168
    X4       28.92339  -0.00443   0.00000  -0.11612  -0.11612  28.80727
    Y4       24.93928  -0.00248   0.00000  -0.09832  -0.09832  24.84096
    Z4       21.81840   0.00054   0.00000   0.00822   0.00822  21.82662
    X5       22.85246   0.00175   0.00000   0.02411   0.02411  22.87656
    Y5       27.80600   0.00054   0.00000  -0.03204  -0.03204  27.77396
    Z5       23.68602   0.00032   0.00000  -0.00138  -0.00138  23.68464
    X6       18.30784   0.00249   0.00000   0.10709   0.10709  18.41492
    Y6       18.31184   0.00329   0.00000   0.11283   0.11283  18.42467
    Z6       21.80253   0.00058   0.00000  -0.03732  -0.03732  21.76521
    X7       24.62918  -0.00141   0.00000  -0.06001  -0.06001  24.56917
    Y7       22.07616   0.00208   0.00000   0.05915   0.05915  22.13531
    Z7       27.06806  -0.00300   0.00000  -0.05111  -0.05111  27.01695
         Item               Value     Threshold  Converged?
 Maximum Force            0.004432     0.000450     NO 
 RMS     Force            0.002122     0.000300     NO 
 Maximum Displacement     0.116122     0.001800     NO 
 RMS     Displacement     0.065486     0.001200     NO 
 Predicted change in Energy=-1.433487D-03
 GradGradGradGradGradGradGradGradGradGradGradGradGradGradGradGradGradGrad

 Leave Link  103 at Sun Dec  3 22:58:27 2023, MaxMem=  1879048192 cpu:               0.2 elap:               0.0
 (Enter /home/sekinelabo/g16/l9999.exe)
 1\1\GINC-SEKINELABO-XA7R-R37\Force\UB3LYP\6-311+G(d)\Na7(2)\SEKINELABO
 \03-Dec-2023\0\\#P B3LYP/6-311+g(d) force\\DPGEN\\0,2\Na,9.33977,13.21
 18,13.209\Na,13.0424,9.53152,11.7069\Na,12.1147,12.5897,9.76\Na,15.305
 6,13.1973,11.5458\Na,12.093,14.7143,12.5341\Na,9.68809,9.69021,11.5374
 \Na,13.0332,11.6822,14.3238\\Version=ES64L-G16RevB.01\State=2-A\HF=-11
 36.1291142\S2=0.765508\S2-1=0.\S2A=0.750133\RMSD=7.661e-09\RMSF=2.122e
 -03\Dipole=0.1841872,-0.0397153,-0.0927673\Quadrupole=3.7851553,-2.569
 6946,-1.2154607,3.7021445,0.2227162,-0.6709993\PG=C01 [X(Na7)]\\@


 THE MOST SERIOUS THREAT TO THE SURVIVAL OF MANKIND IS NOT NOW
 IGNORANCE IN THE TRADITIONAL SENSE,
 BUT A MORALLY NEUTRAL, AN INSENSITIVE OR INHIBITED HUMAN INTELLIGENCE.

                     -- MARGO JEFFERSON IN NEWSWEEK, SEPTEMBER 2, 1974
 Job cpu time:       0 days  0 hours  3 minutes 50.8 seconds.
 Elapsed time:       0 days  0 hours  0 minutes 19.4 seconds.
 File lengths (MBytes):  RWF=     32 Int=      0 D2E=      0 Chk=      4 Scr=      1
 Normal termination of Gaussian 16 at Sun Dec  3 22:58:27 2023.
