 Set GAUSS_MDEF to "14GB".
 Entering Gaussian System, Link 0=g16
 Initial command:
 /home/sekinelabo/g16/l1.exe "/home/sekinelabo/g16temp/Gau-456689.inp" -scrdir="/home/sekinelabo/g16temp/"
 Entering Link 1 = /home/sekinelabo/g16/l1.exe PID=    456691.
  
 Copyright (c) 1988-2017, Gaussian, Inc.  All Rights Reserved.
  
 This is part of the Gaussian(R) 16 program.  It is based on
 the Gaussian(R) 09 system (copyright 2009, Gaussian, Inc.),
 the Gaussian(R) 03 system (copyright 2003, Gaussian, Inc.),
 the Gaussian(R) 98 system (copyright 1998, Gaussian, Inc.),
 the Gaussian(R) 94 system (copyright 1995, Gaussian, Inc.),
 the Gaussian 92(TM) system (copyright 1992, Gaussian, Inc.),
 the Gaussian 90(TM) system (copyright 1990, Gaussian, Inc.),
 the Gaussian 88(TM) system (copyright 1988, Gaussian, Inc.),
 the Gaussian 86(TM) system (copyright 1986, Carnegie Mellon
 University), and the Gaussian 82(TM) system (copyright 1983,
 Carnegie Mellon University). Gaussian is a federally registered
 trademark of Gaussian, Inc.
  
 This software contains proprietary and confidential information,
 including trade secrets, belonging to Gaussian, Inc.
  
 This software is provided under written license and may be
 used, copied, transmitted, or stored only in accord with that
 written license.
  
 The following legend is applicable only to US Government
 contracts under FAR:
  
                    RESTRICTED RIGHTS LEGEND
  
 Use, reproduction and disclosure by the US Government is
 subject to restrictions as set forth in subparagraphs (a)
 and (c) of the Commercial Computer Software - Restricted
 Rights clause in FAR 52.227-19.
  
 Gaussian, Inc.
 340 Quinnipiac St., Bldg. 40, Wallingford CT 06492
  
  
 ---------------------------------------------------------------
 Warning -- This program may not be used in any manner that
 competes with the business of Gaussian, Inc. or will provide
 assistance to any competitor of Gaussian, Inc.  The licensee
 of this program is prohibited from giving any competitor of
 Gaussian, Inc. access to this program.  By using this program,
 the user acknowledges that Gaussian, Inc. is engaged in the
 business of creating and licensing software in the field of
 computational chemistry and represents and warrants to the
 licensee that it is not a competitor of Gaussian, Inc. and that
 it will not use this program in any manner prohibited above.
 ---------------------------------------------------------------
  

 Cite this work as:
 Gaussian 16, Revision B.01,
 M. J. Frisch, G. W. Trucks, H. B. Schlegel, G. E. Scuseria, 
 M. A. Robb, J. R. Cheeseman, G. Scalmani, V. Barone, 
 G. A. Petersson, H. Nakatsuji, X. Li, M. Caricato, A. V. Marenich, 
 J. Bloino, B. G. Janesko, R. Gomperts, B. Mennucci, H. P. Hratchian, 
 J. V. Ortiz, A. F. Izmaylov, J. L. Sonnenberg, D. Williams-Young, 
 F. Ding, F. Lipparini, F. Egidi, J. Goings, B. Peng, A. Petrone, 
 T. Henderson, D. Ranasinghe, V. G. Zakrzewski, J. Gao, N. Rega, 
 G. Zheng, W. Liang, M. Hada, M. Ehara, K. Toyota, R. Fukuda, 
 J. Hasegawa, M. Ishida, T. Nakajima, Y. Honda, O. Kitao, H. Nakai, 
 T. Vreven, K. Throssell, J. A. Montgomery, Jr., J. E. Peralta, 
 F. Ogliaro, M. J. Bearpark, J. J. Heyd, E. N. Brothers, K. N. Kudin, 
 V. N. Staroverov, T. A. Keith, R. Kobayashi, J. Normand, 
 K. Raghavachari, A. P. Rendell, J. C. Burant, S. S. Iyengar, 
 J. Tomasi, M. Cossi, J. M. Millam, M. Klene, C. Adamo, R. Cammi, 
 J. W. Ochterski, R. L. Martin, K. Morokuma, O. Farkas, 
 J. B. Foresman, and D. J. Fox, Gaussian, Inc., Wallingford CT, 2016.
 
 ******************************************
 Gaussian 16:  ES64L-G16RevB.01 20-Dec-2017
                 7-Dec-2023 
 ******************************************
 %nproc=15
 Will use up to   15 processors via shared memory.
 -------------------------
 #P B3LYP/6-311+g(d) force
 -------------------------
 1/10=7,30=1,38=1/1,3;
 2/12=2,17=6,18=5,40=1/2;
 3/5=4,6=6,7=11,11=2,25=1,30=1,71=1,74=-5/1,2,3;
 4//1;
 5/5=2,38=5/2;
 6/7=2,8=2,9=2,10=2,28=1/1;
 7/29=1/1,2,3,16;
 1/10=7,30=1/3;
 99//99;
 Leave Link    1 at Thu Dec  7 01:44:55 2023, MaxMem=           0 cpu:               0.3 elap:               0.0
 (Enter /home/sekinelabo/g16/l101.exe)
 -----
 DPGEN
 -----
 Symbolic Z-matrix:
 Charge =  0 Multiplicity = 2
 Na                    13.3338   11.9397   14.4088 
 Na                    11.1644   14.8986   14.2081 
 Na                    12.276    13.2908   11.9986 
 Na                    14.9356   15.2173   12.6569 
 Na                    9.55457   11.963    12.6215 
 Na                    12.6158   9.75981   12.0173 
 Na                    15.1891   12.0001   11.1581 
 
 ITRead=  0  0  0  0  0  0  0
 MicOpt= -1 -1 -1 -1 -1 -1 -1
 NAtoms=      7 NQM=        7 NQMF=       0 NMMI=      0 NMMIF=      0
                NMic=       0 NMicF=      0.
                    Isotopes and Nuclear Properties:
 (Nuclear quadrupole moments (NQMom) in fm**2, nuclear magnetic moments (NMagM)
  in nuclear magnetons)

  Atom         1           2           3           4           5           6           7
 IAtWgt=          23          23          23          23          23          23          23
 AtmWgt=  22.9897697  22.9897697  22.9897697  22.9897697  22.9897697  22.9897697  22.9897697
 NucSpn=           3           3           3           3           3           3           3
 AtZEff=  -0.0000000  -0.0000000  -0.0000000  -0.0000000  -0.0000000  -0.0000000  -0.0000000
 NQMom=   10.4000000  10.4000000  10.4000000  10.4000000  10.4000000  10.4000000  10.4000000
 NMagM=    2.2175200   2.2175200   2.2175200   2.2175200   2.2175200   2.2175200   2.2175200
 AtZNuc=  11.0000000  11.0000000  11.0000000  11.0000000  11.0000000  11.0000000  11.0000000
 Leave Link  101 at Thu Dec  7 01:44:56 2023, MaxMem=  1879048192 cpu:               2.5 elap:               0.2
 (Enter /home/sekinelabo/g16/l103.exe)

 GradGradGradGradGradGradGradGradGradGradGradGradGradGradGradGradGradGrad
 Berny optimization.
 Initialization pass.
 Trust Radius=3.00D-01 FncErr=1.00D-07 GrdErr=1.00D-07 EigMax=2.50D+02 EigMin=1.00D-04
 Number of steps in this run=      2 maximum allowed number of steps=      2.
 GradGradGradGradGradGradGradGradGradGradGradGradGradGradGradGradGradGrad

 Leave Link  103 at Thu Dec  7 01:44:56 2023, MaxMem=  1879048192 cpu:               0.2 elap:               0.0
 (Enter /home/sekinelabo/g16/l202.exe)
                          Input orientation:                          
 ---------------------------------------------------------------------
 Center     Atomic      Atomic             Coordinates (Angstroms)
 Number     Number       Type             X           Y           Z
 ---------------------------------------------------------------------
      1         11           0       13.333800   11.939700   14.408800
      2         11           0       11.164400   14.898600   14.208100
      3         11           0       12.276000   13.290800   11.998600
      4         11           0       14.935600   15.217300   12.656900
      5         11           0        9.554570   11.963000   12.621500
      6         11           0       12.615800    9.759810   12.017300
      7         11           0       15.189100   12.000100   11.158100
 ---------------------------------------------------------------------
                    Distance matrix (angstroms):
                    1          2          3          4          5
     1  Na   0.000000
     2  Na   3.674461   0.000000
     3  Na   2.958627   2.950011   0.000000
     4  Na   4.046922   4.090201   3.349363   0.000000
     5  Na   4.180618   3.704943   3.091478   6.288657   0.000000
     6  Na   3.314622   5.771770   3.547352   5.964458   3.819716
     7  Na   3.743372   5.822543   3.295224   3.558235   5.821584
                    6          7
     6  Na   0.000000
     7  Na   3.518380   0.000000
 Stoichiometry    Na7(2)
 Framework group  C1[X(Na7)]
 Deg. of freedom    15
 Full point group                 C1      NOp   1
 Largest Abelian subgroup         C1      NOp   1
 Largest concise Abelian subgroup C1      NOp   1
                         Standard orientation:                         
 ---------------------------------------------------------------------
 Center     Atomic      Atomic             Coordinates (Angstroms)
 Number     Number       Type             X           Y           Z
 ---------------------------------------------------------------------
      1         11           0       -0.023077    0.235994    1.941328
      2         11           0        0.816880   -2.934974    0.285702
      3         11           0        0.093461   -0.358035   -0.954708
      4         11           0       -2.974306   -1.487605   -0.225935
      5         11           0        3.173351   -0.254338   -0.708199
      6         11           0        1.117967    2.828562    0.219895
      7         11           0       -2.204276    1.970396   -0.558083
 ---------------------------------------------------------------------
 Rotational constants (GHZ):           0.7677405           0.7006208           0.4517561
 Leave Link  202 at Thu Dec  7 01:44:56 2023, MaxMem=  1879048192 cpu:               0.0 elap:               0.0
 (Enter /home/sekinelabo/g16/l301.exe)
 Standard basis: 6-311+G(d) (5D, 7F)
 Ernie: Thresh=  0.10000D-02 Tol=  0.10000D-05 Strict=F.
 There are   217 symmetry adapted cartesian basis functions of A   symmetry.
 There are   210 symmetry adapted basis functions of A   symmetry.
   210 basis functions,   350 primitive gaussians,   217 cartesian basis functions
    39 alpha electrons       38 beta electrons
       nuclear repulsion energy       345.5448983227 Hartrees.
 IExCor=  402 DFT=T Ex+Corr=B3LYP ExCW=0 ScaHFX=  0.200000
 ScaDFX=  0.800000  0.720000  1.000000  0.810000 ScalE2=  1.000000  1.000000
 IRadAn=      5 IRanWt=     -1 IRanGd=            0 ICorTp=0 IEmpDi=  4
 NAtoms=    7 NActive=    7 NUniq=    7 SFac= 1.00D+00 NAtFMM=   60 NAOKFM=F Big=F
 Integral buffers will be    131072 words long.
 Raffenetti 2 integral format.
 Two-electron integral symmetry is turned on.
 Leave Link  301 at Thu Dec  7 01:44:56 2023, MaxMem=  1879048192 cpu:               0.5 elap:               0.0
 (Enter /home/sekinelabo/g16/l302.exe)
 NPDir=0 NMtPBC=     1 NCelOv=     1 NCel=       1 NClECP=     1 NCelD=      1
         NCelK=      1 NCelE2=     1 NClLst=     1 CellRange=     0.0.
 One-electron integrals computed using PRISM.
 One-electron integral symmetry used in STVInt
 NBasis=   210 RedAO= T EigKep=  3.82D-06  NBF=   210
 NBsUse=   210 1.00D-06 EigRej= -1.00D+00 NBFU=   210
 Precomputing XC quadrature grid using
 IXCGrd= 4 IRadAn=           5 IRanWt=          -1 IRanGd=           0 AccXCQ= 0.00D+00.
 Generated NRdTot=       0 NPtTot=           0 NUsed=           0 NTot=          32
 NSgBfM=   211   211   211   211   211 MxSgAt=     7 MxSgA2=     7.
 Leave Link  302 at Thu Dec  7 01:44:56 2023, MaxMem=  1879048192 cpu:               1.9 elap:               0.1
 (Enter /home/sekinelabo/g16/l303.exe)
 DipDrv:  MaxL=1.
 Leave Link  303 at Thu Dec  7 01:44:56 2023, MaxMem=  1879048192 cpu:               0.5 elap:               0.0
 (Enter /home/sekinelabo/g16/l401.exe)
 ExpMin= 7.60D-03 ExpMax= 3.62D+04 ExpMxC= 1.21D+03 IAcc=3 IRadAn=         5 AccDes= 0.00D+00
 Harris functional with IExCor=  402 and IRadAn=       5 diagonalized for initial guess.
 HarFok:  IExCor=  402 AccDes= 0.00D+00 IRadAn=         5 IDoV= 1 UseB2=F ITyADJ=14
 ICtDFT=  3500011 ScaDFX=  1.000000  1.000000  1.000000  1.000000
 FoFCou: FMM=F IPFlag=           0 FMFlag=      100000 FMFlg1=           0
         NFxFlg=           0 DoJE=T BraDBF=F KetDBF=T FulRan=T
         wScrn=  0.000000 ICntrl=       500 IOpCl=  0 I1Cent=   200000004 NGrid=           0
         NMat0=    1 NMatS0=      1 NMatT0=    0 NMatD0=    1 NMtDS0=    0 NMtDT0=    0
 Petite list used in FoFCou.
 Harris En= -1135.90239603539    
 JPrj=0 DoOrth=F DoCkMO=F.
 Initial guess <Sx>= 0.0000 <Sy>= 0.0000 <Sz>= 0.5000 <S**2>= 0.7500 S= 0.5000
 Leave Link  401 at Thu Dec  7 01:44:56 2023, MaxMem=  1879048192 cpu:               4.3 elap:               0.3
 (Enter /home/sekinelabo/g16/l502.exe)
 Keep R1 and R2 ints in memory in canonical form, NReq=506573335.
 FoFCou: FMM=F IPFlag=           0 FMFlag=           0 FMFlg1=           0
         NFxFlg=           0 DoJE=F BraDBF=F KetDBF=F FulRan=T
         wScrn=  0.000000 ICntrl=       600 IOpCl=  0 I1Cent=           0 NGrid=           0
         NMat0=    1 NMatS0=  22155 NMatT0=    0 NMatD0=    1 NMtDS0=    0 NMtDT0=    0
 Symmetry not used in FoFCou.
 Two-electron integral symmetry not used.
 UHF open shell SCF:
 Using DIIS extrapolation, IDIIS=  1040.
 NGot=  1879048192 LenX=  1388082565 LenY=  1388035035
 Requested convergence on RMS density matrix=1.00D-08 within 128 cycles.
 Requested convergence on MAX density matrix=1.00D-06.
 Requested convergence on             energy=1.00D-06.
 No special actions if energy rises.

 Cycle   1  Pass 1  IDiag  1:
 E= -1136.08670243059    
 DIIS: error= 1.24D-02 at cycle   1 NSaved=   1.
 NSaved= 1 IEnMin= 1 EnMin= -1136.08670243059     IErMin= 1 ErrMin= 1.24D-02
 ErrMax= 1.24D-02  0.00D+00 EMaxC= 1.00D-01 BMatC= 1.99D-01 BMatP= 1.99D-01
 IDIUse=3 WtCom= 8.76D-01 WtEn= 1.24D-01
 Coeff-Com:  0.100D+01
 Coeff-En:   0.100D+01
 Coeff:      0.100D+01
 Gap=     0.032 Goal=   None    Shift=    0.000
 Gap=     0.060 Goal=   None    Shift=    0.000
 GapD=    0.032 DampG=0.250 DampE=0.500 DampFc=0.2500 IDamp=-1.
 Damping current iteration by 2.50D-01
 RMSDP=4.85D-02 MaxDP=3.00D+00              OVMax= 2.78D-01

 Cycle   2  Pass 1  IDiag  1:
 E= -1136.10221111732     Delta-E=       -0.015508686731 Rises=F Damp=T
 DIIS: error= 7.54D-03 at cycle   2 NSaved=   2.
 NSaved= 2 IEnMin= 2 EnMin= -1136.10221111732     IErMin= 2 ErrMin= 7.54D-03
 ErrMax= 7.54D-03  0.00D+00 EMaxC= 1.00D-01 BMatC= 7.47D-02 BMatP= 1.99D-01
 IDIUse=3 WtCom= 9.25D-01 WtEn= 7.54D-02
 Coeff-Com: -0.123D+01 0.223D+01
 Coeff-En:   0.000D+00 0.100D+01
 Coeff:     -0.114D+01 0.214D+01
 Gap=     0.049 Goal=   None    Shift=    0.000
 Gap=     0.063 Goal=   None    Shift=    0.000
 RMSDP=1.94D-02 MaxDP=1.21D+00 DE=-1.55D-02 OVMax= 1.91D-01

 Cycle   3  Pass 1  IDiag  1:
 E= -1136.12728588989     Delta-E=       -0.025074772570 Rises=F Damp=F
 DIIS: error= 3.83D-03 at cycle   3 NSaved=   3.
 NSaved= 3 IEnMin= 3 EnMin= -1136.12728588989     IErMin= 3 ErrMin= 3.83D-03
 ErrMax= 3.83D-03  0.00D+00 EMaxC= 1.00D-01 BMatC= 4.21D-03 BMatP= 7.47D-02
 IDIUse=3 WtCom= 9.62D-01 WtEn= 3.83D-02
 Coeff-Com: -0.286D+00 0.507D+00 0.779D+00
 Coeff-En:   0.000D+00 0.000D+00 0.100D+01
 Coeff:     -0.275D+00 0.488D+00 0.787D+00
 Gap=     0.043 Goal=   None    Shift=    0.000
 Gap=     0.059 Goal=   None    Shift=    0.000
 RMSDP=1.14D-02 MaxDP=9.70D-01 DE=-2.51D-02 OVMax= 6.70D-02

 Cycle   4  Pass 1  IDiag  1:
 E= -1136.12826115777     Delta-E=       -0.000975267878 Rises=F Damp=F
 DIIS: error= 3.22D-03 at cycle   4 NSaved=   4.
 NSaved= 4 IEnMin= 4 EnMin= -1136.12826115777     IErMin= 4 ErrMin= 3.22D-03
 ErrMax= 3.22D-03  0.00D+00 EMaxC= 1.00D-01 BMatC= 2.79D-03 BMatP= 4.21D-03
 IDIUse=3 WtCom= 9.68D-01 WtEn= 3.22D-02
 Coeff-Com: -0.961D-02 0.126D-01 0.448D+00 0.549D+00
 Coeff-En:   0.000D+00 0.000D+00 0.411D+00 0.589D+00
 Coeff:     -0.930D-02 0.122D-01 0.447D+00 0.550D+00
 Gap=     0.047 Goal=   None    Shift=    0.000
 Gap=     0.058 Goal=   None    Shift=    0.000
 RMSDP=3.48D-03 MaxDP=2.00D-01 DE=-9.75D-04 OVMax= 3.54D-02

 Cycle   5  Pass 1  IDiag  1:
 E= -1136.13014271023     Delta-E=       -0.001881552455 Rises=F Damp=F
 DIIS: error= 4.42D-04 at cycle   5 NSaved=   5.
 NSaved= 5 IEnMin= 5 EnMin= -1136.13014271023     IErMin= 5 ErrMin= 4.42D-04
 ErrMax= 4.42D-04  0.00D+00 EMaxC= 1.00D-01 BMatC= 4.79D-05 BMatP= 2.79D-03
 IDIUse=3 WtCom= 9.96D-01 WtEn= 4.42D-03
 Coeff-Com: -0.656D-02 0.797D-02 0.259D+00 0.325D+00 0.415D+00
 Coeff-En:   0.000D+00 0.000D+00 0.000D+00 0.000D+00 0.100D+01
 Coeff:     -0.653D-02 0.793D-02 0.258D+00 0.324D+00 0.417D+00
 Gap=     0.047 Goal=   None    Shift=    0.000
 Gap=     0.058 Goal=   None    Shift=    0.000
 RMSDP=5.63D-04 MaxDP=6.42D-02 DE=-1.88D-03 OVMax= 9.52D-03

 Cycle   6  Pass 1  IDiag  1:
 E= -1136.13019995688     Delta-E=       -0.000057246651 Rises=F Damp=F
 DIIS: error= 1.27D-04 at cycle   6 NSaved=   6.
 NSaved= 6 IEnMin= 6 EnMin= -1136.13019995688     IErMin= 6 ErrMin= 1.27D-04
 ErrMax= 1.27D-04  0.00D+00 EMaxC= 1.00D-01 BMatC= 4.52D-06 BMatP= 4.79D-05
 IDIUse=3 WtCom= 9.99D-01 WtEn= 1.27D-03
 Coeff-Com: -0.242D-02 0.297D-02-0.431D-01-0.482D-01 0.210D+00 0.881D+00
 Coeff-En:   0.000D+00 0.000D+00 0.000D+00 0.000D+00 0.733D-01 0.927D+00
 Coeff:     -0.242D-02 0.297D-02-0.431D-01-0.481D-01 0.210D+00 0.881D+00
 Gap=     0.047 Goal=   None    Shift=    0.000
 Gap=     0.059 Goal=   None    Shift=    0.000
 RMSDP=3.41D-04 MaxDP=4.62D-02 DE=-5.72D-05 OVMax= 2.65D-03

 Cycle   7  Pass 1  IDiag  1:
 E= -1136.13020704522     Delta-E=       -0.000007088346 Rises=F Damp=F
 DIIS: error= 2.23D-05 at cycle   7 NSaved=   7.
 NSaved= 7 IEnMin= 7 EnMin= -1136.13020704522     IErMin= 7 ErrMin= 2.23D-05
 ErrMax= 2.23D-05  0.00D+00 EMaxC= 1.00D-01 BMatC= 1.10D-07 BMatP= 4.52D-06
 IDIUse=1 WtCom= 1.00D+00 WtEn= 0.00D+00
 Coeff-Com:  0.878D-03-0.119D-02-0.122D-01-0.139D-01-0.264D-01-0.294D-01
 Coeff-Com:  0.108D+01
 Coeff:      0.878D-03-0.119D-02-0.122D-01-0.139D-01-0.264D-01-0.294D-01
 Coeff:      0.108D+01
 Gap=     0.047 Goal=   None    Shift=    0.000
 Gap=     0.059 Goal=   None    Shift=    0.000
 RMSDP=9.58D-05 MaxDP=1.08D-02 DE=-7.09D-06 OVMax= 1.04D-03

 Cycle   8  Pass 1  IDiag  1:
 E= -1136.13020743611     Delta-E=       -0.000000390890 Rises=F Damp=F
 DIIS: error= 1.56D-05 at cycle   8 NSaved=   8.
 NSaved= 8 IEnMin= 8 EnMin= -1136.13020743611     IErMin= 8 ErrMin= 1.56D-05
 ErrMax= 1.56D-05  0.00D+00 EMaxC= 1.00D-01 BMatC= 7.00D-08 BMatP= 1.10D-07
 IDIUse=1 WtCom= 1.00D+00 WtEn= 0.00D+00
 Coeff-Com:  0.917D-03-0.120D-02-0.203D-03-0.890D-03-0.424D-01-0.127D+00
 Coeff-Com:  0.545D+00 0.625D+00
 Coeff:      0.917D-03-0.120D-02-0.203D-03-0.890D-03-0.424D-01-0.127D+00
 Coeff:      0.545D+00 0.625D+00
 Gap=     0.047 Goal=   None    Shift=    0.000
 Gap=     0.059 Goal=   None    Shift=    0.000
 RMSDP=2.77D-05 MaxDP=2.28D-03 DE=-3.91D-07 OVMax= 6.68D-04

 Cycle   9  Pass 1  IDiag  1:
 E= -1136.13020755336     Delta-E=       -0.000000117247 Rises=F Damp=F
 DIIS: error= 1.03D-05 at cycle   9 NSaved=   9.
 NSaved= 9 IEnMin= 9 EnMin= -1136.13020755336     IErMin= 9 ErrMin= 1.03D-05
 ErrMax= 1.03D-05  0.00D+00 EMaxC= 1.00D-01 BMatC= 2.78D-08 BMatP= 7.00D-08
 IDIUse=1 WtCom= 1.00D+00 WtEn= 0.00D+00
 Coeff-Com:  0.437D-03-0.554D-03 0.290D-02 0.253D-02-0.229D-01-0.771D-01
 Coeff-Com:  0.710D-01 0.414D+00 0.610D+00
 Coeff:      0.437D-03-0.554D-03 0.290D-02 0.253D-02-0.229D-01-0.771D-01
 Coeff:      0.710D-01 0.414D+00 0.610D+00
 Gap=     0.047 Goal=   None    Shift=    0.000
 Gap=     0.059 Goal=   None    Shift=    0.000
 RMSDP=1.76D-05 MaxDP=1.46D-03 DE=-1.17D-07 OVMax= 3.68D-04

 Cycle  10  Pass 1  IDiag  1:
 E= -1136.13020761280     Delta-E=       -0.000000059438 Rises=F Damp=F
 DIIS: error= 4.15D-06 at cycle  10 NSaved=  10.
 NSaved=10 IEnMin=10 EnMin= -1136.13020761280     IErMin=10 ErrMin= 4.15D-06
 ErrMax= 4.15D-06  0.00D+00 EMaxC= 1.00D-01 BMatC= 4.61D-09 BMatP= 2.78D-08
 IDIUse=1 WtCom= 1.00D+00 WtEn= 0.00D+00
 Coeff-Com: -0.684D-04 0.987D-04 0.149D-02 0.144D-02 0.152D-02 0.156D-03
 Coeff-Com: -0.134D+00 0.521D-02 0.277D+00 0.846D+00
 Coeff:     -0.684D-04 0.987D-04 0.149D-02 0.144D-02 0.152D-02 0.156D-03
 Coeff:     -0.134D+00 0.521D-02 0.277D+00 0.846D+00
 Gap=     0.047 Goal=   None    Shift=    0.000
 Gap=     0.059 Goal=   None    Shift=    0.000
 RMSDP=1.50D-05 MaxDP=1.74D-03 DE=-5.94D-08 OVMax= 2.75D-04

 Cycle  11  Pass 1  IDiag  1:
 E= -1136.13020763076     Delta-E=       -0.000000017964 Rises=F Damp=F
 DIIS: error= 2.21D-06 at cycle  11 NSaved=  11.
 NSaved=11 IEnMin=11 EnMin= -1136.13020763076     IErMin=11 ErrMin= 2.21D-06
 ErrMax= 2.21D-06  0.00D+00 EMaxC= 1.00D-01 BMatC= 1.57D-09 BMatP= 4.61D-09
 IDIUse=1 WtCom= 1.00D+00 WtEn= 0.00D+00
 Coeff-Com: -0.168D-03 0.220D-03 0.363D-03 0.504D-03 0.703D-02 0.190D-01
 Coeff-Com: -0.927D-01-0.108D+00-0.212D-01 0.458D+00 0.738D+00
 Coeff:     -0.168D-03 0.220D-03 0.363D-03 0.504D-03 0.703D-02 0.190D-01
 Coeff:     -0.927D-01-0.108D+00-0.212D-01 0.458D+00 0.738D+00
 Gap=     0.047 Goal=   None    Shift=    0.000
 Gap=     0.059 Goal=   None    Shift=    0.000
 RMSDP=8.62D-06 MaxDP=1.09D-03 DE=-1.80D-08 OVMax= 1.82D-04

 Cycle  12  Pass 1  IDiag  1:
 E= -1136.13020763634     Delta-E=       -0.000000005576 Rises=F Damp=F
 DIIS: error= 8.30D-07 at cycle  12 NSaved=  12.
 NSaved=12 IEnMin=12 EnMin= -1136.13020763634     IErMin=12 ErrMin= 8.30D-07
 ErrMax= 8.30D-07  0.00D+00 EMaxC= 1.00D-01 BMatC= 2.81D-10 BMatP= 1.57D-09
 IDIUse=1 WtCom= 1.00D+00 WtEn= 0.00D+00
 Coeff-Com: -0.496D-04 0.625D-04-0.233D-03-0.138D-03 0.204D-02 0.613D-02
 Coeff-Com:  0.704D-02-0.491D-01-0.973D-01-0.643D-01 0.294D+00 0.902D+00
 Coeff:     -0.496D-04 0.625D-04-0.233D-03-0.138D-03 0.204D-02 0.613D-02
 Coeff:      0.704D-02-0.491D-01-0.973D-01-0.643D-01 0.294D+00 0.902D+00
 Gap=     0.047 Goal=   None    Shift=    0.000
 Gap=     0.059 Goal=   None    Shift=    0.000
 RMSDP=3.95D-06 MaxDP=4.60D-04 DE=-5.58D-09 OVMax= 8.28D-05

 Cycle  13  Pass 1  IDiag  1:
 E= -1136.13020763759     Delta-E=       -0.000000001250 Rises=F Damp=F
 DIIS: error= 3.76D-07 at cycle  13 NSaved=  13.
 NSaved=13 IEnMin=13 EnMin= -1136.13020763759     IErMin=13 ErrMin= 3.76D-07
 ErrMax= 3.76D-07  0.00D+00 EMaxC= 1.00D-01 BMatC= 3.01D-11 BMatP= 2.81D-10
 IDIUse=1 WtCom= 1.00D+00 WtEn= 0.00D+00
 Coeff-Com:  0.232D-04-0.312D-04-0.589D-04-0.523D-04-0.903D-03-0.210D-02
 Coeff-Com:  0.144D-01 0.125D-01-0.694D-02-0.846D-01-0.842D-01 0.836D-01
 Coeff-Com:  0.107D+01
 Coeff:      0.232D-04-0.312D-04-0.589D-04-0.523D-04-0.903D-03-0.210D-02
 Coeff:      0.144D-01 0.125D-01-0.694D-02-0.846D-01-0.842D-01 0.836D-01
 Coeff:      0.107D+01
 Gap=     0.047 Goal=   None    Shift=    0.000
 Gap=     0.059 Goal=   None    Shift=    0.000
 RMSDP=1.41D-06 MaxDP=9.28D-05 DE=-1.25D-09 OVMax= 3.38D-05

 Cycle  14  Pass 1  IDiag  1:
 E= -1136.13020763780     Delta-E=       -0.000000000217 Rises=F Damp=F
 DIIS: error= 1.61D-07 at cycle  14 NSaved=  14.
 NSaved=14 IEnMin=14 EnMin= -1136.13020763780     IErMin=14 ErrMin= 1.61D-07
 ErrMax= 1.61D-07  0.00D+00 EMaxC= 1.00D-01 BMatC= 5.99D-12 BMatP= 3.01D-11
 IDIUse=1 WtCom= 1.00D+00 WtEn= 0.00D+00
 Coeff-Com:  0.859D-05-0.107D-04 0.129D-04-0.115D-04-0.288D-03-0.870D-03
 Coeff-Com: -0.275D-02 0.973D-02 0.220D-01 0.184D-01-0.602D-01-0.175D+00
 Coeff-Com: -0.864D-01 0.128D+01
 Coeff:      0.859D-05-0.107D-04 0.129D-04-0.115D-04-0.288D-03-0.870D-03
 Coeff:     -0.275D-02 0.973D-02 0.220D-01 0.184D-01-0.602D-01-0.175D+00
 Coeff:     -0.864D-01 0.128D+01
 Gap=     0.047 Goal=   None    Shift=    0.000
 Gap=     0.059 Goal=   None    Shift=    0.000
 RMSDP=9.55D-07 MaxDP=9.75D-05 DE=-2.17D-10 OVMax= 1.71D-05

 Cycle  15  Pass 1  IDiag  1:
 E= -1136.13020763784     Delta-E=       -0.000000000036 Rises=F Damp=F
 DIIS: error= 7.01D-08 at cycle  15 NSaved=  15.
 NSaved=15 IEnMin=15 EnMin= -1136.13020763784     IErMin=15 ErrMin= 7.01D-08
 ErrMax= 7.01D-08  0.00D+00 EMaxC= 1.00D-01 BMatC= 1.03D-12 BMatP= 5.99D-12
 IDIUse=1 WtCom= 1.00D+00 WtEn= 0.00D+00
 Coeff-Com: -0.421D-05 0.577D-05 0.132D-04 0.106D-04 0.151D-03 0.205D-03
 Coeff-Com: -0.185D-02-0.262D-02 0.217D-03 0.155D-01 0.150D-01-0.740D-02
 Coeff-Com: -0.191D+00-0.597D-01 0.123D+01
 Coeff:     -0.421D-05 0.577D-05 0.132D-04 0.106D-04 0.151D-03 0.205D-03
 Coeff:     -0.185D-02-0.262D-02 0.217D-03 0.155D-01 0.150D-01-0.740D-02
 Coeff:     -0.191D+00-0.597D-01 0.123D+01
 Gap=     0.047 Goal=   None    Shift=    0.000
 Gap=     0.059 Goal=   None    Shift=    0.000
 RMSDP=4.00D-07 MaxDP=3.48D-05 DE=-3.59D-11 OVMax= 7.04D-06

 Cycle  16  Pass 1  IDiag  1:
 E= -1136.13020763785     Delta-E=       -0.000000000010 Rises=F Damp=F
 DIIS: error= 2.47D-08 at cycle  16 NSaved=  16.
 NSaved=16 IEnMin=16 EnMin= -1136.13020763785     IErMin=16 ErrMin= 2.47D-08
 ErrMax= 2.47D-08  0.00D+00 EMaxC= 1.00D-01 BMatC= 1.62D-13 BMatP= 1.03D-12
 IDIUse=1 WtCom= 1.00D+00 WtEn= 0.00D+00
 Coeff-Com: -0.231D-05 0.300D-05 0.123D-05 0.335D-05 0.774D-04 0.224D-03
 Coeff-Com: -0.283D-03-0.186D-02-0.257D-02 0.170D-02 0.119D-01 0.159D-01
 Coeff-Com: -0.272D-01-0.191D+00 0.280D+00 0.913D+00
 Coeff:     -0.231D-05 0.300D-05 0.123D-05 0.335D-05 0.774D-04 0.224D-03
 Coeff:     -0.283D-03-0.186D-02-0.257D-02 0.170D-02 0.119D-01 0.159D-01
 Coeff:     -0.272D-01-0.191D+00 0.280D+00 0.913D+00
 Gap=     0.047 Goal=   None    Shift=    0.000
 Gap=     0.059 Goal=   None    Shift=    0.000
 RMSDP=9.73D-08 MaxDP=7.41D-06 DE=-1.00D-11 OVMax= 1.93D-06

 Cycle  17  Pass 1  IDiag  1:
 E= -1136.13020763785     Delta-E=        0.000000000000 Rises=F Damp=F
 DIIS: error= 9.83D-09 at cycle  17 NSaved=  17.
 NSaved=17 IEnMin=16 EnMin= -1136.13020763785     IErMin=17 ErrMin= 9.83D-09
 ErrMax= 9.83D-09  0.00D+00 EMaxC= 1.00D-01 BMatC= 2.14D-14 BMatP= 1.62D-13
 IDIUse=1 WtCom= 1.00D+00 WtEn= 0.00D+00
 Coeff-Com:  0.147D-06-0.233D-06-0.137D-05-0.665D-06-0.799D-05 0.184D-04
 Coeff-Com:  0.291D-03-0.770D-04-0.756D-03-0.237D-02 0.801D-03 0.668D-02
 Coeff-Com:  0.214D-01-0.387D-01-0.111D+00 0.193D+00 0.930D+00
 Coeff:      0.147D-06-0.233D-06-0.137D-05-0.665D-06-0.799D-05 0.184D-04
 Coeff:      0.291D-03-0.770D-04-0.756D-03-0.237D-02 0.801D-03 0.668D-02
 Coeff:      0.214D-01-0.387D-01-0.111D+00 0.193D+00 0.930D+00
 Gap=     0.047 Goal=   None    Shift=    0.000
 Gap=     0.059 Goal=   None    Shift=    0.000
 RMSDP=4.56D-08 MaxDP=3.33D-06 DE= 0.00D+00 OVMax= 5.28D-07

 Cycle  18  Pass 1  IDiag  1:
 E= -1136.13020763786     Delta-E=       -0.000000000013 Rises=F Damp=F
 DIIS: error= 3.06D-09 at cycle  18 NSaved=  18.
 NSaved=18 IEnMin=18 EnMin= -1136.13020763786     IErMin=18 ErrMin= 3.06D-09
 ErrMax= 3.06D-09  0.00D+00 EMaxC= 1.00D-01 BMatC= 2.45D-15 BMatP= 2.14D-14
 IDIUse=1 WtCom= 1.00D+00 WtEn= 0.00D+00
 Large coefficients: NSaved= 18 BigCof=    0.00 CofMax=   10.00 Det=-7.17D-15
 Inversion failed.  Reducing to 17 matrices.
 Large coefficients: NSaved= 17 BigCof=    0.00 CofMax=   10.00 Det=-7.19D-15
 Inversion failed.  Reducing to 16 matrices.
 Large coefficients: NSaved= 16 BigCof=    0.00 CofMax=   10.00 Det=-7.25D-15
 Inversion failed.  Reducing to 15 matrices.
 Coeff-Com: -0.592D-07 0.279D-05-0.293D-05-0.941D-04 0.107D-03 0.272D-03
 Coeff-Com:  0.356D-03-0.702D-03-0.206D-02-0.172D-02 0.214D-01-0.832D-02
 Coeff-Com: -0.121D+00-0.852D-01 0.120D+01
 Coeff:     -0.592D-07 0.279D-05-0.293D-05-0.941D-04 0.107D-03 0.272D-03
 Coeff:      0.356D-03-0.702D-03-0.206D-02-0.172D-02 0.214D-01-0.832D-02
 Coeff:     -0.121D+00-0.852D-01 0.120D+01
 Gap=     0.047 Goal=   None    Shift=    0.000
 Gap=     0.059 Goal=   None    Shift=    0.000
 RMSDP=2.06D-08 MaxDP=1.97D-06 DE=-1.27D-11 OVMax= 1.97D-07

 Cycle  19  Pass 1  IDiag  1:
 E= -1136.13020763786     Delta-E=        0.000000000005 Rises=F Damp=F
 DIIS: error= 1.22D-09 at cycle  19 NSaved=  16.
 NSaved=16 IEnMin=15 EnMin= -1136.13020763786     IErMin=16 ErrMin= 1.22D-09
 ErrMax= 1.22D-09  0.00D+00 EMaxC= 1.00D-01 BMatC= 4.60D-16 BMatP= 2.45D-15
 IDIUse=1 WtCom= 1.00D+00 WtEn= 0.00D+00
 Large coefficients: NSaved= 16 BigCof=    0.00 CofMax=   10.00 Det=-7.61D-16
 Inversion failed.  Reducing to 15 matrices.
 Coeff-Com: -0.250D-05-0.947D-05-0.123D-05 0.404D-04 0.125D-03 0.164D-03
 Coeff-Com: -0.300D-03-0.998D-03-0.177D-02 0.648D-02 0.106D-01-0.300D-01
 Coeff-Com: -0.140D+00-0.401D-02 0.116D+01
 Coeff:     -0.250D-05-0.947D-05-0.123D-05 0.404D-04 0.125D-03 0.164D-03
 Coeff:     -0.300D-03-0.998D-03-0.177D-02 0.648D-02 0.106D-01-0.300D-01
 Coeff:     -0.140D+00-0.401D-02 0.116D+01
 Gap=     0.047 Goal=   None    Shift=    0.000
 Gap=     0.059 Goal=   None    Shift=    0.000
 RMSDP=8.76D-09 MaxDP=6.33D-07 DE= 4.55D-12 OVMax= 1.07D-07

 SCF Done:  E(UB3LYP) =  -1136.13020764     A.U. after   19 cycles
            NFock= 19  Conv=0.88D-08     -V/T= 2.0028
 <Sx>= 0.0000 <Sy>= 0.0000 <Sz>= 0.5000 <S**2>= 0.7603 S= 0.5051
 <L.S>= 0.000000000000E+00
 KE= 1.132969167426D+03 PE=-3.420664284170D+03 EE= 8.060200107829D+02
 Annihilation of the first spin contaminant:
 S**2 before annihilation     0.7603,   after     0.7501
 Leave Link  502 at Thu Dec  7 01:45:12 2023, MaxMem=  1879048192 cpu:             178.3 elap:              15.6
 (Enter /home/sekinelabo/g16/l601.exe)
 Copying SCF densities to generalized density rwf, IOpCl= 1 IROHF=0.

 **********************************************************************

            Population analysis using the SCF Density.

 **********************************************************************

 Orbital symmetries:
 Alpha Orbitals:
       Occupied  (A) (A) (A) (A) (A) (A) (A) (A) (A) (A) (A) (A)
                 (A) (A) (A) (A) (A) (A) (A) (A) (A) (A) (A) (A)
                 (A) (A) (A) (A) (A) (A) (A) (A) (A) (A) (A) (A)
                 (A) (A) (A)
       Virtual   (A) (A) (A) (A) (A) (A) (A) (A) (A) (A) (A) (A)
                 (A) (A) (A) (A) (A) (A) (A) (A) (A) (A) (A) (A)
                 (A) (A) (A) (A) (A) (A) (A) (A) (A) (A) (A) (A)
                 (A) (A) (A) (A) (A) (A) (A) (A) (A) (A) (A) (A)
                 (A) (A) (A) (A) (A) (A) (A) (A) (A) (A) (A) (A)
                 (A) (A) (A) (A) (A) (A) (A) (A) (A) (A) (A) (A)
                 (A) (A) (A) (A) (A) (A) (A) (A) (A) (A) (A) (A)
                 (A) (A) (A) (A) (A) (A) (A) (A) (A) (A) (A) (A)
                 (A) (A) (A) (A) (A) (A) (A) (A) (A) (A) (A) (A)
                 (A) (A) (A) (A) (A) (A) (A) (A) (A) (A) (A) (A)
                 (A) (A) (A) (A) (A) (A) (A) (A) (A) (A) (A) (A)
                 (A) (A) (A) (A) (A) (A) (A) (A) (A) (A) (A) (A)
                 (A) (A) (A) (A) (A) (A) (A) (A) (A) (A) (A) (A)
                 (A) (A) (A) (A) (A) (A) (A) (A) (A) (A) (A) (A)
                 (A) (A) (A)
 Beta  Orbitals:
       Occupied  (A) (A) (A) (A) (A) (A) (A) (A) (A) (A) (A) (A)
                 (A) (A) (A) (A) (A) (A) (A) (A) (A) (A) (A) (A)
                 (A) (A) (A) (A) (A) (A) (A) (A) (A) (A) (A) (A)
                 (A) (A)
       Virtual   (A) (A) (A) (A) (A) (A) (A) (A) (A) (A) (A) (A)
                 (A) (A) (A) (A) (A) (A) (A) (A) (A) (A) (A) (A)
                 (A) (A) (A) (A) (A) (A) (A) (A) (A) (A) (A) (A)
                 (A) (A) (A) (A) (A) (A) (A) (A) (A) (A) (A) (A)
                 (A) (A) (A) (A) (A) (A) (A) (A) (A) (A) (A) (A)
                 (A) (A) (A) (A) (A) (A) (A) (A) (A) (A) (A) (A)
                 (A) (A) (A) (A) (A) (A) (A) (A) (A) (A) (A) (A)
                 (A) (A) (A) (A) (A) (A) (A) (A) (A) (A) (A) (A)
                 (A) (A) (A) (A) (A) (A) (A) (A) (A) (A) (A) (A)
                 (A) (A) (A) (A) (A) (A) (A) (A) (A) (A) (A) (A)
                 (A) (A) (A) (A) (A) (A) (A) (A) (A) (A) (A) (A)
                 (A) (A) (A) (A) (A) (A) (A) (A) (A) (A) (A) (A)
                 (A) (A) (A) (A) (A) (A) (A) (A) (A) (A) (A) (A)
                 (A) (A) (A) (A) (A) (A) (A) (A) (A) (A) (A) (A)
                 (A) (A) (A) (A)
 The electronic state is 2-A.
 Alpha  occ. eigenvalues --  -38.43974 -38.43929 -38.43852 -38.43678 -38.43496
 Alpha  occ. eigenvalues --  -38.43364 -38.42717  -2.19787  -2.19781  -2.19695
 Alpha  occ. eigenvalues --   -2.19533  -2.19347  -2.19315  -2.18870  -1.13540
 Alpha  occ. eigenvalues --   -1.13464  -1.13440  -1.13438  -1.13419  -1.13406
 Alpha  occ. eigenvalues --   -1.13386  -1.13332  -1.13308  -1.13232  -1.13192
 Alpha  occ. eigenvalues --   -1.13153  -1.13096  -1.13037  -1.13006  -1.12979
 Alpha  occ. eigenvalues --   -1.12911  -1.12888  -1.12570  -1.12507  -1.12469
 Alpha  occ. eigenvalues --   -0.18731  -0.13001  -0.12650  -0.10294
 Alpha virt. eigenvalues --   -0.05591  -0.05076  -0.05060  -0.02876  -0.02741
 Alpha virt. eigenvalues --   -0.01934  -0.01630  -0.01383  -0.00542  -0.00393
 Alpha virt. eigenvalues --    0.00018   0.00313   0.00800   0.00809   0.00857
 Alpha virt. eigenvalues --    0.00881   0.01115   0.01221   0.01290   0.01341
 Alpha virt. eigenvalues --    0.01345   0.01559   0.01746   0.01881   0.02111
 Alpha virt. eigenvalues --    0.02235   0.02315   0.02479   0.02529   0.02922
 Alpha virt. eigenvalues --    0.02936   0.03020   0.03117   0.03179   0.03210
 Alpha virt. eigenvalues --    0.03257   0.03289   0.03463   0.03566   0.03615
 Alpha virt. eigenvalues --    0.04163   0.04325   0.04496   0.04584   0.04705
 Alpha virt. eigenvalues --    0.04785   0.04905   0.05106   0.05393   0.05648
 Alpha virt. eigenvalues --    0.06153   0.06451   0.07058   0.07310   0.07455
 Alpha virt. eigenvalues --    0.07718   0.08152   0.08463   0.08593   0.09296
 Alpha virt. eigenvalues --    0.09579   0.10055   0.10766   0.11345   0.11607
 Alpha virt. eigenvalues --    0.11677   0.12125   0.12267   0.12681   0.13018
 Alpha virt. eigenvalues --    0.13467   0.13749   0.14330   0.14545   0.15021
 Alpha virt. eigenvalues --    0.15273   0.15513   0.16402   0.18163   0.20065
 Alpha virt. eigenvalues --    0.24902   0.25527   0.27183   0.28226   0.29228
 Alpha virt. eigenvalues --    0.30662   0.31860   0.32591   0.33160   0.34040
 Alpha virt. eigenvalues --    0.34787   0.36580   0.37352   0.37880   0.38590
 Alpha virt. eigenvalues --    0.38713   0.40439   0.41152   0.41347   0.42330
 Alpha virt. eigenvalues --    0.42623   0.43085   0.44179   0.44244   0.44561
 Alpha virt. eigenvalues --    0.45097   0.45220   0.45347   0.46157   0.46487
 Alpha virt. eigenvalues --    0.47181   0.47334   0.48148   0.48681   0.48753
 Alpha virt. eigenvalues --    0.49820   0.50131   0.50406   0.50680   0.51826
 Alpha virt. eigenvalues --    0.53194   0.54302   0.55945   0.56219   0.57649
 Alpha virt. eigenvalues --    0.57945   0.59232   0.61248   0.61830   0.62928
 Alpha virt. eigenvalues --    0.63242   0.65903   0.66823   0.70481   0.75649
 Alpha virt. eigenvalues --    0.76859   2.04336   2.13568   2.15556   2.17851
 Alpha virt. eigenvalues --    2.19750   2.23410   2.37358   4.43504   4.44149
 Alpha virt. eigenvalues --    4.44492   4.45416   4.45714   4.46050   4.46508
 Alpha virt. eigenvalues --    4.46781   4.47489   4.47949   4.48304   4.49677
 Alpha virt. eigenvalues --    4.50613   4.51905   4.52603   4.53040   4.56265
 Alpha virt. eigenvalues --    4.58461   4.64618   4.69040   4.74829  96.24120
 Alpha virt. eigenvalues --   96.35322  96.37472  96.40280  96.42468  96.47352
 Alpha virt. eigenvalues --   96.66085
  Beta  occ. eigenvalues --  -38.43971 -38.43923 -38.43822 -38.43663 -38.43490
  Beta  occ. eigenvalues --  -38.43265 -38.42689  -2.19779  -2.19776  -2.19641
  Beta  occ. eigenvalues --   -2.19507  -2.19340  -2.19135  -2.18824  -1.13536
  Beta  occ. eigenvalues --   -1.13456  -1.13439  -1.13416  -1.13406  -1.13381
  Beta  occ. eigenvalues --   -1.13360  -1.13289  -1.13274  -1.13213  -1.13167
  Beta  occ. eigenvalues --   -1.13130  -1.13033  -1.12993  -1.12972  -1.12960
  Beta  occ. eigenvalues --   -1.12791  -1.12759  -1.12493  -1.12480  -1.12436
  Beta  occ. eigenvalues --   -0.18062  -0.12657  -0.12411
  Beta virt. eigenvalues --   -0.06551  -0.05487  -0.05031  -0.04894  -0.02225
  Beta virt. eigenvalues --   -0.02062  -0.01516  -0.01310  -0.01013  -0.00505
  Beta virt. eigenvalues --   -0.00367   0.00167   0.00386   0.00819   0.00870
  Beta virt. eigenvalues --    0.00878   0.00936   0.01209   0.01329   0.01420
  Beta virt. eigenvalues --    0.01460   0.01578   0.01727   0.01813   0.01912
  Beta virt. eigenvalues --    0.02175   0.02255   0.02412   0.02479   0.02545
  Beta virt. eigenvalues --    0.02955   0.02966   0.03139   0.03174   0.03214
  Beta virt. eigenvalues --    0.03276   0.03294   0.03330   0.03509   0.03658
  Beta virt. eigenvalues --    0.03800   0.04253   0.04489   0.04620   0.04703
  Beta virt. eigenvalues --    0.04745   0.04850   0.05086   0.05395   0.05604
  Beta virt. eigenvalues --    0.05785   0.06409   0.06509   0.07114   0.07301
  Beta virt. eigenvalues --    0.07494   0.07769   0.08366   0.08629   0.08742
  Beta virt. eigenvalues --    0.09509   0.09770   0.10340   0.10843   0.11569
  Beta virt. eigenvalues --    0.11720   0.12042   0.12314   0.12633   0.12881
  Beta virt. eigenvalues --    0.13190   0.13582   0.13897   0.14435   0.14719
  Beta virt. eigenvalues --    0.15269   0.15534   0.15840   0.16868   0.18529
  Beta virt. eigenvalues --    0.20598   0.25207   0.25763   0.27300   0.28276
  Beta virt. eigenvalues --    0.29618   0.30922   0.32215   0.33044   0.33467
  Beta virt. eigenvalues --    0.34331   0.34968   0.36743   0.37621   0.38083
  Beta virt. eigenvalues --    0.38774   0.39040   0.40521   0.41404   0.41494
  Beta virt. eigenvalues --    0.42410   0.42986   0.43263   0.44347   0.44537
  Beta virt. eigenvalues --    0.44715   0.45167   0.45359   0.45464   0.46329
  Beta virt. eigenvalues --    0.46619   0.47375   0.47545   0.48188   0.48866
  Beta virt. eigenvalues --    0.48962   0.49906   0.50281   0.50575   0.50831
  Beta virt. eigenvalues --    0.52056   0.53493   0.54609   0.56086   0.56371
  Beta virt. eigenvalues --    0.57797   0.58340   0.59366   0.61327   0.61931
  Beta virt. eigenvalues --    0.63161   0.63438   0.66220   0.67025   0.70632
  Beta virt. eigenvalues --    0.75735   0.77204   2.04430   2.13623   2.15573
  Beta virt. eigenvalues --    2.17913   2.19786   2.23815   2.37453   4.43554
  Beta virt. eigenvalues --    4.44217   4.44551   4.45448   4.45728   4.46117
  Beta virt. eigenvalues --    4.46524   4.46832   4.47526   4.47984   4.48310
  Beta virt. eigenvalues --    4.49730   4.50639   4.51948   4.52666   4.53096
  Beta virt. eigenvalues --    4.56350   4.58536   4.64654   4.69105   4.74888
  Beta virt. eigenvalues --   96.24151  96.35340  96.37481  96.40301  96.42483
  Beta virt. eigenvalues --   96.47471  96.66119
          Condensed to atoms (all electrons):
               1          2          3          4          5          6
     1  Na  15.077990   0.445673  -1.659781  -0.434710  -0.562151  -0.518754
     2  Na   0.445673  11.748254  -0.871148   0.357802   0.195612  -0.682452
     3  Na  -1.659781  -0.871148  13.876288  -0.016402  -0.256570   0.397223
     4  Na  -0.434710   0.357802  -0.016402  11.639974  -1.004037  -0.496417
     5  Na  -0.562151   0.195612  -0.256570  -1.004037  12.307597   0.561159
     6  Na  -0.518754  -0.682452   0.397223  -0.496417   0.561159  11.146352
     7  Na  -1.343681  -0.503891   0.705622   0.762353  -0.555156   0.292148
               7
     1  Na  -1.343681
     2  Na  -0.503891
     3  Na   0.705622
     4  Na   0.762353
     5  Na  -0.555156
     6  Na   0.292148
     7  Na  11.578660
          Atomic-Atomic Spin Densities.
               1          2          3          4          5          6
     1  Na   3.593276   0.012231  -1.242904  -0.414355  -0.440778  -0.108486
     2  Na   0.012231  -0.226126   0.301764  -0.147822   0.056849   0.127522
     3  Na  -1.242904   0.301764   0.266605   0.412688  -0.078267  -0.161850
     4  Na  -0.414355  -0.147822   0.412688   0.004497  -0.005770   0.079646
     5  Na  -0.440778   0.056849  -0.078267  -0.005770   0.398870   0.109948
     6  Na  -0.108486   0.127522  -0.161850   0.079646   0.109948   0.001351
     7  Na  -0.829641   0.021744   0.349766   0.111291   0.135109   0.067410
               7
     1  Na  -0.829641
     2  Na   0.021744
     3  Na   0.349766
     4  Na   0.111291
     5  Na   0.135109
     6  Na   0.067410
     7  Na   0.249331
 Mulliken charges and spin densities:
               1          2
     1  Na  -0.004586   0.569344
     2  Na   0.310150   0.146163
     3  Na  -1.175232  -0.152198
     4  Na   0.191437   0.040176
     5  Na   0.313546   0.175961
     6  Na   0.300741   0.115543
     7  Na   0.063944   0.105010
 Sum of Mulliken charges =  -0.00000   1.00000
 Mulliken charges and spin densities with hydrogens summed into heavy atoms:
               1          2
     1  Na  -0.004586   0.569344
     2  Na   0.310150   0.146163
     3  Na  -1.175232  -0.152198
     4  Na   0.191437   0.040176
     5  Na   0.313546   0.175961
     6  Na   0.300741   0.115543
     7  Na   0.063944   0.105010
 Electronic spatial extent (au):  <R**2>=           2276.0390
 Charge=              0.0000 electrons
 Dipole moment (field-independent basis, Debye):
    X=             -0.0872    Y=             -0.1428    Z=              0.3299  Tot=              0.3699
 Quadrupole moment (field-independent basis, Debye-Ang):
   XX=            -57.2009   YY=            -57.5561   ZZ=            -75.7914
   XY=              1.0724   XZ=             -0.0098   YZ=             -1.4507
 Traceless Quadrupole moment (field-independent basis, Debye-Ang):
   XX=              6.3152   YY=              5.9600   ZZ=            -12.2753
   XY=              1.0724   XZ=             -0.0098   YZ=             -1.4507
 Octapole moment (field-independent basis, Debye-Ang**2):
  XXX=              0.4812  YYY=             -4.2888  ZZZ=              6.5610  XYY=             -0.9116
  XXY=             -4.5485  XXZ=             -3.0759  XZZ=             -1.1279  YZZ=              0.2349
  YYZ=              1.4915  XYZ=              1.2977
 Hexadecapole moment (field-independent basis, Debye-Ang**3):
 XXXX=          -1519.1212 YYYY=          -1367.7147 ZZZZ=           -696.2091 XXXY=             39.5321
 XXXZ=            -25.3222 YYYX=             -2.3835 YYYZ=            -25.9096 ZZZX=             -2.1913
 ZZZY=             -2.9106 XXYY=           -482.8252 XXZZ=           -431.5011 YYZZ=           -407.0674
 XXYZ=             -6.5968 YYXZ=             27.3655 ZZXY=             -2.6549
 N-N= 3.455448983227D+02 E-N=-3.420664284058D+03  KE= 1.132969167426D+03
                          Isotropic Fermi Contact Couplings
        Atom                 a.u.       MegaHertz       Gauss      10(-4) cm-1
     1  Na(23)             0.40978     484.78355     172.98283     161.70639
     2  Na(23)            -0.00661      -7.81807      -2.78968      -2.60783
     3  Na(23)             0.05227      61.83667      22.06486      20.62649
     4  Na(23)            -0.01113     -13.16231      -4.69664      -4.39048
     5  Na(23)             0.11047     130.68327      46.63104      43.59125
     6  Na(23)            -0.01232     -14.58051      -5.20269      -4.86353
     7  Na(23)             0.04014      47.48306      16.94313      15.83864
 --------------------------------------------------------
       Center         ----  Spin Dipole Couplings  ----
                      3XX-RR        3YY-RR        3ZZ-RR
 --------------------------------------------------------
     1   Atom       -0.006246      0.012420     -0.006174
     2   Atom       -0.012109     -0.009102      0.021211
     3   Atom       -0.017804     -0.027999      0.045803
     4   Atom       -0.007174     -0.005942      0.013116
     5   Atom       -0.005706     -0.008047      0.013753
     6   Atom       -0.014990     -0.012004      0.026994
     7   Atom       -0.010404     -0.006813      0.017217
 --------------------------------------------------------
                        XY            XZ            YZ
 --------------------------------------------------------
     1   Atom        0.002162      0.001853     -0.000365
     2   Atom       -0.004374     -0.012787      0.008218
     3   Atom       -0.000104     -0.009406     -0.010528
     4   Atom       -0.000172      0.005238     -0.010298
     5   Atom       -0.000608      0.006947      0.000197
     6   Atom        0.002533     -0.009898     -0.006980
     7   Atom       -0.000256      0.004478      0.010187
 --------------------------------------------------------


 ---------------------------------------------------------------------------------
              Anisotropic Spin Dipole Couplings in Principal Axis System
 ---------------------------------------------------------------------------------

       Atom             a.u.   MegaHertz   Gauss  10(-4) cm-1        Axes

              Baa    -0.0082    -1.161    -0.414    -0.387  0.7309 -0.0885 -0.6767
     1 Na(23) Bbb    -0.0044    -0.628    -0.224    -0.209  0.6731 -0.0704  0.7362
              Bcc     0.0127     1.789     0.638     0.597  0.1128  0.9936 -0.0081
 
              Baa    -0.0168    -2.378    -0.849    -0.793  0.9325  0.2520  0.2589
     2 Na(23) Bbb    -0.0110    -1.553    -0.554    -0.518 -0.1683  0.9371 -0.3059
              Bcc     0.0278     3.932     1.403     1.311 -0.3197  0.2417  0.9162
 
              Baa    -0.0297    -4.188    -1.494    -1.397  0.1299  0.9797  0.1529
     3 Na(23) Bbb    -0.0189    -2.672    -0.954    -0.891  0.9818 -0.1487  0.1185
              Bcc     0.0486     6.860     2.448     2.288 -0.1388 -0.1347  0.9811
 
              Baa    -0.0115    -1.626    -0.580    -0.542 -0.4807  0.7679  0.4233
     4 Na(23) Bbb    -0.0070    -0.993    -0.354    -0.331  0.8567  0.5142  0.0401
              Bcc     0.0185     2.619     0.934     0.873  0.1869 -0.3820  0.9051
 
              Baa    -0.0086    -1.219    -0.435    -0.407  0.6423  0.7383 -0.2058
     5 Na(23) Bbb    -0.0073    -1.038    -0.370    -0.346  0.7031 -0.6745 -0.2252
              Bcc     0.0160     2.256     0.805     0.753  0.3051  0.0001  0.9523
 
              Baa    -0.0174    -2.460    -0.878    -0.820  0.9595 -0.2171  0.1797
     6 Na(23) Bbb    -0.0131    -1.846    -0.659    -0.616  0.1779  0.9611  0.2114
              Bcc     0.0305     4.305     1.536     1.436 -0.2186 -0.1708  0.9607
 
              Baa    -0.0125    -1.768    -0.631    -0.590  0.7387  0.5957 -0.3153
     7 Na(23) Bbb    -0.0090    -1.266    -0.452    -0.422 -0.6617  0.7301 -0.1709
              Bcc     0.0215     3.034     1.083     1.012  0.1284  0.3349  0.9335
 

 ---------------------------------------------------------------------------------

 No NMR shielding tensors so no spin-rotation constants.
 Leave Link  601 at Thu Dec  7 01:45:12 2023, MaxMem=  1879048192 cpu:               2.3 elap:               0.2
 (Enter /home/sekinelabo/g16/l701.exe)
 ... and contract with generalized density number  0.
 Compute integral first derivatives.
 Leave Link  701 at Thu Dec  7 01:45:12 2023, MaxMem=  1879048192 cpu:               1.5 elap:               0.1
 (Enter /home/sekinelabo/g16/l702.exe)
 L702 exits ... SP integral derivatives will be done elsewhere.
 Leave Link  702 at Thu Dec  7 01:45:12 2023, MaxMem=  1879048192 cpu:               0.5 elap:               0.0
 (Enter /home/sekinelabo/g16/l703.exe)
 Integral derivatives from FoFJK, PRISM(SPDF).
 Compute integral first derivatives, UseDBF=F ICtDFT=           0.
 Calling FoFJK, ICntrl=      2127 FMM=F ISym2X=0 I1Cent= 0 IOpClX= 1 NMat=1 NMatS=1 NMatT=0.
 FoFJK:  IHMeth= 1 ICntrl=    2127 DoSepK=F KAlg= 0 I1Cent=           0 FoldK=F
 IRaf=         0 NMat=       1 IRICut=       1 DoRegI=T DoRafI=F ISym2E= 0 IDoP0=0 IntGTp=1.
 FoFCou: FMM=F IPFlag=           0 FMFlag=      100000 FMFlg1=         800
         NFxFlg=           0 DoJE=F BraDBF=F KetDBF=F FulRan=T
         wScrn=  0.000000 ICntrl=      2127 IOpCl=  1 I1Cent=           0 NGrid=           0
         NMat0=    1 NMatS0=      1 NMatT0=    0 NMatD0=    1 NMtDS0=    0 NMtDT0=    0
 Symmetry not used in FoFCou.
 Leave Link  703 at Thu Dec  7 01:45:15 2023, MaxMem=  1879048192 cpu:              33.2 elap:               2.2
 (Enter /home/sekinelabo/g16/l716.exe)
 Dipole        =-3.43036734D-02-5.61902882D-02 1.29799554D-01
 ***** Axes restored to original set *****
 -------------------------------------------------------------------
 Center     Atomic                   Forces (Hartrees/Bohr)
 Number     Number              X              Y              Z
 -------------------------------------------------------------------
      1       11           0.002397354   -0.000933630    0.005966221
      2       11          -0.000826609    0.001913215    0.004029427
      3       11           0.001215665    0.001371351   -0.011656160
      4       11          -0.001701633   -0.001562580    0.000684359
      5       11          -0.000916334   -0.000981346    0.001243642
      6       11          -0.001091417   -0.000027720   -0.000768463
      7       11           0.000922973    0.000220709    0.000500973
 -------------------------------------------------------------------
 Cartesian Forces:  Max     0.011656160 RMS     0.003193059
 Z-matrix is all fixed cartesians, so copy forces.
 Force constants in Cartesian coordinates: 
                1             2             3             4             5 
      1  0.860529D-01
      2 -0.295268D-02  0.975408D-01
      3  0.104795D-01 -0.180472D-01  0.132248D+00
      4 -0.155999D-01  0.147078D-02  0.826985D-02  0.727256D-01
      5  0.624095D-02 -0.216472D-01 -0.111748D-01 -0.111847D-01  0.848461D-01
      6 -0.132418D-01  0.180156D-01 -0.124282D-01 -0.132784D-01  0.207072D-01
      7 -0.310813D-01  0.540431D-03 -0.407813D-02 -0.378023D-01 -0.484581D-03
      8  0.447392D-02 -0.317015D-01  0.107552D-01  0.438098D-05 -0.363024D-01
      9 -0.127158D-01  0.120632D-01 -0.518188D-01 -0.490425D-02  0.573997D-02
     10 -0.462716D-02  0.299992D-02 -0.519729D-02 -0.147945D-01 -0.146937D-01
     11 -0.106474D-01 -0.158013D-01 -0.466008D-02  0.143561D-01 -0.118256D-01
     12  0.127604D-01  0.173879D-01 -0.128794D-01  0.114566D-01  0.509807D-02
     13 -0.841568D-02 -0.261376D-02 -0.184833D-02 -0.142642D-01  0.123218D-01
     14  0.259883D-02  0.459788D-02  0.897767D-03 -0.116589D-01 -0.166793D-01
     15 -0.111714D-01 -0.157430D-02  0.618398D-03 -0.969347D-02 -0.105558D-01
     16 -0.177581D-01 -0.463961D-02 -0.210613D-02  0.690221D-02  0.333987D-02
     17  0.370842D-02 -0.209446D-01  0.132394D-01  0.173177D-02 -0.281764D-02
     18 -0.638887D-02 -0.240386D-01 -0.315341D-01  0.214874D-02 -0.628097D-02
     19 -0.857078D-02  0.519492D-02 -0.551950D-02  0.283312D-02  0.446038D-02
     20 -0.342199D-02 -0.120441D-01  0.898962D-02  0.528064D-02  0.442611D-02
     21  0.202780D-01 -0.380666D-02 -0.242059D-01  0.600098D-02 -0.353365D-02
                6             7             8             9            10 
      6  0.693392D-01
      7  0.118348D-01  0.197276D+00
      8 -0.200993D-01 -0.455652D-02  0.200112D+00
      9 -0.547819D-01  0.673761D-02 -0.537038D-02  0.226766D+00
     10 -0.330618D-03 -0.345958D-01 -0.988315D-02  0.223456D-02  0.644781D-01
     11 -0.788660D-02  0.922188D-02 -0.277160D-01  0.435158D-02  0.155653D-01
     12 -0.631828D-02 -0.152565D-01 -0.134441D-01 -0.345040D-01 -0.842791D-02
     13  0.713171D-02 -0.346079D-01  0.310155D-02 -0.256877D-02  0.210704D-03
     14 -0.354306D-02 -0.983763D-02 -0.404970D-01 -0.267339D-02 -0.249623D-02
     15 -0.687653D-02  0.189127D-01  0.523383D-02 -0.381430D-01 -0.133708D-02
     16  0.212903D-02 -0.207679D-01  0.665134D-02  0.982212D-03  0.638994D-02
     17 -0.334945D-02 -0.317074D-02 -0.311878D-01 -0.583553D-02 -0.414516D-02
     18  0.566609D-02 -0.759444D-03  0.168332D-01 -0.210678D-01 -0.113905D-02
     19  0.575532D-02 -0.384212D-01  0.208488D-03  0.102344D-01 -0.170614D-01
     20 -0.384439D-02  0.828715D-02 -0.327071D-01 -0.827544D-02  0.126530D-01
     21  0.539956D-02 -0.173910D-01  0.609159D-02 -0.264502D-01  0.141974D-01
               11            12            13            14            15 
     11  0.772760D-01
     12  0.568358D-02  0.490428D-01
     13 -0.493564D-02 -0.852888D-03  0.752823D-01
     14  0.385376D-02  0.177149D-02  0.565620D-02  0.540149D-01
     15  0.141194D-02  0.101910D-01 -0.137636D-02  0.847230D-02  0.359338D-01
     16 -0.582159D-02 -0.144557D-02 -0.154331D-01  0.158865D-01  0.245648D-02
     17 -0.311940D-02 -0.155548D-02 -0.127080D-01 -0.149453D-01 -0.266015D-02
     18 -0.134803D-02  0.757079D-02 -0.204757D-02 -0.443009D-02 -0.564338D-02
     19 -0.177386D-01  0.176596D-02 -0.277220D-02 -0.148764D-03  0.220916D-02
     20 -0.226674D-01 -0.149414D-01 -0.822127D-03  0.965509D-02 -0.327779D-03
     21  0.244761D-02 -0.131029D-01  0.156220D-02 -0.495017D-03  0.391974D-02
               16            17            18            19            20 
     16  0.618006D-01
     17  0.367817D-02  0.956481D-01
     18 -0.391795D-02  0.112017D-01  0.568283D-01
     19 -0.211337D-01  0.109055D-01  0.121041D-01  0.851261D-01
     20 -0.190947D-01 -0.226333D-01  0.806268D-02 -0.288200D-02  0.759707D-01
     21  0.190192D-02 -0.110406D-01 -0.118200D-01 -0.265495D-01  0.103367D-01
               21 
     21  0.662598D-01
 Leave Link  716 at Thu Dec  7 01:45:15 2023, MaxMem=  1879048192 cpu:               0.4 elap:               0.0
 (Enter /home/sekinelabo/g16/l103.exe)

 GradGradGradGradGradGradGradGradGradGradGradGradGradGradGradGradGradGrad
 Berny optimization.
 Search for a local minimum.
 Step number   1 out of a maximum of    2
 All quantities printed in internal units (Hartrees-Bohrs-Radians)
 Second derivative matrix not updated -- first step.
 ITU=  0
     Eigenvalues ---    0.04823   0.05545   0.05942   0.07799   0.08847
     Eigenvalues ---    0.08975   0.10083   0.10984   0.12878   0.13211
     Eigenvalues ---    0.14477   0.15862   0.23534   0.24389   0.27636
 Angle between quadratic step and forces=  28.80 degrees.
 Linear search not attempted -- first point.
 B after Tr=    -0.000000    0.000000    0.000000
         Rot=    1.000000   -0.000000    0.000000    0.000000 Ang=   0.00 deg.
 Variable       Old X    -DE/DX   Delta X   Delta X   Delta X     New X
                                 (Linear)    (Quad)   (Total)
    X1       25.19723   0.00240   0.00000   0.01813   0.01813  25.21536
    Y1       22.56276  -0.00093   0.00000  -0.00274  -0.00274  22.56003
    Z1       27.22869   0.00597   0.00000   0.03004   0.03004  27.25873
    X2       21.09766  -0.00083   0.00000  -0.00754  -0.00754  21.09011
    Y2       28.15427   0.00191   0.00000   0.02066   0.02066  28.17494
    Z2       26.84942   0.00403   0.00000   0.02711   0.02711  26.87653
    X3       23.19828   0.00122   0.00000   0.00584   0.00584  23.20412
    Y3       25.11597   0.00137   0.00000   0.00640   0.00640  25.12237
    Z3       22.67407  -0.01166   0.00000  -0.04084  -0.04084  22.63323
    X4       28.22419  -0.00170   0.00000  -0.00936  -0.00936  28.21483
    Y4       28.75653  -0.00156   0.00000  -0.00198  -0.00198  28.75455
    Z4       23.91807   0.00068   0.00000  -0.00573  -0.00573  23.91234
    X5       18.05552  -0.00092   0.00000  -0.01845  -0.01845  18.03707
    Y5       22.60679  -0.00098   0.00000  -0.00784  -0.00784  22.59896
    Z5       23.85118   0.00124   0.00000  -0.00030  -0.00030  23.85088
    X6       23.84041  -0.00109   0.00000  -0.00790  -0.00790  23.83250
    Y6       18.44337  -0.00003   0.00000  -0.00969  -0.00969  18.43368
    Z6       22.70941  -0.00077   0.00000  -0.01389  -0.01389  22.69551
    X7       28.70324   0.00092   0.00000   0.01929   0.01929  28.72252
    Y7       22.67690   0.00022   0.00000  -0.00483  -0.00483  22.67208
    Z7       21.08575   0.00050   0.00000   0.00361   0.00361  21.08936
         Item               Value     Threshold  Converged?
 Maximum Force            0.011656     0.000450     NO 
 RMS     Force            0.003193     0.000300     NO 
 Maximum Displacement     0.040838     0.001800     NO 
 RMS     Displacement     0.016160     0.001200     NO 
 Predicted change in Energy=-4.747929D-04
 GradGradGradGradGradGradGradGradGradGradGradGradGradGradGradGradGradGrad

 Leave Link  103 at Thu Dec  7 01:45:15 2023, MaxMem=  1879048192 cpu:               0.2 elap:               0.0
 (Enter /home/sekinelabo/g16/l9999.exe)
 1\1\GINC-SEKINELABO-XA7R-R37\Force\UB3LYP\6-311+G(d)\Na7(2)\SEKINELABO
 \07-Dec-2023\0\\#P B3LYP/6-311+g(d) force\\DPGEN\\0,2\Na,13.3338,11.93
 97,14.4088\Na,11.1644,14.8986,14.2081\Na,12.276,13.2908,11.9986\Na,14.
 9356,15.2173,12.6569\Na,9.55457,11.963,12.6215\Na,12.6158,9.75981,12.0
 173\Na,15.1891,12.0001,11.1581\\Version=ES64L-G16RevB.01\State=2-A\HF=
 -1136.1302076\S2=0.760312\S2-1=0.\S2A=0.750077\RMSD=8.758e-09\RMSF=3.1
 93e-03\Dipole=0.0489569,0.0229113,0.1351307\Quadrupole=3.0784489,3.185
 4773,-6.2639262,2.0787984,-3.2147099,4.4942101\PG=C01 [X(Na7)]\\@


 ADVERTISING--  HE WHO HAS SOMETHING TO SELL AND GOES AND WHISPERS
                IN A WELL, IS NOT SO APT TO GET THE DOLLARS AS HE
                WHO CLIMBS A TREE AND HOLLERS.

                   -- FROM THE BACK OF A SUGAR PACKET
 Job cpu time:       0 days  0 hours  3 minutes 47.5 seconds.
 Elapsed time:       0 days  0 hours  0 minutes 18.9 seconds.
 File lengths (MBytes):  RWF=     32 Int=      0 D2E=      0 Chk=      4 Scr=      1
 Normal termination of Gaussian 16 at Thu Dec  7 01:45:15 2023.
