ITEM: TIMESTEP
8980
ITEM: NUMBER OF ATOMS
7
ITEM: BOX BOUNDS xy xz yz ff ff ff
0.0000000000000000e+00 2.4973770176900000e+01 0.0000000000000000e+00
0.0000000000000000e+00 2.4973770176900000e+01 0.0000000000000000e+00
0.0000000000000000e+00 2.4973770176900000e+01 0.0000000000000000e+00
ITEM: ATOMS id type x y z fx fy fz
2 1 11.7994 11.1269 13.2685 -0.058929 -0.00939538 -0.035254
3 1 13.8513 11.1137 10.3652 -0.20742 0.107229 -0.197614
5 1 15.4954 10.5618 12.814 0.125065 0.029763 0.242189
6 1 10.0475 14.184 13.6422 0.0254773 0.000928041 0.0918395
7 1 12.6117 14.5492 11.5582 0.150081 -0.0749044 0.0857806
1 1 10.1586 12.5704 10.6956 -0.0394892 -0.0908655 -0.0968531
4 1 13.4442 13.3022 15.0645 0.00521504 0.0372454 -0.0900875
