ITEM: TIMESTEP
1300
ITEM: NUMBER OF ATOMS
7
ITEM: BOX BOUNDS xy xz yz ff ff ff
0.0000000000000000e+00 2.6286441626399998e+01 0.0000000000000000e+00
0.0000000000000000e+00 2.6286441626399998e+01 0.0000000000000000e+00
0.0000000000000000e+00 2.6286441626399998e+01 0.0000000000000000e+00
ITEM: ATOMS id type x y z fx fy fz
1 1 15.3434 12.4774 10.936 0.0810414 0.0681553 -0.0618919
2 1 15.0368 11.8581 14.1119 -0.091583 -0.0342516 0.0914911
3 1 10.9733 13.4992 14.5896 0.10018 -0.0185488 -0.0262935
4 1 12.1361 12.7609 11.3823 -0.0313501 -0.259994 0.103713
7 1 14.1895 15.1374 13.941 -0.0698152 -0.0750979 -0.0948447
6 1 11.987 15.73 11.1571 0.00541001 0.230177 0.0498349
5 1 12.3365 10.5396 15.8847 0.00611737 0.0895595 -0.0620087
