ITEM: TIMESTEP
2530
ITEM: NUMBER OF ATOMS
7
ITEM: BOX BOUNDS xy xz yz ff ff ff
0.0000000000000000e+00 2.3352777873600001e+01 0.0000000000000000e+00
0.0000000000000000e+00 2.3352777873600001e+01 0.0000000000000000e+00
0.0000000000000000e+00 2.3352777873600001e+01 0.0000000000000000e+00
ITEM: ATOMS id type x y z fx fy fz
5 1 8.5875 12.0972 11.1752 -0.0200944 -0.0665824 -0.0324094
1 1 11.7423 12.1372 9.52146 0.0885522 -0.114527 0.0762364
3 1 14.579 8.10888 12.6637 -0.0166456 0.0877125 0.0165616
4 1 10.1753 14.8934 9.89214 -0.0599558 0.130348 0.0529149
2 1 11.7175 9.54084 11.8778 -0.0374962 0.0343615 0.00775791
6 1 13.9442 11.8889 13.3451 0.1017 -0.130268 -0.0589127
7 1 10.989 13.0683 13.2592 -0.0560599 0.0589551 -0.0621486
