 Set GAUSS_MDEF to "14GB".
 Entering Gaussian System, Link 0=g16
 Initial command:
 /home/sekinelabo/g16/l1.exe "/home/sekinelabo/g16temp/Gau-352895.inp" -scrdir="/home/sekinelabo/g16temp/"
 Entering Link 1 = /home/sekinelabo/g16/l1.exe PID=    352897.
  
 Copyright (c) 1988-2017, Gaussian, Inc.  All Rights Reserved.
  
 This is part of the Gaussian(R) 16 program.  It is based on
 the Gaussian(R) 09 system (copyright 2009, Gaussian, Inc.),
 the Gaussian(R) 03 system (copyright 2003, Gaussian, Inc.),
 the Gaussian(R) 98 system (copyright 1998, Gaussian, Inc.),
 the Gaussian(R) 94 system (copyright 1995, Gaussian, Inc.),
 the Gaussian 92(TM) system (copyright 1992, Gaussian, Inc.),
 the Gaussian 90(TM) system (copyright 1990, Gaussian, Inc.),
 the Gaussian 88(TM) system (copyright 1988, Gaussian, Inc.),
 the Gaussian 86(TM) system (copyright 1986, Carnegie Mellon
 University), and the Gaussian 82(TM) system (copyright 1983,
 Carnegie Mellon University). Gaussian is a federally registered
 trademark of Gaussian, Inc.
  
 This software contains proprietary and confidential information,
 including trade secrets, belonging to Gaussian, Inc.
  
 This software is provided under written license and may be
 used, copied, transmitted, or stored only in accord with that
 written license.
  
 The following legend is applicable only to US Government
 contracts under FAR:
  
                    RESTRICTED RIGHTS LEGEND
  
 Use, reproduction and disclosure by the US Government is
 subject to restrictions as set forth in subparagraphs (a)
 and (c) of the Commercial Computer Software - Restricted
 Rights clause in FAR 52.227-19.
  
 Gaussian, Inc.
 340 Quinnipiac St., Bldg. 40, Wallingford CT 06492
  
  
 ---------------------------------------------------------------
 Warning -- This program may not be used in any manner that
 competes with the business of Gaussian, Inc. or will provide
 assistance to any competitor of Gaussian, Inc.  The licensee
 of this program is prohibited from giving any competitor of
 Gaussian, Inc. access to this program.  By using this program,
 the user acknowledges that Gaussian, Inc. is engaged in the
 business of creating and licensing software in the field of
 computational chemistry and represents and warrants to the
 licensee that it is not a competitor of Gaussian, Inc. and that
 it will not use this program in any manner prohibited above.
 ---------------------------------------------------------------
  

 Cite this work as:
 Gaussian 16, Revision B.01,
 M. J. Frisch, G. W. Trucks, H. B. Schlegel, G. E. Scuseria, 
 M. A. Robb, J. R. Cheeseman, G. Scalmani, V. Barone, 
 G. A. Petersson, H. Nakatsuji, X. Li, M. Caricato, A. V. Marenich, 
 J. Bloino, B. G. Janesko, R. Gomperts, B. Mennucci, H. P. Hratchian, 
 J. V. Ortiz, A. F. Izmaylov, J. L. Sonnenberg, D. Williams-Young, 
 F. Ding, F. Lipparini, F. Egidi, J. Goings, B. Peng, A. Petrone, 
 T. Henderson, D. Ranasinghe, V. G. Zakrzewski, J. Gao, N. Rega, 
 G. Zheng, W. Liang, M. Hada, M. Ehara, K. Toyota, R. Fukuda, 
 J. Hasegawa, M. Ishida, T. Nakajima, Y. Honda, O. Kitao, H. Nakai, 
 T. Vreven, K. Throssell, J. A. Montgomery, Jr., J. E. Peralta, 
 F. Ogliaro, M. J. Bearpark, J. J. Heyd, E. N. Brothers, K. N. Kudin, 
 V. N. Staroverov, T. A. Keith, R. Kobayashi, J. Normand, 
 K. Raghavachari, A. P. Rendell, J. C. Burant, S. S. Iyengar, 
 J. Tomasi, M. Cossi, J. M. Millam, M. Klene, C. Adamo, R. Cammi, 
 J. W. Ochterski, R. L. Martin, K. Morokuma, O. Farkas, 
 J. B. Foresman, and D. J. Fox, Gaussian, Inc., Wallingford CT, 2016.
 
 ******************************************
 Gaussian 16:  ES64L-G16RevB.01 20-Dec-2017
                29-Nov-2023 
 ******************************************
 %nproc=15
 Will use up to   15 processors via shared memory.
 -------------------------
 #P B3LYP/6-311+g(d) force
 -------------------------
 1/10=7,30=1,38=1/1,3;
 2/12=2,17=6,18=5,40=1/2;
 3/5=4,6=6,7=11,11=2,25=1,30=1,71=1,74=-5/1,2,3;
 4//1;
 5/5=2,38=5/2;
 6/7=2,8=2,9=2,10=2,28=1/1;
 7/29=1/1,2,3,16;
 1/10=7,30=1/3;
 99//99;
 Leave Link    1 at Wed Nov 29 03:24:59 2023, MaxMem=           0 cpu:               0.3 elap:               0.0
 (Enter /home/sekinelabo/g16/l101.exe)
 -----
 DPGEN
 -----
 Symbolic Z-matrix:
 Charge =  0 Multiplicity = 2
 Na                    14.8861   16.7132   12.4484 
 Na                    14.6992   13.709    11.1033 
 Na                    15.9841   12.5118   18.4101 
 Na                    14.7391   19.8313   14.385 
 Na                    16.6548   13.7904   20.969 
 Na                    15.7325   13.751    14.2676 
 Na                    14.7297   17.1188   15.8422 
 
 ITRead=  0  0  0  0  0  0  0
 MicOpt= -1 -1 -1 -1 -1 -1 -1
 NAtoms=      7 NQM=        7 NQMF=       0 NMMI=      0 NMMIF=      0
                NMic=       0 NMicF=      0.
                    Isotopes and Nuclear Properties:
 (Nuclear quadrupole moments (NQMom) in fm**2, nuclear magnetic moments (NMagM)
  in nuclear magnetons)

  Atom         1           2           3           4           5           6           7
 IAtWgt=          23          23          23          23          23          23          23
 AtmWgt=  22.9897697  22.9897697  22.9897697  22.9897697  22.9897697  22.9897697  22.9897697
 NucSpn=           3           3           3           3           3           3           3
 AtZEff=  -0.0000000  -0.0000000  -0.0000000  -0.0000000  -0.0000000  -0.0000000  -0.0000000
 NQMom=   10.4000000  10.4000000  10.4000000  10.4000000  10.4000000  10.4000000  10.4000000
 NMagM=    2.2175200   2.2175200   2.2175200   2.2175200   2.2175200   2.2175200   2.2175200
 AtZNuc=  11.0000000  11.0000000  11.0000000  11.0000000  11.0000000  11.0000000  11.0000000
 Leave Link  101 at Wed Nov 29 03:24:59 2023, MaxMem=  1879048192 cpu:               2.4 elap:               0.2
 (Enter /home/sekinelabo/g16/l103.exe)

 GradGradGradGradGradGradGradGradGradGradGradGradGradGradGradGradGradGrad
 Berny optimization.
 Initialization pass.
 Trust Radius=3.00D-01 FncErr=1.00D-07 GrdErr=1.00D-07 EigMax=2.50D+02 EigMin=1.00D-04
 Number of steps in this run=      2 maximum allowed number of steps=      2.
 GradGradGradGradGradGradGradGradGradGradGradGradGradGradGradGradGradGrad

 Leave Link  103 at Wed Nov 29 03:24:59 2023, MaxMem=  1879048192 cpu:               0.2 elap:               0.0
 (Enter /home/sekinelabo/g16/l202.exe)
                          Input orientation:                          
 ---------------------------------------------------------------------
 Center     Atomic      Atomic             Coordinates (Angstroms)
 Number     Number       Type             X           Y           Z
 ---------------------------------------------------------------------
      1         11           0       14.886100   16.713200   12.448400
      2         11           0       14.699200   13.709000   11.103300
      3         11           0       15.984100   12.511800   18.410100
      4         11           0       14.739100   19.831300   14.385000
      5         11           0       16.654800   13.790400   20.969000
      6         11           0       15.732500   13.751000   14.267600
      7         11           0       14.729700   17.118800   15.842200
 ---------------------------------------------------------------------
                    Distance matrix (angstroms):
                    1          2          3          4          5
     1  Na   0.000000
     2  Na   3.296884   0.000000
     3  Na   7.375584   7.514891   0.000000
     4  Na   3.673496   6.946489   8.445504   0.000000
     5  Na   9.179961  10.057984   2.938133   9.138459   0.000000
     6  Na   3.577780   3.329004   4.331192   6.162035   6.764684
     7  Na   3.421528   5.838222   5.421446   3.079152   6.408458
                    6          7
     6  Na   0.000000
     7  Na   3.850591   0.000000
 Stoichiometry    Na7(2)
 Framework group  C1[X(Na7)]
 Deg. of freedom    15
 Full point group                 C1      NOp   1
 Largest Abelian subgroup         C1      NOp   1
 Largest concise Abelian subgroup C1      NOp   1
                         Standard orientation:                         
 ---------------------------------------------------------------------
 Center     Atomic      Atomic             Coordinates (Angstroms)
 Number     Number       Type             X           Y           Z
 ---------------------------------------------------------------------
      1         11           0       -3.231935    0.031824   -0.180233
      2         11           0       -3.246324   -3.246015    0.173331
      3         11           0        4.011659   -1.298423    0.219786
      4         11           0       -2.801855    3.679685   -0.128064
      5         11           0        5.906049    0.908554   -0.196341
      6         11           0       -0.237458   -1.919201   -0.344897
      7         11           0       -0.400136    1.843575    0.456418
 ---------------------------------------------------------------------
 Rotational constants (GHZ):           0.6434442           0.2730142           0.1933454
 Leave Link  202 at Wed Nov 29 03:24:59 2023, MaxMem=  1879048192 cpu:               0.0 elap:               0.0
 (Enter /home/sekinelabo/g16/l301.exe)
 Standard basis: 6-311+G(d) (5D, 7F)
 Ernie: Thresh=  0.10000D-02 Tol=  0.10000D-05 Strict=F.
 There are   217 symmetry adapted cartesian basis functions of A   symmetry.
 There are   210 symmetry adapted basis functions of A   symmetry.
   210 basis functions,   350 primitive gaussians,   217 cartesian basis functions
    39 alpha electrons       38 beta electrons
       nuclear repulsion energy       273.6718319072 Hartrees.
 IExCor=  402 DFT=T Ex+Corr=B3LYP ExCW=0 ScaHFX=  0.200000
 ScaDFX=  0.800000  0.720000  1.000000  0.810000 ScalE2=  1.000000  1.000000
 IRadAn=      5 IRanWt=     -1 IRanGd=            0 ICorTp=0 IEmpDi=  4
 NAtoms=    7 NActive=    7 NUniq=    7 SFac= 1.00D+00 NAtFMM=   60 NAOKFM=F Big=F
 Integral buffers will be    131072 words long.
 Raffenetti 2 integral format.
 Two-electron integral symmetry is turned on.
 Leave Link  301 at Wed Nov 29 03:24:59 2023, MaxMem=  1879048192 cpu:               0.5 elap:               0.0
 (Enter /home/sekinelabo/g16/l302.exe)
 NPDir=0 NMtPBC=     1 NCelOv=     1 NCel=       1 NClECP=     1 NCelD=      1
         NCelK=      1 NCelE2=     1 NClLst=     1 CellRange=     0.0.
 One-electron integrals computed using PRISM.
 One-electron integral symmetry used in STVInt
 NBasis=   210 RedAO= T EigKep=  6.13D-06  NBF=   210
 NBsUse=   210 1.00D-06 EigRej= -1.00D+00 NBFU=   210
 Precomputing XC quadrature grid using
 IXCGrd= 4 IRadAn=           5 IRanWt=          -1 IRanGd=           0 AccXCQ= 0.00D+00.
 Generated NRdTot=       0 NPtTot=           0 NUsed=           0 NTot=          32
 NSgBfM=   201   201   201   201   201 MxSgAt=     7 MxSgA2=     7.
 Leave Link  302 at Wed Nov 29 03:24:59 2023, MaxMem=  1879048192 cpu:               2.0 elap:               0.1
 (Enter /home/sekinelabo/g16/l303.exe)
 DipDrv:  MaxL=1.
 Leave Link  303 at Wed Nov 29 03:24:59 2023, MaxMem=  1879048192 cpu:               0.5 elap:               0.0
 (Enter /home/sekinelabo/g16/l401.exe)
 ExpMin= 7.60D-03 ExpMax= 3.62D+04 ExpMxC= 1.21D+03 IAcc=3 IRadAn=         5 AccDes= 0.00D+00
 Harris functional with IExCor=  402 and IRadAn=       5 diagonalized for initial guess.
 HarFok:  IExCor=  402 AccDes= 0.00D+00 IRadAn=         5 IDoV= 1 UseB2=F ITyADJ=14
 ICtDFT=  3500011 ScaDFX=  1.000000  1.000000  1.000000  1.000000
 FoFCou: FMM=F IPFlag=           0 FMFlag=      100000 FMFlg1=           0
         NFxFlg=           0 DoJE=T BraDBF=F KetDBF=T FulRan=T
         wScrn=  0.000000 ICntrl=       500 IOpCl=  0 I1Cent=   200000004 NGrid=           0
         NMat0=    1 NMatS0=      1 NMatT0=    0 NMatD0=    1 NMtDS0=    0 NMtDT0=    0
 Petite list used in FoFCou.
 Harris En= -1135.88801285248    
 JPrj=0 DoOrth=F DoCkMO=F.
 Initial guess <Sx>= 0.0000 <Sy>= 0.0000 <Sz>= 0.5000 <S**2>= 0.7500 S= 0.5000
 Leave Link  401 at Wed Nov 29 03:25:00 2023, MaxMem=  1879048192 cpu:               4.3 elap:               0.3
 (Enter /home/sekinelabo/g16/l502.exe)
 Keep R1 and R2 ints in memory in canonical form, NReq=506573307.
 FoFCou: FMM=F IPFlag=           0 FMFlag=           0 FMFlg1=           0
         NFxFlg=           0 DoJE=F BraDBF=F KetDBF=F FulRan=T
         wScrn=  0.000000 ICntrl=       600 IOpCl=  0 I1Cent=           0 NGrid=           0
         NMat0=    1 NMatS0=  22155 NMatT0=    0 NMatD0=    1 NMtDS0=    0 NMtDT0=    0
 Symmetry not used in FoFCou.
 Two-electron integral symmetry not used.
 UHF open shell SCF:
 Using DIIS extrapolation, IDIIS=  1040.
 NGot=  1879048192 LenX=  1388082593 LenY=  1388035063
 Requested convergence on RMS density matrix=1.00D-08 within 128 cycles.
 Requested convergence on MAX density matrix=1.00D-06.
 Requested convergence on             energy=1.00D-06.
 No special actions if energy rises.

 Cycle   1  Pass 1  IDiag  1:
 E= -1136.09338555073    
 DIIS: error= 1.03D-02 at cycle   1 NSaved=   1.
 NSaved= 1 IEnMin= 1 EnMin= -1136.09338555073     IErMin= 1 ErrMin= 1.03D-02
 ErrMax= 1.03D-02  0.00D+00 EMaxC= 1.00D-01 BMatC= 1.82D-01 BMatP= 1.82D-01
 IDIUse=3 WtCom= 8.97D-01 WtEn= 1.03D-01
 Coeff-Com:  0.100D+01
 Coeff-En:   0.100D+01
 Coeff:      0.100D+01
 Gap=     0.039 Goal=   None    Shift=    0.000
 Gap=     0.058 Goal=   None    Shift=    0.000
 GapD=    0.039 DampG=0.250 DampE=0.500 DampFc=0.2500 IDamp=-1.
 Damping current iteration by 2.50D-01
 RMSDP=2.11D-02 MaxDP=1.93D+00              OVMax= 1.52D-01

 Cycle   2  Pass 1  IDiag  1:
 E= -1136.10164799614     Delta-E=       -0.008262445413 Rises=F Damp=T
 DIIS: error= 7.29D-03 at cycle   2 NSaved=   2.
 NSaved= 2 IEnMin= 2 EnMin= -1136.10164799614     IErMin= 2 ErrMin= 7.29D-03
 ErrMax= 7.29D-03  0.00D+00 EMaxC= 1.00D-01 BMatC= 7.08D-02 BMatP= 1.82D-01
 IDIUse=3 WtCom= 9.27D-01 WtEn= 7.29D-02
 Coeff-Com: -0.132D+01 0.232D+01
 Coeff-En:   0.000D+00 0.100D+01
 Coeff:     -0.122D+01 0.222D+01
 Gap=     0.043 Goal=   None    Shift=    0.000
 Gap=     0.053 Goal=   None    Shift=    0.000
 RMSDP=1.44D-02 MaxDP=1.12D+00 DE=-8.26D-03 OVMax= 8.63D-02

 Cycle   3  Pass 1  IDiag  1:
 E= -1136.11843418609     Delta-E=       -0.016786189950 Rises=F Damp=F
 DIIS: error= 1.18D-03 at cycle   3 NSaved=   3.
 NSaved= 3 IEnMin= 3 EnMin= -1136.11843418609     IErMin= 3 ErrMin= 1.18D-03
 ErrMax= 1.18D-03  0.00D+00 EMaxC= 1.00D-01 BMatC= 5.36D-04 BMatP= 7.08D-02
 IDIUse=3 WtCom= 9.88D-01 WtEn= 1.18D-02
 Coeff-Com: -0.581D-01 0.990D-01 0.959D+00
 Coeff-En:   0.000D+00 0.000D+00 0.100D+01
 Coeff:     -0.574D-01 0.978D-01 0.960D+00
 Gap=     0.044 Goal=   None    Shift=    0.000
 Gap=     0.058 Goal=   None    Shift=    0.000
 RMSDP=1.81D-03 MaxDP=1.40D-01 DE=-1.68D-02 OVMax= 4.65D-02

 Cycle   4  Pass 1  IDiag  1:
 E= -1136.11826169847     Delta-E=        0.000172487624 Rises=F Damp=F
 DIIS: error= 1.24D-03 at cycle   4 NSaved=   4.
 NSaved= 4 IEnMin= 3 EnMin= -1136.11843418609     IErMin= 3 ErrMin= 1.18D-03
 ErrMax= 1.24D-03  0.00D+00 EMaxC= 1.00D-01 BMatC= 7.86D-04 BMatP= 5.36D-04
 IDIUse=3 WtCom= 2.21D-01 WtEn= 7.79D-01
 Coeff-Com: -0.339D-02 0.406D-02 0.549D+00 0.450D+00
 Coeff-En:   0.000D+00 0.000D+00 0.563D+00 0.437D+00
 Coeff:     -0.750D-03 0.899D-03 0.560D+00 0.440D+00
 Gap=     0.044 Goal=   None    Shift=    0.000
 Gap=     0.056 Goal=   None    Shift=    0.000
 RMSDP=9.61D-04 MaxDP=6.67D-02 DE= 1.72D-04 OVMax= 2.83D-02

 Cycle   5  Pass 1  IDiag  1:
 E= -1136.11902808265     Delta-E=       -0.000766384178 Rises=F Damp=F
 DIIS: error= 1.03D-04 at cycle   5 NSaved=   5.
 NSaved= 5 IEnMin= 5 EnMin= -1136.11902808265     IErMin= 5 ErrMin= 1.03D-04
 ErrMax= 1.03D-04  0.00D+00 EMaxC= 1.00D-01 BMatC= 7.45D-06 BMatP= 5.36D-04
 IDIUse=3 WtCom= 9.99D-01 WtEn= 1.03D-03
 Coeff-Com:  0.243D-02-0.425D-02 0.121D+00 0.966D-01 0.784D+00
 Coeff-En:   0.000D+00 0.000D+00 0.000D+00 0.000D+00 0.100D+01
 Coeff:      0.243D-02-0.424D-02 0.121D+00 0.965D-01 0.785D+00
 Gap=     0.044 Goal=   None    Shift=    0.000
 Gap=     0.056 Goal=   None    Shift=    0.000
 RMSDP=2.69D-04 MaxDP=2.84D-02 DE=-7.66D-04 OVMax= 5.68D-03

 Cycle   6  Pass 1  IDiag  1:
 E= -1136.11904153755     Delta-E=       -0.000013454905 Rises=F Damp=F
 DIIS: error= 7.67D-05 at cycle   6 NSaved=   6.
 NSaved= 6 IEnMin= 6 EnMin= -1136.11904153755     IErMin= 6 ErrMin= 7.67D-05
 ErrMax= 7.67D-05  0.00D+00 EMaxC= 1.00D-01 BMatC= 3.43D-06 BMatP= 7.45D-06
 IDIUse=1 WtCom= 1.00D+00 WtEn= 0.00D+00
 Coeff-Com:  0.124D-02-0.217D-02-0.705D-01-0.589D-01 0.358D+00 0.773D+00
 Coeff:      0.124D-02-0.217D-02-0.705D-01-0.589D-01 0.358D+00 0.773D+00
 Gap=     0.044 Goal=   None    Shift=    0.000
 Gap=     0.056 Goal=   None    Shift=    0.000
 RMSDP=2.12D-04 MaxDP=1.92D-02 DE=-1.35D-05 OVMax= 4.47D-03

 Cycle   7  Pass 1  IDiag  1:
 E= -1136.11904946759     Delta-E=       -0.000007930032 Rises=F Damp=F
 DIIS: error= 3.66D-05 at cycle   7 NSaved=   7.
 NSaved= 7 IEnMin= 7 EnMin= -1136.11904946759     IErMin= 7 ErrMin= 3.66D-05
 ErrMax= 3.66D-05  0.00D+00 EMaxC= 1.00D-01 BMatC= 7.76D-07 BMatP= 3.43D-06
 IDIUse=1 WtCom= 1.00D+00 WtEn= 0.00D+00
 Coeff-Com: -0.338D-03 0.497D-03-0.671D-01-0.516D-01-0.424D-01 0.338D+00
 Coeff-Com:  0.823D+00
 Coeff:     -0.338D-03 0.497D-03-0.671D-01-0.516D-01-0.424D-01 0.338D+00
 Coeff:      0.823D+00
 Gap=     0.044 Goal=   None    Shift=    0.000
 Gap=     0.056 Goal=   None    Shift=    0.000
 RMSDP=1.24D-04 MaxDP=9.24D-03 DE=-7.93D-06 OVMax= 2.36D-03

 Cycle   8  Pass 1  IDiag  1:
 E= -1136.11905187144     Delta-E=       -0.000002403851 Rises=F Damp=F
 DIIS: error= 1.05D-05 at cycle   8 NSaved=   8.
 NSaved= 8 IEnMin= 8 EnMin= -1136.11905187144     IErMin= 8 ErrMin= 1.05D-05
 ErrMax= 1.05D-05  0.00D+00 EMaxC= 1.00D-01 BMatC= 7.99D-08 BMatP= 7.76D-07
 IDIUse=1 WtCom= 1.00D+00 WtEn= 0.00D+00
 Coeff-Com:  0.355D-03-0.382D-03-0.561D-02-0.254D-02-0.503D-01-0.569D-01
 Coeff-Com:  0.139D+00 0.976D+00
 Coeff:      0.355D-03-0.382D-03-0.561D-02-0.254D-02-0.503D-01-0.569D-01
 Coeff:      0.139D+00 0.976D+00
 Gap=     0.044 Goal=   None    Shift=    0.000
 Gap=     0.056 Goal=   None    Shift=    0.000
 RMSDP=5.11D-05 MaxDP=5.25D-03 DE=-2.40D-06 OVMax= 1.13D-03

 Cycle   9  Pass 1  IDiag  1:
 E= -1136.11905228631     Delta-E=       -0.000000414870 Rises=F Damp=F
 DIIS: error= 4.61D-06 at cycle   9 NSaved=   9.
 NSaved= 9 IEnMin= 9 EnMin= -1136.11905228631     IErMin= 9 ErrMin= 4.61D-06
 ErrMax= 4.61D-06  0.00D+00 EMaxC= 1.00D-01 BMatC= 1.60D-08 BMatP= 7.99D-08
 IDIUse=1 WtCom= 1.00D+00 WtEn= 0.00D+00
 Coeff-Com:  0.205D-03-0.257D-03 0.899D-02 0.719D-02 0.108D-02-0.562D-01
 Coeff-Com: -0.132D+00 0.172D+00 0.999D+00
 Coeff:      0.205D-03-0.257D-03 0.899D-02 0.719D-02 0.108D-02-0.562D-01
 Coeff:     -0.132D+00 0.172D+00 0.999D+00
 Gap=     0.044 Goal=   None    Shift=    0.000
 Gap=     0.056 Goal=   None    Shift=    0.000
 RMSDP=2.00D-05 MaxDP=1.63D-03 DE=-4.15D-07 OVMax= 5.10D-04

 Cycle  10  Pass 1  IDiag  1:
 E= -1136.11905237824     Delta-E=       -0.000000091934 Rises=F Damp=F
 DIIS: error= 2.87D-06 at cycle  10 NSaved=  10.
 NSaved=10 IEnMin=10 EnMin= -1136.11905237824     IErMin=10 ErrMin= 2.87D-06
 ErrMax= 2.87D-06  0.00D+00 EMaxC= 1.00D-01 BMatC= 4.09D-09 BMatP= 1.60D-08
 IDIUse=1 WtCom= 1.00D+00 WtEn= 0.00D+00
 Coeff-Com: -0.957D-04 0.116D-03 0.341D-02 0.234D-02 0.131D-01-0.258D-02
 Coeff-Com: -0.763D-01-0.152D+00 0.294D+00 0.918D+00
 Coeff:     -0.957D-04 0.116D-03 0.341D-02 0.234D-02 0.131D-01-0.258D-02
 Coeff:     -0.763D-01-0.152D+00 0.294D+00 0.918D+00
 Gap=     0.044 Goal=   None    Shift=    0.000
 Gap=     0.056 Goal=   None    Shift=    0.000
 RMSDP=9.11D-06 MaxDP=8.85D-04 DE=-9.19D-08 OVMax= 2.69D-04

 Cycle  11  Pass 1  IDiag  1:
 E= -1136.11905239771     Delta-E=       -0.000000019464 Rises=F Damp=F
 DIIS: error= 1.52D-06 at cycle  11 NSaved=  11.
 NSaved=11 IEnMin=11 EnMin= -1136.11905239771     IErMin=11 ErrMin= 1.52D-06
 ErrMax= 1.52D-06  0.00D+00 EMaxC= 1.00D-01 BMatC= 1.02D-09 BMatP= 4.09D-09
 IDIUse=1 WtCom= 1.00D+00 WtEn= 0.00D+00
 Coeff-Com: -0.104D-03 0.130D-03-0.480D-03-0.410D-03 0.567D-02 0.962D-02
 Coeff-Com: -0.533D-02-0.940D-01-0.969D-01 0.381D+00 0.801D+00
 Coeff:     -0.104D-03 0.130D-03-0.480D-03-0.410D-03 0.567D-02 0.962D-02
 Coeff:     -0.533D-02-0.940D-01-0.969D-01 0.381D+00 0.801D+00
 Gap=     0.044 Goal=   None    Shift=    0.000
 Gap=     0.056 Goal=   None    Shift=    0.000
 RMSDP=3.04D-06 MaxDP=2.29D-04 DE=-1.95D-08 OVMax= 1.16D-04

 Cycle  12  Pass 1  IDiag  1:
 E= -1136.11905240146     Delta-E=       -0.000000003755 Rises=F Damp=F
 DIIS: error= 7.10D-07 at cycle  12 NSaved=  12.
 NSaved=12 IEnMin=12 EnMin= -1136.11905240146     IErMin=12 ErrMin= 7.10D-07
 ErrMax= 7.10D-07  0.00D+00 EMaxC= 1.00D-01 BMatC= 1.55D-10 BMatP= 1.02D-09
 IDIUse=1 WtCom= 1.00D+00 WtEn= 0.00D+00
 Coeff-Com:  0.281D-06-0.130D-05-0.700D-03-0.419D-03-0.842D-03 0.239D-02
 Coeff-Com:  0.119D-01 0.385D-02-0.810D-01-0.682D-01 0.235D+00 0.898D+00
 Coeff:      0.281D-06-0.130D-05-0.700D-03-0.419D-03-0.842D-03 0.239D-02
 Coeff:      0.119D-01 0.385D-02-0.810D-01-0.682D-01 0.235D+00 0.898D+00
 Gap=     0.044 Goal=   None    Shift=    0.000
 Gap=     0.056 Goal=   None    Shift=    0.000
 RMSDP=1.52D-06 MaxDP=1.37D-04 DE=-3.75D-09 OVMax= 5.19D-05

 Cycle  13  Pass 1  IDiag  1:
 E= -1136.11905240210     Delta-E=       -0.000000000644 Rises=F Damp=F
 DIIS: error= 2.79D-07 at cycle  13 NSaved=  13.
 NSaved=13 IEnMin=13 EnMin= -1136.11905240210     IErMin=13 ErrMin= 2.79D-07
 ErrMax= 2.79D-07  0.00D+00 EMaxC= 1.00D-01 BMatC= 2.79D-11 BMatP= 1.55D-10
 IDIUse=1 WtCom= 1.00D+00 WtEn= 0.00D+00
 Coeff-Com:  0.355D-04-0.453D-04-0.810D-06 0.215D-04-0.135D-02-0.184D-02
 Coeff-Com:  0.251D-02 0.218D-01 0.184D-01-0.983D-01-0.175D+00 0.133D+00
 Coeff-Com:  0.110D+01
 Coeff:      0.355D-04-0.453D-04-0.810D-06 0.215D-04-0.135D-02-0.184D-02
 Coeff:      0.251D-02 0.218D-01 0.184D-01-0.983D-01-0.175D+00 0.133D+00
 Coeff:      0.110D+01
 Gap=     0.044 Goal=   None    Shift=    0.000
 Gap=     0.056 Goal=   None    Shift=    0.000
 RMSDP=1.07D-06 MaxDP=1.04D-04 DE=-6.44D-10 OVMax= 2.20D-05

 Cycle  14  Pass 1  IDiag  1:
 E= -1136.11905240227     Delta-E=       -0.000000000164 Rises=F Damp=F
 DIIS: error= 1.29D-07 at cycle  14 NSaved=  14.
 NSaved=14 IEnMin=14 EnMin= -1136.11905240227     IErMin=14 ErrMin= 1.29D-07
 ErrMax= 1.29D-07  0.00D+00 EMaxC= 1.00D-01 BMatC= 3.57D-12 BMatP= 2.79D-11
 IDIUse=1 WtCom= 1.00D+00 WtEn= 0.00D+00
 Coeff-Com: -0.114D-04 0.151D-04 0.744D-04 0.228D-04 0.498D-03 0.128D-03
 Coeff-Com: -0.229D-02-0.494D-02 0.633D-02 0.347D-01 0.112D-02-0.181D+00
 Coeff-Com: -0.202D+00 0.135D+01
 Coeff:     -0.114D-04 0.151D-04 0.744D-04 0.228D-04 0.498D-03 0.128D-03
 Coeff:     -0.229D-02-0.494D-02 0.633D-02 0.347D-01 0.112D-02-0.181D+00
 Coeff:     -0.202D+00 0.135D+01
 Gap=     0.044 Goal=   None    Shift=    0.000
 Gap=     0.056 Goal=   None    Shift=    0.000
 RMSDP=4.56D-07 MaxDP=3.36D-05 DE=-1.64D-10 OVMax= 1.13D-05

 Cycle  15  Pass 1  IDiag  1:
 E= -1136.11905240231     Delta-E=       -0.000000000039 Rises=F Damp=F
 DIIS: error= 5.14D-08 at cycle  15 NSaved=  15.
 NSaved=15 IEnMin=15 EnMin= -1136.11905240231     IErMin=15 ErrMin= 5.14D-08
 ErrMax= 5.14D-08  0.00D+00 EMaxC= 1.00D-01 BMatC= 7.13D-13 BMatP= 3.57D-12
 IDIUse=1 WtCom= 1.00D+00 WtEn= 0.00D+00
 Coeff-Com: -0.862D-05 0.112D-04 0.196D-04 0.343D-05 0.306D-03 0.384D-03
 Coeff-Com: -0.970D-03-0.491D-02-0.231D-03 0.218D-01 0.261D-01-0.598D-01
 Coeff-Com: -0.224D+00 0.344D+00 0.898D+00
 Coeff:     -0.862D-05 0.112D-04 0.196D-04 0.343D-05 0.306D-03 0.384D-03
 Coeff:     -0.970D-03-0.491D-02-0.231D-03 0.218D-01 0.261D-01-0.598D-01
 Coeff:     -0.224D+00 0.344D+00 0.898D+00
 Gap=     0.044 Goal=   None    Shift=    0.000
 Gap=     0.056 Goal=   None    Shift=    0.000
 RMSDP=1.47D-07 MaxDP=9.61D-06 DE=-3.91D-11 OVMax= 4.17D-06

 Cycle  16  Pass 1  IDiag  1:
 E= -1136.11905240232     Delta-E=       -0.000000000010 Rises=F Damp=F
 DIIS: error= 1.80D-08 at cycle  16 NSaved=  16.
 NSaved=16 IEnMin=16 EnMin= -1136.11905240232     IErMin=16 ErrMin= 1.80D-08
 ErrMax= 1.80D-08  0.00D+00 EMaxC= 1.00D-01 BMatC= 1.37D-13 BMatP= 7.13D-13
 IDIUse=1 WtCom= 1.00D+00 WtEn= 0.00D+00
 Coeff-Com:  0.183D-05-0.246D-05-0.951D-05-0.193D-05-0.548D-04-0.343D-04
 Coeff-Com:  0.304D-03 0.674D-03-0.146D-02-0.359D-02 0.238D-02 0.257D-01
 Coeff-Com:  0.124D-01-0.210D+00 0.129D+00 0.104D+01
 Coeff:      0.183D-05-0.246D-05-0.951D-05-0.193D-05-0.548D-04-0.343D-04
 Coeff:      0.304D-03 0.674D-03-0.146D-02-0.359D-02 0.238D-02 0.257D-01
 Coeff:      0.124D-01-0.210D+00 0.129D+00 0.104D+01
 Gap=     0.044 Goal=   None    Shift=    0.000
 Gap=     0.056 Goal=   None    Shift=    0.000
 RMSDP=8.37D-08 MaxDP=6.22D-06 DE=-1.00D-11 OVMax= 1.73D-06

 Cycle  17  Pass 1  IDiag  1:
 E= -1136.11905240230     Delta-E=        0.000000000014 Rises=F Damp=F
 DIIS: error= 1.00D-08 at cycle  17 NSaved=  17.
 NSaved=17 IEnMin=16 EnMin= -1136.11905240232     IErMin=17 ErrMin= 1.00D-08
 ErrMax= 1.00D-08  0.00D+00 EMaxC= 1.00D-01 BMatC= 2.88D-14 BMatP= 1.37D-13
 IDIUse=1 WtCom= 1.00D+00 WtEn= 0.00D+00
 Coeff-Com:  0.196D-05-0.256D-05-0.618D-05-0.219D-05-0.780D-04-0.679D-04
 Coeff-Com:  0.264D-03 0.110D-02-0.258D-03-0.513D-02-0.523D-02 0.166D-01
 Coeff-Com:  0.481D-01-0.990D-01-0.182D+00 0.103D+00 0.112D+01
 Coeff:      0.196D-05-0.256D-05-0.618D-05-0.219D-05-0.780D-04-0.679D-04
 Coeff:      0.264D-03 0.110D-02-0.258D-03-0.513D-02-0.523D-02 0.166D-01
 Coeff:      0.481D-01-0.990D-01-0.182D+00 0.103D+00 0.112D+01
 Gap=     0.044 Goal=   None    Shift=    0.000
 Gap=     0.056 Goal=   None    Shift=    0.000
 RMSDP=5.05D-08 MaxDP=3.35D-06 DE= 1.36D-11 OVMax= 1.04D-06

 Cycle  18  Pass 1  IDiag  1:
 E= -1136.11905240231     Delta-E=       -0.000000000008 Rises=F Damp=F
 DIIS: error= 4.06D-09 at cycle  18 NSaved=  18.
 NSaved=18 IEnMin=16 EnMin= -1136.11905240232     IErMin=18 ErrMin= 4.06D-09
 ErrMax= 4.06D-09  0.00D+00 EMaxC= 1.00D-01 BMatC= 5.53D-15 BMatP= 2.88D-14
 IDIUse=1 WtCom= 1.00D+00 WtEn= 0.00D+00
 Large coefficients: NSaved= 18 BigCof=    0.00 CofMax=   10.00 Det=-9.73D-15
 Inversion failed.  Reducing to 17 matrices.
 Coeff-Com:  0.117D-07 0.124D-05 0.785D-06-0.398D-05-0.101D-04-0.189D-04
 Coeff-Com:  0.721D-04 0.359D-03-0.365D-03-0.147D-02-0.167D-02 0.545D-02
 Coeff-Com:  0.257D-01-0.566D-01-0.183D+00 0.840D-01 0.113D+01
 Coeff:      0.117D-07 0.124D-05 0.785D-06-0.398D-05-0.101D-04-0.189D-04
 Coeff:      0.721D-04 0.359D-03-0.365D-03-0.147D-02-0.167D-02 0.545D-02
 Coeff:      0.257D-01-0.566D-01-0.183D+00 0.840D-01 0.113D+01
 Gap=     0.044 Goal=   None    Shift=    0.000
 Gap=     0.056 Goal=   None    Shift=    0.000
 RMSDP=2.27D-08 MaxDP=1.54D-06 DE=-8.19D-12 OVMax= 4.86D-07

 Cycle  19  Pass 1  IDiag  1:
 E= -1136.11905240232     Delta-E=       -0.000000000009 Rises=F Damp=F
 DIIS: error= 1.46D-09 at cycle  19 NSaved=  18.
 NSaved=18 IEnMin=18 EnMin= -1136.11905240232     IErMin=18 ErrMin= 1.46D-09
 ErrMax= 1.46D-09  0.00D+00 EMaxC= 1.00D-01 BMatC= 1.17D-15 BMatP= 5.53D-15
 IDIUse=1 WtCom= 1.00D+00 WtEn= 0.00D+00
 Large coefficients: NSaved= 18 BigCof=    0.00 CofMax=   10.00 Det=-2.15D-15
 Inversion failed.  Reducing to 17 matrices.
 Large coefficients: NSaved= 17 BigCof=    0.00 CofMax=   10.00 Det=-2.15D-15
 Inversion failed.  Reducing to 16 matrices.
 Large coefficients: NSaved= 16 BigCof=    0.00 CofMax=   10.00 Det=-2.17D-15
 Inversion failed.  Reducing to 15 matrices.
 Coeff-Com: -0.139D-05-0.797D-06-0.153D-05 0.178D-04 0.181D-04-0.304D-04
 Coeff-Com: -0.117D-03-0.618D-03 0.996D-03 0.320D-02 0.868D-02-0.216D-01
 Coeff-Com: -0.137D+00 0.163D+00 0.983D+00
 Coeff:     -0.139D-05-0.797D-06-0.153D-05 0.178D-04 0.181D-04-0.304D-04
 Coeff:     -0.117D-03-0.618D-03 0.996D-03 0.320D-02 0.868D-02-0.216D-01
 Coeff:     -0.137D+00 0.163D+00 0.983D+00
 Gap=     0.044 Goal=   None    Shift=    0.000
 Gap=     0.056 Goal=   None    Shift=    0.000
 RMSDP=7.19D-09 MaxDP=4.50D-07 DE=-8.64D-12 OVMax= 1.55D-07

 SCF Done:  E(UB3LYP) =  -1136.11905240     A.U. after   19 cycles
            NFock= 19  Conv=0.72D-08     -V/T= 2.0028
 <Sx>= 0.0000 <Sy>= 0.0000 <Sz>= 0.5000 <S**2>= 0.7727 S= 0.5113
 <L.S>= 0.000000000000E+00
 KE= 1.132909443032D+03 PE=-3.276556794145D+03 EE= 7.338564668037D+02
 Annihilation of the first spin contaminant:
 S**2 before annihilation     0.7727,   after     0.7503
 Leave Link  502 at Wed Nov 29 03:25:15 2023, MaxMem=  1879048192 cpu:             166.2 elap:              15.2
 (Enter /home/sekinelabo/g16/l601.exe)
 Copying SCF densities to generalized density rwf, IOpCl= 1 IROHF=0.

 **********************************************************************

            Population analysis using the SCF Density.

 **********************************************************************

 Orbital symmetries:
 Alpha Orbitals:
       Occupied  (A) (A) (A) (A) (A) (A) (A) (A) (A) (A) (A) (A)
                 (A) (A) (A) (A) (A) (A) (A) (A) (A) (A) (A) (A)
                 (A) (A) (A) (A) (A) (A) (A) (A) (A) (A) (A) (A)
                 (A) (A) (A)
       Virtual   (A) (A) (A) (A) (A) (A) (A) (A) (A) (A) (A) (A)
                 (A) (A) (A) (A) (A) (A) (A) (A) (A) (A) (A) (A)
                 (A) (A) (A) (A) (A) (A) (A) (A) (A) (A) (A) (A)
                 (A) (A) (A) (A) (A) (A) (A) (A) (A) (A) (A) (A)
                 (A) (A) (A) (A) (A) (A) (A) (A) (A) (A) (A) (A)
                 (A) (A) (A) (A) (A) (A) (A) (A) (A) (A) (A) (A)
                 (A) (A) (A) (A) (A) (A) (A) (A) (A) (A) (A) (A)
                 (A) (A) (A) (A) (A) (A) (A) (A) (A) (A) (A) (A)
                 (A) (A) (A) (A) (A) (A) (A) (A) (A) (A) (A) (A)
                 (A) (A) (A) (A) (A) (A) (A) (A) (A) (A) (A) (A)
                 (A) (A) (A) (A) (A) (A) (A) (A) (A) (A) (A) (A)
                 (A) (A) (A) (A) (A) (A) (A) (A) (A) (A) (A) (A)
                 (A) (A) (A) (A) (A) (A) (A) (A) (A) (A) (A) (A)
                 (A) (A) (A) (A) (A) (A) (A) (A) (A) (A) (A) (A)
                 (A) (A) (A)
 Beta  Orbitals:
       Occupied  (A) (A) (A) (A) (A) (A) (A) (A) (A) (A) (A) (A)
                 (A) (A) (A) (A) (A) (A) (A) (A) (A) (A) (A) (A)
                 (A) (A) (A) (A) (A) (A) (A) (A) (A) (A) (A) (A)
                 (A) (A)
       Virtual   (A) (A) (A) (A) (A) (A) (A) (A) (A) (A) (A) (A)
                 (A) (A) (A) (A) (A) (A) (A) (A) (A) (A) (A) (A)
                 (A) (A) (A) (A) (A) (A) (A) (A) (A) (A) (A) (A)
                 (A) (A) (A) (A) (A) (A) (A) (A) (A) (A) (A) (A)
                 (A) (A) (A) (A) (A) (A) (A) (A) (A) (A) (A) (A)
                 (A) (A) (A) (A) (A) (A) (A) (A) (A) (A) (A) (A)
                 (A) (A) (A) (A) (A) (A) (A) (A) (A) (A) (A) (A)
                 (A) (A) (A) (A) (A) (A) (A) (A) (A) (A) (A) (A)
                 (A) (A) (A) (A) (A) (A) (A) (A) (A) (A) (A) (A)
                 (A) (A) (A) (A) (A) (A) (A) (A) (A) (A) (A) (A)
                 (A) (A) (A) (A) (A) (A) (A) (A) (A) (A) (A) (A)
                 (A) (A) (A) (A) (A) (A) (A) (A) (A) (A) (A) (A)
                 (A) (A) (A) (A) (A) (A) (A) (A) (A) (A) (A) (A)
                 (A) (A) (A) (A) (A) (A) (A) (A) (A) (A) (A) (A)
                 (A) (A) (A) (A)
 The electronic state is 2-A.
 Alpha  occ. eigenvalues --  -38.44629 -38.44490 -38.44425 -38.43965 -38.43818
 Alpha  occ. eigenvalues --  -38.43597 -38.43570  -2.20483  -2.20358  -2.20253
 Alpha  occ. eigenvalues --   -2.19805  -2.19661  -2.19430  -2.19373  -1.14169
 Alpha  occ. eigenvalues --   -1.14162  -1.14142  -1.14059  -1.14049  -1.13951
 Alpha  occ. eigenvalues --   -1.13904  -1.13902  -1.13861  -1.13467  -1.13456
 Alpha  occ. eigenvalues --   -1.13444  -1.13342  -1.13331  -1.13253  -1.13247
 Alpha  occ. eigenvalues --   -1.13069  -1.13065  -1.13025  -1.13010  -1.12934
 Alpha  occ. eigenvalues --   -0.16966  -0.13424  -0.13143  -0.10536
 Alpha virt. eigenvalues --   -0.06128  -0.05622  -0.04603  -0.03812  -0.02744
 Alpha virt. eigenvalues --   -0.02248  -0.02103  -0.01898  -0.01120  -0.00977
 Alpha virt. eigenvalues --   -0.00243  -0.00011   0.00315   0.00483   0.00626
 Alpha virt. eigenvalues --    0.00723   0.00805   0.01012   0.01106   0.01244
 Alpha virt. eigenvalues --    0.01339   0.01457   0.01489   0.01608   0.01637
 Alpha virt. eigenvalues --    0.01831   0.01940   0.02212   0.02308   0.02505
 Alpha virt. eigenvalues --    0.02635   0.02802   0.02895   0.02955   0.03048
 Alpha virt. eigenvalues --    0.03130   0.03275   0.03337   0.03390   0.03441
 Alpha virt. eigenvalues --    0.03621   0.03736   0.03830   0.03941   0.04027
 Alpha virt. eigenvalues --    0.04421   0.04818   0.05079   0.05287   0.05517
 Alpha virt. eigenvalues --    0.05635   0.05972   0.07035   0.07184   0.07252
 Alpha virt. eigenvalues --    0.07526   0.07711   0.07963   0.08343   0.08458
 Alpha virt. eigenvalues --    0.08925   0.09273   0.09562   0.09952   0.09972
 Alpha virt. eigenvalues --    0.10311   0.10504   0.10807   0.11267   0.11720
 Alpha virt. eigenvalues --    0.12351   0.12728   0.13379   0.13888   0.14318
 Alpha virt. eigenvalues --    0.14398   0.14806   0.15514   0.16648   0.16890
 Alpha virt. eigenvalues --    0.26454   0.27167   0.28426   0.29191   0.29654
 Alpha virt. eigenvalues --    0.30288   0.30810   0.31233   0.32058   0.32544
 Alpha virt. eigenvalues --    0.33003   0.33791   0.34001   0.34741   0.36380
 Alpha virt. eigenvalues --    0.36547   0.38005   0.38978   0.39835   0.40289
 Alpha virt. eigenvalues --    0.40899   0.41448   0.42516   0.42682   0.43263
 Alpha virt. eigenvalues --    0.43371   0.43696   0.43978   0.44387   0.44619
 Alpha virt. eigenvalues --    0.44726   0.45276   0.45374   0.45621   0.46028
 Alpha virt. eigenvalues --    0.46161   0.46786   0.47316   0.48046   0.48095
 Alpha virt. eigenvalues --    0.48752   0.49403   0.49504   0.50387   0.50600
 Alpha virt. eigenvalues --    0.52150   0.52265   0.52772   0.54183   0.54838
 Alpha virt. eigenvalues --    0.56927   0.59690   0.62974   0.66354   0.69165
 Alpha virt. eigenvalues --    0.74846   2.02608   2.07706   2.10890   2.14118
 Alpha virt. eigenvalues --    2.16411   2.17482   2.19086   4.42293   4.42942
 Alpha virt. eigenvalues --    4.43850   4.44248   4.44420   4.44555   4.44691
 Alpha virt. eigenvalues --    4.45234   4.45408   4.45769   4.46187   4.46674
 Alpha virt. eigenvalues --    4.46983   4.47241   4.48409   4.49103   4.51534
 Alpha virt. eigenvalues --    4.54872   4.58997   4.63455   4.68646  96.21817
 Alpha virt. eigenvalues --   96.28007  96.32147  96.36913  96.39064  96.40170
 Alpha virt. eigenvalues --   96.41868
  Beta  occ. eigenvalues --  -38.44601 -38.44462 -38.44414 -38.43936 -38.43766
  Beta  occ. eigenvalues --  -38.43577 -38.43551  -2.20433  -2.20308  -2.20234
  Beta  occ. eigenvalues --   -2.19750  -2.19566  -2.19396  -2.19340  -1.14138
  Beta  occ. eigenvalues --   -1.14129  -1.14096  -1.14029  -1.13999  -1.13914
  Beta  occ. eigenvalues --   -1.13891  -1.13880  -1.13845  -1.13422  -1.13420
  Beta  occ. eigenvalues --   -1.13407  -1.13279  -1.13264  -1.13215  -1.13175
  Beta  occ. eigenvalues --   -1.13060  -1.13035  -1.12992  -1.12988  -1.12898
  Beta  occ. eigenvalues --   -0.16363  -0.13147  -0.12734
  Beta virt. eigenvalues --   -0.07103  -0.05877  -0.05187  -0.04283  -0.03433
  Beta virt. eigenvalues --   -0.02407  -0.02137  -0.01980  -0.01758  -0.00896
  Beta virt. eigenvalues --   -0.00505   0.00044   0.00235   0.00400   0.00639
  Beta virt. eigenvalues --    0.00678   0.00794   0.00858   0.01103   0.01213
  Beta virt. eigenvalues --    0.01327   0.01411   0.01508   0.01559   0.01675
  Beta virt. eigenvalues --    0.01718   0.01894   0.02035   0.02287   0.02445
  Beta virt. eigenvalues --    0.02569   0.02731   0.02830   0.02969   0.03036
  Beta virt. eigenvalues --    0.03126   0.03235   0.03314   0.03389   0.03429
  Beta virt. eigenvalues --    0.03489   0.03680   0.03792   0.03910   0.04002
  Beta virt. eigenvalues --    0.04095   0.04519   0.04974   0.05153   0.05423
  Beta virt. eigenvalues --    0.05626   0.05673   0.06103   0.07094   0.07244
  Beta virt. eigenvalues --    0.07320   0.07630   0.07756   0.08095   0.08390
  Beta virt. eigenvalues --    0.08711   0.09094   0.09464   0.09795   0.10051
  Beta virt. eigenvalues --    0.10163   0.10456   0.10603   0.10983   0.11378
  Beta virt. eigenvalues --    0.11931   0.12545   0.12982   0.13583   0.14073
  Beta virt. eigenvalues --    0.14450   0.14469   0.15000   0.15831   0.16844
  Beta virt. eigenvalues --    0.16990   0.26732   0.27469   0.28652   0.29430
  Beta virt. eigenvalues --    0.29902   0.30479   0.31007   0.31458   0.32226
  Beta virt. eigenvalues --    0.32663   0.33318   0.33904   0.34210   0.34907
  Beta virt. eigenvalues --    0.36753   0.36804   0.38331   0.39098   0.40042
  Beta virt. eigenvalues --    0.40497   0.41132   0.41690   0.42683   0.42803
  Beta virt. eigenvalues --    0.43402   0.43457   0.43788   0.44059   0.44487
  Beta virt. eigenvalues --    0.44751   0.44875   0.45415   0.45434   0.45736
  Beta virt. eigenvalues --    0.46094   0.46344   0.47039   0.47435   0.48148
  Beta virt. eigenvalues --    0.48264   0.48969   0.49566   0.49582   0.50467
  Beta virt. eigenvalues --    0.50677   0.52294   0.52531   0.52869   0.54348
  Beta virt. eigenvalues --    0.55078   0.57052   0.59906   0.63228   0.66512
  Beta virt. eigenvalues --    0.69280   0.74908   2.02723   2.07777   2.10994
  Beta virt. eigenvalues --    2.14181   2.16551   2.17618   2.19197   4.42318
  Beta virt. eigenvalues --    4.42975   4.43882   4.44285   4.44457   4.44587
  Beta virt. eigenvalues --    4.44744   4.45286   4.45455   4.45804   4.46222
  Beta virt. eigenvalues --    4.46723   4.47019   4.47267   4.48462   4.49124
  Beta virt. eigenvalues --    4.51583   4.54935   4.59048   4.63476   4.68678
  Beta virt. eigenvalues --   96.21859  96.28034  96.32183  96.36940  96.39115
  Beta virt. eigenvalues --   96.40203  96.41905
          Condensed to atoms (all electrons):
               1          2          3          4          5          6
     1  Na  11.633358  -0.921972   0.151443  -0.225569  -0.048925   0.724486
     2  Na  -0.921972  12.595868  -0.493497  -0.349361   0.071500  -1.586349
     3  Na   0.151443  -0.493497  12.011534  -0.525235   0.057131   0.015835
     4  Na  -0.225569  -0.349361  -0.525235  12.416163   0.235081   0.001027
     5  Na  -0.048925   0.071500   0.057131   0.235081  10.683155  -0.085651
     6  Na   0.724486  -1.586349   0.015835   0.001027  -0.085651  12.465717
     7  Na   0.448559   0.193414   0.416630  -2.025421  -0.212539   0.327609
               7
     1  Na   0.448559
     2  Na   0.193414
     3  Na   0.416630
     4  Na  -2.025421
     5  Na  -0.212539
     6  Na   0.327609
     7  Na  12.857816
          Atomic-Atomic Spin Densities.
               1          2          3          4          5          6
     1  Na   0.670996  -0.255972   0.121829  -0.119905  -0.029601  -0.028529
     2  Na  -0.255972  -0.091891  -0.037787  -0.080534   0.005324   0.510620
     3  Na   0.121829  -0.037787   0.074645  -0.051707   0.089859  -0.214192
     4  Na  -0.119905  -0.080534  -0.051707   0.005894  -0.007987   0.186959
     5  Na  -0.029601   0.005324   0.089859  -0.007987   0.159554  -0.005912
     6  Na  -0.028529   0.510620  -0.214192   0.186959  -0.005912  -0.270926
     7  Na   0.050256   0.166034  -0.081118   0.186459   0.011226  -0.084390
               7
     1  Na   0.050256
     2  Na   0.166034
     3  Na  -0.081118
     4  Na   0.186459
     5  Na   0.011226
     6  Na  -0.084390
     7  Na  -0.210136
 Mulliken charges and spin densities:
               1          2
     1  Na  -0.761380   0.409075
     2  Na   1.490398   0.215793
     3  Na  -0.633841  -0.098472
     4  Na   1.473316   0.119179
     5  Na   0.300248   0.222463
     6  Na  -0.862674   0.093630
     7  Na  -1.006067   0.038331
 Sum of Mulliken charges =  -0.00000   1.00000
 Mulliken charges and spin densities with hydrogens summed into heavy atoms:
               1          2
     1  Na  -0.761380   0.409075
     2  Na   1.490398   0.215793
     3  Na  -0.633841  -0.098472
     4  Na   1.473316   0.119179
     5  Na   0.300248   0.222463
     6  Na  -0.862674   0.093630
     7  Na  -1.006067   0.038331
 Electronic spatial extent (au):  <R**2>=           4633.3324
 Charge=             -0.0000 electrons
 Dipole moment (field-independent basis, Debye):
    X=             -1.8487    Y=              0.9334    Z=              0.0237  Tot=              2.0711
 Quadrupole moment (field-independent basis, Debye-Ang):
   XX=            -72.1235   YY=            -53.4233   ZZ=            -73.1883
   XY=              1.6772   XZ=             -0.1846   YZ=             -1.5787
 Traceless Quadrupole moment (field-independent basis, Debye-Ang):
   XX=             -5.8785   YY=             12.8217   ZZ=             -6.9433
   XY=              1.6772   XZ=             -0.1846   YZ=             -1.5787
 Octapole moment (field-independent basis, Debye-Ang**2):
  XXX=            -37.5835  YYY=             11.6708  ZZZ=              0.3063  XYY=            -36.2336
  XXY=             46.1621  XXZ=             -8.7474  XZZ=             -9.2019  YZZ=              1.7054
  YYZ=              0.6285  XYZ=              4.0573
 Hexadecapole moment (field-independent basis, Debye-Ang**3):
 XXXX=          -5273.4854 YYYY=          -1878.5848 ZZZZ=           -309.0388 XXXY=            227.9288
 XXXZ=            -57.9677 YYYX=            -46.7395 YYYZ=            -39.1640 ZZZX=             -0.0297
 ZZZY=             -5.2138 XXYY=           -996.2464 XXZZ=           -976.9515 YYZZ=           -428.8192
 XXYZ=            -53.8708 YYXZ=             -0.3804 ZZXY=              0.2296
 N-N= 2.736718319072D+02 E-N=-3.276556794307D+03  KE= 1.132909443032D+03
                          Isotropic Fermi Contact Couplings
        Atom                 a.u.       MegaHertz       Gauss      10(-4) cm-1
     1  Na(23)             0.08154      96.46794      34.42216      32.17824
     2  Na(23)             0.11769     139.22917      49.68043      46.44185
     3  Na(23)            -0.08296     -98.14204     -35.01952     -32.73666
     4  Na(23)             0.04174      49.38097      17.62036      16.47172
     5  Na(23)             0.20456     241.99812      86.35095      80.72188
     6  Na(23)             0.19774     233.92979      83.47197      78.03058
     7  Na(23)             0.08916     105.48347      37.63913      35.18550
 --------------------------------------------------------
       Center         ----  Spin Dipole Couplings  ----
                      3XX-RR        3YY-RR        3ZZ-RR
 --------------------------------------------------------
     1   Atom        0.021619     -0.005413     -0.016206
     2   Atom        0.002404      0.002079     -0.004483
     3   Atom        0.032300     -0.011690     -0.020610
     4   Atom        0.001832      0.000038     -0.001870
     5   Atom       -0.002684      0.000506      0.002178
     6   Atom        0.003697      0.006519     -0.010216
     7   Atom       -0.001303      0.012858     -0.011555
 --------------------------------------------------------
                        XY            XZ            YZ
 --------------------------------------------------------
     1   Atom        0.013680     -0.000595     -0.001200
     2   Atom       -0.012875      0.002497     -0.000100
     3   Atom        0.019616     -0.001325     -0.000851
     4   Atom        0.004685     -0.000289      0.000718
     5   Atom       -0.004953      0.000946      0.000238
     6   Atom        0.017762      0.005332      0.004405
     7   Atom       -0.016747     -0.002312      0.003261
 --------------------------------------------------------


 ---------------------------------------------------------------------------------
              Anisotropic Spin Dipole Couplings in Principal Axis System
 ---------------------------------------------------------------------------------

       Atom             a.u.   MegaHertz   Gauss  10(-4) cm-1        Axes

              Baa    -0.0164    -2.313    -0.825    -0.771 -0.0425  0.1610  0.9860
     1 Na(23) Bbb    -0.0110    -1.551    -0.553    -0.517 -0.3842  0.9084 -0.1649
              Bcc     0.0274     3.863     1.378     1.289  0.9223  0.3858 -0.0232
 
              Baa    -0.0111    -1.564    -0.558    -0.522  0.6925  0.6759 -0.2521
     2 Na(23) Bbb    -0.0042    -0.596    -0.213    -0.199  0.1121  0.2444  0.9632
              Bcc     0.0153     2.159     0.770     0.720  0.7127 -0.6952  0.0935
 
              Baa    -0.0207    -2.926    -1.044    -0.976 -0.0494  0.1995  0.9787
     3 Na(23) Bbb    -0.0191    -2.697    -0.962    -0.900 -0.3536  0.9129 -0.2039
              Bcc     0.0398     5.622     2.006     1.875  0.9341  0.3562 -0.0255
 
              Baa    -0.0041    -0.576    -0.206    -0.192 -0.5984  0.7358 -0.3170
     4 Na(23) Bbb    -0.0016    -0.230    -0.082    -0.077 -0.2254  0.2251  0.9479
              Bcc     0.0057     0.807     0.288     0.269  0.7688  0.6387  0.0312
 
              Baa    -0.0064    -0.902    -0.322    -0.301  0.8059  0.5826 -0.1052
     5 Na(23) Bbb     0.0022     0.311     0.111     0.104 -0.0260  0.2123  0.9769
              Bcc     0.0042     0.591     0.211     0.197 -0.5915  0.7845 -0.1862
 
              Baa    -0.0132    -1.866    -0.666    -0.623  0.7035 -0.5267 -0.4770
     6 Na(23) Bbb    -0.0111    -1.563    -0.558    -0.522  0.2394 -0.4564  0.8570
              Bcc     0.0243     3.430     1.224     1.144  0.6691  0.7171  0.1950
 
              Baa    -0.0124    -1.757    -0.627    -0.586  0.8186  0.5071  0.2696
     7 Na(23) Bbb    -0.0120    -1.689    -0.603    -0.564 -0.1673 -0.2386  0.9566
              Bcc     0.0244     3.446     1.230     1.149 -0.5495  0.8282  0.1104
 

 ---------------------------------------------------------------------------------

 No NMR shielding tensors so no spin-rotation constants.
 Leave Link  601 at Wed Nov 29 03:25:15 2023, MaxMem=  1879048192 cpu:               2.3 elap:               0.2
 (Enter /home/sekinelabo/g16/l701.exe)
 ... and contract with generalized density number  0.
 Compute integral first derivatives.
 Leave Link  701 at Wed Nov 29 03:25:15 2023, MaxMem=  1879048192 cpu:               1.6 elap:               0.1
 (Enter /home/sekinelabo/g16/l702.exe)
 L702 exits ... SP integral derivatives will be done elsewhere.
 Leave Link  702 at Wed Nov 29 03:25:15 2023, MaxMem=  1879048192 cpu:               0.4 elap:               0.0
 (Enter /home/sekinelabo/g16/l703.exe)
 Integral derivatives from FoFJK, PRISM(SPDF).
 Compute integral first derivatives, UseDBF=F ICtDFT=           0.
 Calling FoFJK, ICntrl=      2127 FMM=F ISym2X=0 I1Cent= 0 IOpClX= 1 NMat=1 NMatS=1 NMatT=0.
 FoFJK:  IHMeth= 1 ICntrl=    2127 DoSepK=F KAlg= 0 I1Cent=           0 FoldK=F
 IRaf=         0 NMat=       1 IRICut=       1 DoRegI=T DoRafI=F ISym2E= 0 IDoP0=0 IntGTp=1.
 FoFCou: FMM=F IPFlag=           0 FMFlag=      100000 FMFlg1=         800
         NFxFlg=           0 DoJE=F BraDBF=F KetDBF=F FulRan=T
         wScrn=  0.000000 ICntrl=      2127 IOpCl=  1 I1Cent=           0 NGrid=           0
         NMat0=    1 NMatS0=      1 NMatT0=    0 NMatD0=    1 NMtDS0=    0 NMtDT0=    0
 Symmetry not used in FoFCou.
 Leave Link  703 at Wed Nov 29 03:25:17 2023, MaxMem=  1879048192 cpu:              28.3 elap:               1.9
 (Enter /home/sekinelabo/g16/l716.exe)
 Dipole        =-7.27340281D-01 3.67214112D-01 9.32571553D-03
 ***** Axes restored to original set *****
 -------------------------------------------------------------------
 Center     Atomic                   Forces (Hartrees/Bohr)
 Number     Number              X              Y              Z
 -------------------------------------------------------------------
      1       11          -0.000148555    0.000971700   -0.000013075
      2       11          -0.000095046    0.000032960   -0.001596950
      3       11          -0.001177840    0.000146225   -0.005226764
      4       11          -0.000148414    0.001704804   -0.002432015
      5       11           0.000909888    0.001415971    0.003582718
      6       11          -0.000392798    0.000625041    0.003056862
      7       11           0.001052766   -0.004896701    0.002629224
 -------------------------------------------------------------------
 Cartesian Forces:  Max     0.005226764 RMS     0.002167449
 Z-matrix is all fixed cartesians, so copy forces.
 Force constants in Cartesian coordinates: 
                1             2             3             4             5 
      1  0.534058D-01
      2  0.140192D-02  0.848003D-01
      3 -0.672740D-03 -0.930019D-02  0.958894D-01
      4 -0.182108D-01 -0.701393D-03  0.151561D-02  0.137999D-01
      5 -0.479053D-02 -0.297579D-01 -0.992582D-02 -0.851208D-03  0.368372D-01
      6  0.219903D-02  0.112434D-01 -0.247657D-01  0.757148D-02  0.648282D-02
      7  0.000000D+00  0.000000D+00  0.000000D+00  0.000000D+00  0.000000D+00
      8  0.000000D+00  0.000000D+00  0.000000D+00  0.000000D+00  0.000000D+00
      9  0.000000D+00  0.000000D+00  0.000000D+00  0.000000D+00  0.000000D+00
     10 -0.165050D-01 -0.217441D-03 -0.108488D-03  0.681747D-02  0.864704D-04
     11 -0.805848D-03 -0.177836D-01  0.966428D-02  0.817338D-03  0.109303D-02
     12  0.789464D-03 -0.117808D-01 -0.206087D-01 -0.830484D-03 -0.176781D-02
     13  0.000000D+00  0.000000D+00  0.000000D+00  0.000000D+00  0.000000D+00
     14  0.000000D+00  0.000000D+00  0.000000D+00  0.000000D+00  0.000000D+00
     15  0.000000D+00  0.000000D+00  0.000000D+00  0.000000D+00  0.000000D+00
     16 -0.926567D-02  0.367736D-03 -0.736990D-03 -0.582580D-02  0.722705D-02
     17  0.487970D-02 -0.188538D-01  0.406943D-02  0.248667D-03 -0.121127D-01
     18 -0.531304D-02  0.725041D-02 -0.205986D-01 -0.101660D-01  0.984262D-02
     19 -0.942437D-02 -0.850822D-03  0.261054D-05  0.341917D-02 -0.167178D-02
     20 -0.685233D-03 -0.184049D-01  0.549230D-02  0.486596D-03  0.394047D-02
     21  0.299728D-02  0.258715D-02 -0.299163D-01  0.190942D-02 -0.463181D-02
                6             7             8             9            10 
      6  0.450090D-01
      7  0.000000D+00  0.213613D-02
      8  0.000000D+00  0.407226D-02  0.776321D-02
      9  0.000000D+00  0.814993D-02  0.155367D-01  0.310941D-01
     10 -0.119523D-02  0.000000D+00  0.000000D+00  0.000000D+00  0.981705D-02
     11 -0.256343D-02  0.000000D+00  0.000000D+00  0.000000D+00 -0.169751D-02
     12  0.404726D-02  0.000000D+00  0.000000D+00  0.000000D+00 -0.234471D-02
     13  0.000000D+00 -0.213613D-02 -0.407226D-02 -0.814993D-02  0.000000D+00
     14  0.000000D+00 -0.407226D-02 -0.776321D-02 -0.155367D-01  0.000000D+00
     15  0.000000D+00 -0.814993D-02 -0.155367D-01 -0.310941D-01  0.000000D+00
     16 -0.690226D-02  0.000000D+00  0.000000D+00  0.000000D+00  0.308636D-02
     17 -0.950975D-02  0.000000D+00  0.000000D+00  0.000000D+00  0.236334D-02
     18 -0.243521D-01  0.000000D+00  0.000000D+00  0.000000D+00 -0.654618D-03
     19 -0.167302D-02  0.000000D+00  0.000000D+00  0.000000D+00 -0.321591D-02
     20 -0.565307D-02  0.000000D+00  0.000000D+00  0.000000D+00 -0.534858D-03
     21  0.616592D-04  0.000000D+00  0.000000D+00  0.000000D+00  0.430304D-02
               11            12            13            14            15 
     11  0.497530D-01
     12 -0.663330D-02  0.333043D-01
     13  0.000000D+00  0.000000D+00  0.213613D-02
     14  0.000000D+00  0.000000D+00  0.407226D-02  0.776321D-02
     15  0.000000D+00  0.000000D+00  0.814993D-02  0.155367D-01  0.310941D-01
     16 -0.436771D-03 -0.882221D-03  0.000000D+00  0.000000D+00  0.000000D+00
     17 -0.264958D-02  0.104692D-03  0.000000D+00  0.000000D+00  0.000000D+00
     18 -0.398075D-04  0.813962D-02  0.000000D+00  0.000000D+00  0.000000D+00
     19  0.212279D-02  0.326795D-02  0.000000D+00  0.000000D+00  0.000000D+00
     20 -0.304128D-01  0.200772D-01  0.000000D+00  0.000000D+00  0.000000D+00
     21 -0.427746D-03 -0.248824D-01  0.000000D+00  0.000000D+00  0.000000D+00
               16            17            18            19            20 
     16  0.188955D-01
     17 -0.117093D-01  0.477652D-01
     18  0.110263D-01 -0.565767D-02  0.523090D-01
     19 -0.689040D-02  0.421759D-02  0.510734D-02  0.161115D-01
     20  0.455128D-02 -0.141490D-01 -0.113956D-01 -0.381778D-02  0.590263D-01
     21 -0.250487D-02  0.109933D-01 -0.154979D-01 -0.670488D-02 -0.852089D-02
               21 
     21  0.702349D-01
 Leave Link  716 at Wed Nov 29 03:25:17 2023, MaxMem=  1879048192 cpu:               0.4 elap:               0.0
 (Enter /home/sekinelabo/g16/l103.exe)

 GradGradGradGradGradGradGradGradGradGradGradGradGradGradGradGradGradGrad
 Berny optimization.
 Search for a local minimum.
 Step number   1 out of a maximum of    2
 All quantities printed in internal units (Hartrees-Bohrs-Radians)
 Second derivative matrix not updated -- first step.
 ITU=  0
     Eigenvalues ---   -0.00000   0.00000   0.00001   0.00008   0.00796
     Eigenvalues ---    0.01927   0.03107   0.05682   0.06673   0.07016
     Eigenvalues ---    0.08199   0.08941   0.10108   0.11038   0.13106
 Eigenvalue     1 is  -1.11D-16 should be greater than     0.000000 Eigenvector:
                          Z5        Y5        Z3        Z4        Z7
   1                    0.61764  -0.42511   0.40002  -0.20353  -0.20353
                          Z1        Z2        Z6        X5        X3
   1                   -0.20353  -0.20353  -0.20353   0.13409   0.09838
 Eigenvalue     2 is   2.22D-16 Eigenvector:
                          Y3        Z3        Y5        Z5        Y2
   1                    0.79192  -0.41041  -0.35562   0.13933  -0.08726
                          Y1        Y4        Y6        Y7        X3
   1                   -0.08726  -0.08726  -0.08726  -0.08726  -0.06980
 Eigenvalue     3 is   7.74D-06 Eigenvector:
                          Y7        Y5        Z4        Z6        Z2
   1                    0.39335  -0.39063  -0.38297   0.38237   0.36947
                          Z3        Y3        Y4        Y6        Y2
   1                   -0.22239  -0.21739   0.21447   0.21363  -0.19101
 Eigenvalue     4 is   7.88D-05 Eigenvector:
                          X3        X5        X2        X4        Z5
   1                    0.73061  -0.56547  -0.21788   0.16471   0.15191
                          Z3        X6        Y5        Y6        Z6
   1                   -0.15143  -0.11043   0.07346  -0.04865  -0.03901
 Quadratic step=2.753D+01 exceeds max=3.000D-01 adjusted using Lamda=-9.755D-03.
 Angle between NR and scaled steps=  21.15 degrees.
 Angle between quadratic step and forces=  54.13 degrees.
 Linear search not attempted -- first point.
 B after Tr=     0.000000    0.000000   -0.000000
         Rot=    1.000000    0.000000    0.000000   -0.000000 Ang=   0.00 deg.
 Variable       Old X    -DE/DX   Delta X   Delta X   Delta X     New X
                                 (Linear)    (Quad)   (Total)
    X1       28.13065  -0.00015   0.00000   0.00678   0.00678  28.13743
    Y1       31.58337   0.00097   0.00000  -0.02107  -0.02107  31.56230
    Z1       23.52407  -0.00001   0.00000   0.03467   0.03467  23.55874
    X2       27.77746  -0.00010   0.00000   0.01334   0.01334  27.79080
    Y2       25.90626   0.00003   0.00000  -0.01073  -0.01073  25.89553
    Z2       20.98220  -0.00160   0.00000   0.00492   0.00492  20.98712
    X3       30.20557  -0.00118   0.00000  -0.03302  -0.03302  30.17255
    Y3       23.64388   0.00015   0.00000   0.18619   0.18619  23.83007
    Z3       34.79005  -0.00523   0.00000  -0.18657  -0.18657  34.60348
    X4       27.85286  -0.00015   0.00000  -0.00447  -0.00447  27.84839
    Y4       37.47573   0.00170   0.00000  -0.02251  -0.02251  37.45321
    Z4       27.18371  -0.00243   0.00000   0.00126   0.00126  27.18497
    X5       31.47301   0.00091   0.00000   0.00263   0.00263  31.47564
    Y5       26.06008   0.00142   0.00000  -0.02828  -0.02828  26.03180
    Z5       39.62567   0.00358   0.00000   0.02016   0.02016  39.64582
    X6       29.73012  -0.00039   0.00000  -0.01862  -0.01862  29.71150
    Y6       25.98562   0.00063   0.00000  -0.03015  -0.03015  25.95548
    Z6       26.96186   0.00306   0.00000   0.06808   0.06808  27.02993
    X7       27.83510   0.00105   0.00000   0.03336   0.03336  27.86846
    Y7       32.34984  -0.00490   0.00000  -0.07345  -0.07345  32.27640
    Z7       29.93742   0.00263   0.00000   0.05748   0.05748  29.99490
         Item               Value     Threshold  Converged?
 Maximum Force            0.005227     0.000450     NO 
 RMS     Force            0.002167     0.000300     NO 
 Maximum Displacement     0.186570     0.001800     NO 
 RMS     Displacement     0.065472     0.001200     NO 
 Predicted change in Energy=-1.316017D-03
 GradGradGradGradGradGradGradGradGradGradGradGradGradGradGradGradGradGrad

 Leave Link  103 at Wed Nov 29 03:25:17 2023, MaxMem=  1879048192 cpu:               0.2 elap:               0.0
 (Enter /home/sekinelabo/g16/l9999.exe)
 1\1\GINC-SEKINELABO-XA7R-R37\Force\UB3LYP\6-311+G(d)\Na7(2)\SEKINELABO
 \29-Nov-2023\0\\#P B3LYP/6-311+g(d) force\\DPGEN\\0,2\Na,14.8861,16.71
 32,12.4484\Na,14.6992,13.709,11.1033\Na,15.9841,12.5118,18.4101\Na,14.
 7391,19.8313,14.385\Na,16.6548,13.7904,20.969\Na,15.7325,13.751,14.267
 6\Na,14.7297,17.1188,15.8422\\Version=ES64L-G16RevB.01\State=2-A\HF=-1
 136.1190524\S2=0.772745\S2-1=0.\S2A=0.750325\RMSD=7.186e-09\RMSF=2.167
 e-03\Dipole=-0.1702747,0.6269095,-0.4918822\Quadrupole=-5.1807029,6.33
 11003,-1.1503974,0.5069649,0.4912899,6.053093\PG=C01 [X(Na7)]\\@


 ADVERTISING--  HE WHO HAS SOMETHING TO SELL AND GOES AND WHISPERS
                IN A WELL, IS NOT SO APT TO GET THE DOLLARS AS HE
                WHO CLIMBS A TREE AND HOLLERS.

                   -- FROM THE BACK OF A SUGAR PACKET
 Job cpu time:       0 days  0 hours  3 minutes 30.4 seconds.
 Elapsed time:       0 days  0 hours  0 minutes 18.2 seconds.
 File lengths (MBytes):  RWF=     32 Int=      0 D2E=      0 Chk=      4 Scr=      1
 Normal termination of Gaussian 16 at Wed Nov 29 03:25:17 2023.
