 Set GAUSS_MDEF to "14GB".
 Entering Gaussian System, Link 0=g16
 Initial command:
 /home/sekinelabo/g16/l1.exe "/home/sekinelabo/g16temp/Gau-402507.inp" -scrdir="/home/sekinelabo/g16temp/"
 Entering Link 1 = /home/sekinelabo/g16/l1.exe PID=    402509.
  
 Copyright (c) 1988-2017, Gaussian, Inc.  All Rights Reserved.
  
 This is part of the Gaussian(R) 16 program.  It is based on
 the Gaussian(R) 09 system (copyright 2009, Gaussian, Inc.),
 the Gaussian(R) 03 system (copyright 2003, Gaussian, Inc.),
 the Gaussian(R) 98 system (copyright 1998, Gaussian, Inc.),
 the Gaussian(R) 94 system (copyright 1995, Gaussian, Inc.),
 the Gaussian 92(TM) system (copyright 1992, Gaussian, Inc.),
 the Gaussian 90(TM) system (copyright 1990, Gaussian, Inc.),
 the Gaussian 88(TM) system (copyright 1988, Gaussian, Inc.),
 the Gaussian 86(TM) system (copyright 1986, Carnegie Mellon
 University), and the Gaussian 82(TM) system (copyright 1983,
 Carnegie Mellon University). Gaussian is a federally registered
 trademark of Gaussian, Inc.
  
 This software contains proprietary and confidential information,
 including trade secrets, belonging to Gaussian, Inc.
  
 This software is provided under written license and may be
 used, copied, transmitted, or stored only in accord with that
 written license.
  
 The following legend is applicable only to US Government
 contracts under FAR:
  
                    RESTRICTED RIGHTS LEGEND
  
 Use, reproduction and disclosure by the US Government is
 subject to restrictions as set forth in subparagraphs (a)
 and (c) of the Commercial Computer Software - Restricted
 Rights clause in FAR 52.227-19.
  
 Gaussian, Inc.
 340 Quinnipiac St., Bldg. 40, Wallingford CT 06492
  
  
 ---------------------------------------------------------------
 Warning -- This program may not be used in any manner that
 competes with the business of Gaussian, Inc. or will provide
 assistance to any competitor of Gaussian, Inc.  The licensee
 of this program is prohibited from giving any competitor of
 Gaussian, Inc. access to this program.  By using this program,
 the user acknowledges that Gaussian, Inc. is engaged in the
 business of creating and licensing software in the field of
 computational chemistry and represents and warrants to the
 licensee that it is not a competitor of Gaussian, Inc. and that
 it will not use this program in any manner prohibited above.
 ---------------------------------------------------------------
  

 Cite this work as:
 Gaussian 16, Revision B.01,
 M. J. Frisch, G. W. Trucks, H. B. Schlegel, G. E. Scuseria, 
 M. A. Robb, J. R. Cheeseman, G. Scalmani, V. Barone, 
 G. A. Petersson, H. Nakatsuji, X. Li, M. Caricato, A. V. Marenich, 
 J. Bloino, B. G. Janesko, R. Gomperts, B. Mennucci, H. P. Hratchian, 
 J. V. Ortiz, A. F. Izmaylov, J. L. Sonnenberg, D. Williams-Young, 
 F. Ding, F. Lipparini, F. Egidi, J. Goings, B. Peng, A. Petrone, 
 T. Henderson, D. Ranasinghe, V. G. Zakrzewski, J. Gao, N. Rega, 
 G. Zheng, W. Liang, M. Hada, M. Ehara, K. Toyota, R. Fukuda, 
 J. Hasegawa, M. Ishida, T. Nakajima, Y. Honda, O. Kitao, H. Nakai, 
 T. Vreven, K. Throssell, J. A. Montgomery, Jr., J. E. Peralta, 
 F. Ogliaro, M. J. Bearpark, J. J. Heyd, E. N. Brothers, K. N. Kudin, 
 V. N. Staroverov, T. A. Keith, R. Kobayashi, J. Normand, 
 K. Raghavachari, A. P. Rendell, J. C. Burant, S. S. Iyengar, 
 J. Tomasi, M. Cossi, J. M. Millam, M. Klene, C. Adamo, R. Cammi, 
 J. W. Ochterski, R. L. Martin, K. Morokuma, O. Farkas, 
 J. B. Foresman, and D. J. Fox, Gaussian, Inc., Wallingford CT, 2016.
 
 ******************************************
 Gaussian 16:  ES64L-G16RevB.01 20-Dec-2017
                 5-Dec-2023 
 ******************************************
 %nproc=15
 Will use up to   15 processors via shared memory.
 -------------------------
 #P B3LYP/6-311+g(d) force
 -------------------------
 1/10=7,30=1,38=1/1,3;
 2/12=2,17=6,18=5,40=1/2;
 3/5=4,6=6,7=11,11=2,25=1,30=1,71=1,74=-5/1,2,3;
 4//1;
 5/5=2,38=5/2;
 6/7=2,8=2,9=2,10=2,28=1/1;
 7/29=1/1,2,3,16;
 1/10=7,30=1/3;
 99//99;
 Leave Link    1 at Tue Dec  5 20:15:21 2023, MaxMem=           0 cpu:               0.3 elap:               0.0
 (Enter /home/sekinelabo/g16/l101.exe)
 -----
 DPGEN
 -----
 Symbolic Z-matrix:
 Charge =  0 Multiplicity = 2
 Na                    11.5777   13.9956   10.7805 
 Na                    16.4123   14.7167   14.1638 
 Na                    13.7001   14.6014   12.5324 
 Na                    11.1707   12.8059   13.7121 
 Na                    14.1385   11.7708   14.3114 
 Na                    12.8055   10.8952   11.5116 
 Na                    13.6992   14.7184   16.4923 
 
 ITRead=  0  0  0  0  0  0  0
 MicOpt= -1 -1 -1 -1 -1 -1 -1
 NAtoms=      7 NQM=        7 NQMF=       0 NMMI=      0 NMMIF=      0
                NMic=       0 NMicF=      0.
                    Isotopes and Nuclear Properties:
 (Nuclear quadrupole moments (NQMom) in fm**2, nuclear magnetic moments (NMagM)
  in nuclear magnetons)

  Atom         1           2           3           4           5           6           7
 IAtWgt=          23          23          23          23          23          23          23
 AtmWgt=  22.9897697  22.9897697  22.9897697  22.9897697  22.9897697  22.9897697  22.9897697
 NucSpn=           3           3           3           3           3           3           3
 AtZEff=  -0.0000000  -0.0000000  -0.0000000  -0.0000000  -0.0000000  -0.0000000  -0.0000000
 NQMom=   10.4000000  10.4000000  10.4000000  10.4000000  10.4000000  10.4000000  10.4000000
 NMagM=    2.2175200   2.2175200   2.2175200   2.2175200   2.2175200   2.2175200   2.2175200
 AtZNuc=  11.0000000  11.0000000  11.0000000  11.0000000  11.0000000  11.0000000  11.0000000
 Leave Link  101 at Tue Dec  5 20:15:21 2023, MaxMem=  1879048192 cpu:               2.4 elap:               0.2
 (Enter /home/sekinelabo/g16/l103.exe)

 GradGradGradGradGradGradGradGradGradGradGradGradGradGradGradGradGradGrad
 Berny optimization.
 Initialization pass.
 Trust Radius=3.00D-01 FncErr=1.00D-07 GrdErr=1.00D-07 EigMax=2.50D+02 EigMin=1.00D-04
 Number of steps in this run=      2 maximum allowed number of steps=      2.
 GradGradGradGradGradGradGradGradGradGradGradGradGradGradGradGradGradGrad

 Leave Link  103 at Tue Dec  5 20:15:21 2023, MaxMem=  1879048192 cpu:               0.2 elap:               0.0
 (Enter /home/sekinelabo/g16/l202.exe)
                          Input orientation:                          
 ---------------------------------------------------------------------
 Center     Atomic      Atomic             Coordinates (Angstroms)
 Number     Number       Type             X           Y           Z
 ---------------------------------------------------------------------
      1         11           0       11.577700   13.995600   10.780500
      2         11           0       16.412300   14.716700   14.163800
      3         11           0       13.700100   14.601400   12.532400
      4         11           0       11.170700   12.805900   13.712100
      5         11           0       14.138500   11.770800   14.311400
      6         11           0       12.805500   10.895200   11.511600
      7         11           0       13.699200   14.718400   16.492300
 ---------------------------------------------------------------------
                    Distance matrix (angstroms):
                    1          2          3          4          5
     1  Na   0.000000
     2  Na   5.944751   0.000000
     3  Na   2.817930   3.167142   0.000000
     4  Na   3.189877   5.597281   3.318641   0.000000
     5  Na   4.896395   3.724282   3.371844   3.199755   0.000000
     6  Na   3.413866   5.886173   3.946930   3.341489   3.222180
     7  Na   6.135785   3.575308   3.961628   4.216691   3.692920
                    6          7
     6  Na   0.000000
     7  Na   6.342155   0.000000
 Stoichiometry    Na7(2)
 Framework group  C1[X(Na7)]
 Deg. of freedom    15
 Full point group                 C1      NOp   1
 Largest Abelian subgroup         C1      NOp   1
 Largest concise Abelian subgroup C1      NOp   1
                         Standard orientation:                         
 ---------------------------------------------------------------------
 Center     Atomic      Atomic             Coordinates (Angstroms)
 Number     Number       Type             X           Y           Z
 ---------------------------------------------------------------------
      1         11           0        2.627921    1.478323   -1.061156
      2         11           0       -2.894064    1.466484    1.140573
      3         11           0       -0.097894    1.488429   -0.346619
      4         11           0        1.247035   -1.385649   -1.318329
      5         11           0       -0.519608   -1.395087    1.349500
      6         11           0        2.591521   -0.608507    1.640380
      7         11           0       -2.954911   -1.043992   -1.404350
 ---------------------------------------------------------------------
 Rotational constants (GHZ):           0.9706614           0.5072986           0.4946436
 Leave Link  202 at Tue Dec  5 20:15:21 2023, MaxMem=  1879048192 cpu:               0.0 elap:               0.0
 (Enter /home/sekinelabo/g16/l301.exe)
 Standard basis: 6-311+G(d) (5D, 7F)
 Ernie: Thresh=  0.10000D-02 Tol=  0.10000D-05 Strict=F.
 There are   217 symmetry adapted cartesian basis functions of A   symmetry.
 There are   210 symmetry adapted basis functions of A   symmetry.
   210 basis functions,   350 primitive gaussians,   217 cartesian basis functions
    39 alpha electrons       38 beta electrons
       nuclear repulsion energy       345.8058178029 Hartrees.
 IExCor=  402 DFT=T Ex+Corr=B3LYP ExCW=0 ScaHFX=  0.200000
 ScaDFX=  0.800000  0.720000  1.000000  0.810000 ScalE2=  1.000000  1.000000
 IRadAn=      5 IRanWt=     -1 IRanGd=            0 ICorTp=0 IEmpDi=  4
 NAtoms=    7 NActive=    7 NUniq=    7 SFac= 1.00D+00 NAtFMM=   60 NAOKFM=F Big=F
 Integral buffers will be    131072 words long.
 Raffenetti 2 integral format.
 Two-electron integral symmetry is turned on.
 Leave Link  301 at Tue Dec  5 20:15:21 2023, MaxMem=  1879048192 cpu:               0.5 elap:               0.0
 (Enter /home/sekinelabo/g16/l302.exe)
 NPDir=0 NMtPBC=     1 NCelOv=     1 NCel=       1 NClECP=     1 NCelD=      1
         NCelK=      1 NCelE2=     1 NClLst=     1 CellRange=     0.0.
 One-electron integrals computed using PRISM.
 One-electron integral symmetry used in STVInt
 NBasis=   210 RedAO= T EigKep=  2.20D-06  NBF=   210
 NBsUse=   210 1.00D-06 EigRej= -1.00D+00 NBFU=   210
 Precomputing XC quadrature grid using
 IXCGrd= 4 IRadAn=           5 IRanWt=          -1 IRanGd=           0 AccXCQ= 0.00D+00.
 Generated NRdTot=       0 NPtTot=           0 NUsed=           0 NTot=          32
 NSgBfM=   210   210   210   210   210 MxSgAt=     7 MxSgA2=     7.
 Leave Link  302 at Tue Dec  5 20:15:21 2023, MaxMem=  1879048192 cpu:               2.0 elap:               0.1
 (Enter /home/sekinelabo/g16/l303.exe)
 DipDrv:  MaxL=1.
 Leave Link  303 at Tue Dec  5 20:15:21 2023, MaxMem=  1879048192 cpu:               0.5 elap:               0.0
 (Enter /home/sekinelabo/g16/l401.exe)
 ExpMin= 7.60D-03 ExpMax= 3.62D+04 ExpMxC= 1.21D+03 IAcc=3 IRadAn=         5 AccDes= 0.00D+00
 Harris functional with IExCor=  402 and IRadAn=       5 diagonalized for initial guess.
 HarFok:  IExCor=  402 AccDes= 0.00D+00 IRadAn=         5 IDoV= 1 UseB2=F ITyADJ=14
 ICtDFT=  3500011 ScaDFX=  1.000000  1.000000  1.000000  1.000000
 FoFCou: FMM=F IPFlag=           0 FMFlag=      100000 FMFlg1=           0
         NFxFlg=           0 DoJE=T BraDBF=F KetDBF=T FulRan=T
         wScrn=  0.000000 ICntrl=       500 IOpCl=  0 I1Cent=   200000004 NGrid=           0
         NMat0=    1 NMatS0=      1 NMatT0=    0 NMatD0=    1 NMtDS0=    0 NMtDT0=    0
 Petite list used in FoFCou.
 Harris En= -1135.89206799412    
 JPrj=0 DoOrth=F DoCkMO=F.
 Initial guess <Sx>= 0.0000 <Sy>= 0.0000 <Sz>= 0.5000 <S**2>= 0.7500 S= 0.5000
 Leave Link  401 at Tue Dec  5 20:15:22 2023, MaxMem=  1879048192 cpu:               4.4 elap:               0.3
 (Enter /home/sekinelabo/g16/l502.exe)
 Keep R1 and R2 ints in memory in canonical form, NReq=506573321.
 FoFCou: FMM=F IPFlag=           0 FMFlag=           0 FMFlg1=           0
         NFxFlg=           0 DoJE=F BraDBF=F KetDBF=F FulRan=T
         wScrn=  0.000000 ICntrl=       600 IOpCl=  0 I1Cent=           0 NGrid=           0
         NMat0=    1 NMatS0=  22155 NMatT0=    0 NMatD0=    1 NMtDS0=    0 NMtDT0=    0
 Symmetry not used in FoFCou.
 Two-electron integral symmetry not used.
 UHF open shell SCF:
 Using DIIS extrapolation, IDIIS=  1040.
 NGot=  1879048192 LenX=  1388082579 LenY=  1388035049
 Requested convergence on RMS density matrix=1.00D-08 within 128 cycles.
 Requested convergence on MAX density matrix=1.00D-06.
 Requested convergence on             energy=1.00D-06.
 No special actions if energy rises.

 Cycle   1  Pass 1  IDiag  1:
 E= -1136.07738650924    
 DIIS: error= 1.15D-02 at cycle   1 NSaved=   1.
 NSaved= 1 IEnMin= 1 EnMin= -1136.07738650924     IErMin= 1 ErrMin= 1.15D-02
 ErrMax= 1.15D-02  0.00D+00 EMaxC= 1.00D-01 BMatC= 1.97D-01 BMatP= 1.97D-01
 IDIUse=3 WtCom= 8.85D-01 WtEn= 1.15D-01
 Coeff-Com:  0.100D+01
 Coeff-En:   0.100D+01
 Coeff:      0.100D+01
 Gap=     0.040 Goal=   None    Shift=    0.000
 Gap=     0.025 Goal=   None    Shift=    0.000
 GapD=    0.025 DampG=0.250 DampE=0.500 DampFc=0.2500 IDamp=-1.
 Damping current iteration by 2.50D-01
 RMSDP=7.57D-02 MaxDP=8.20D+00              OVMax= 3.52D-01

 Cycle   2  Pass 1  IDiag  1:
 E= -1136.09171852132     Delta-E=       -0.014332012087 Rises=F Damp=T
 DIIS: error= 8.09D-03 at cycle   2 NSaved=   2.
 NSaved= 2 IEnMin= 2 EnMin= -1136.09171852132     IErMin= 2 ErrMin= 8.09D-03
 ErrMax= 8.09D-03  0.00D+00 EMaxC= 1.00D-01 BMatC= 7.37D-02 BMatP= 1.97D-01
 IDIUse=3 WtCom= 9.19D-01 WtEn= 8.09D-02
 Coeff-Com: -0.120D+01 0.220D+01
 Coeff-En:   0.000D+00 0.100D+01
 Coeff:     -0.110D+01 0.210D+01
 Gap=     0.053 Goal=   None    Shift=    0.000
 Gap=     0.041 Goal=   None    Shift=    0.000
 RMSDP=3.32D-02 MaxDP=3.44D+00 DE=-1.43D-02 OVMax= 3.44D-01

 Cycle   3  Pass 1  IDiag  1:
 E= -1136.10376032153     Delta-E=       -0.012041800205 Rises=F Damp=F
 DIIS: error= 6.34D-03 at cycle   3 NSaved=   3.
 NSaved= 3 IEnMin= 3 EnMin= -1136.10376032153     IErMin= 3 ErrMin= 6.34D-03
 ErrMax= 6.34D-03  0.00D+00 EMaxC= 1.00D-01 BMatC= 1.33D-02 BMatP= 7.37D-02
 IDIUse=3 WtCom= 9.37D-01 WtEn= 6.34D-02
 Coeff-Com: -0.531D+00 0.937D+00 0.594D+00
 Coeff-En:   0.000D+00 0.000D+00 0.100D+01
 Coeff:     -0.498D+00 0.878D+00 0.620D+00
 Gap=     0.049 Goal=   None    Shift=    0.000
 Gap=     0.031 Goal=   None    Shift=    0.000
 RMSDP=1.12D-02 MaxDP=9.25D-01 DE=-1.20D-02 OVMax= 2.53D-01

 Cycle   4  Pass 1  IDiag  1:
 E= -1136.10414740108     Delta-E=       -0.000387079551 Rises=F Damp=F
 DIIS: error= 7.55D-03 at cycle   4 NSaved=   4.
 NSaved= 4 IEnMin= 4 EnMin= -1136.10414740108     IErMin= 3 ErrMin= 6.34D-03
 ErrMax= 7.55D-03  0.00D+00 EMaxC= 1.00D-01 BMatC= 1.19D-02 BMatP= 1.33D-02
 IDIUse=3 WtCom= 9.25D-01 WtEn= 7.55D-02
 Coeff-Com: -0.612D-01 0.103D+00 0.475D+00 0.483D+00
 Coeff-En:   0.000D+00 0.000D+00 0.495D+00 0.505D+00
 Coeff:     -0.566D-01 0.951D-01 0.477D+00 0.485D+00
 Gap=     0.047 Goal=   None    Shift=    0.000
 Gap=     0.033 Goal=   None    Shift=    0.000
 RMSDP=6.04D-03 MaxDP=3.98D-01 DE=-3.87D-04 OVMax= 1.71D-01

 Cycle   5  Pass 1  IDiag  1:
 E= -1136.11870437933     Delta-E=       -0.014556978255 Rises=F Damp=F
 DIIS: error= 1.23D-03 at cycle   5 NSaved=   5.
 NSaved= 5 IEnMin= 5 EnMin= -1136.11870437933     IErMin= 5 ErrMin= 1.23D-03
 ErrMax= 1.23D-03  0.00D+00 EMaxC= 1.00D-01 BMatC= 7.00D-04 BMatP= 1.19D-02
 IDIUse=3 WtCom= 9.88D-01 WtEn= 1.23D-02
 Coeff-Com: -0.101D-01 0.126D-01 0.235D+00 0.278D+00 0.485D+00
 Coeff-En:   0.000D+00 0.000D+00 0.000D+00 0.000D+00 0.100D+01
 Coeff:     -0.100D-01 0.124D-01 0.232D+00 0.274D+00 0.491D+00
 Gap=     0.048 Goal=   None    Shift=    0.000
 Gap=     0.032 Goal=   None    Shift=    0.000
 RMSDP=3.40D-03 MaxDP=3.16D-01 DE=-1.46D-02 OVMax= 2.95D-02

 Cycle   6  Pass 1  IDiag  1:
 E= -1136.11937576331     Delta-E=       -0.000671383971 Rises=F Damp=F
 DIIS: error= 3.22D-04 at cycle   6 NSaved=   6.
 NSaved= 6 IEnMin= 6 EnMin= -1136.11937576331     IErMin= 6 ErrMin= 3.22D-04
 ErrMax= 3.22D-04  0.00D+00 EMaxC= 1.00D-01 BMatC= 3.01D-05 BMatP= 7.00D-04
 IDIUse=3 WtCom= 9.97D-01 WtEn= 3.22D-03
 Coeff-Com: -0.210D-02 0.229D-02-0.292D-01-0.382D-01 0.123D+00 0.944D+00
 Coeff-En:   0.000D+00 0.000D+00 0.000D+00 0.000D+00 0.000D+00 0.100D+01
 Coeff:     -0.209D-02 0.228D-02-0.291D-01-0.380D-01 0.123D+00 0.944D+00
 Gap=     0.047 Goal=   None    Shift=    0.000
 Gap=     0.033 Goal=   None    Shift=    0.000
 RMSDP=1.17D-03 MaxDP=1.16D-01 DE=-6.71D-04 OVMax= 1.45D-02

 Cycle   7  Pass 1  IDiag  1:
 E= -1136.11943686480     Delta-E=       -0.000061101491 Rises=F Damp=F
 DIIS: error= 7.52D-05 at cycle   7 NSaved=   7.
 NSaved= 7 IEnMin= 7 EnMin= -1136.11943686480     IErMin= 7 ErrMin= 7.52D-05
 ErrMax= 7.52D-05  0.00D+00 EMaxC= 1.00D-01 BMatC= 1.72D-06 BMatP= 3.01D-05
 IDIUse=1 WtCom= 1.00D+00 WtEn= 0.00D+00
 Coeff-Com:  0.149D-02-0.200D-02-0.807D-02-0.873D-02-0.389D-01-0.101D+00
 Coeff-Com:  0.116D+01
 Coeff:      0.149D-02-0.200D-02-0.807D-02-0.873D-02-0.389D-01-0.101D+00
 Coeff:      0.116D+01
 Gap=     0.047 Goal=   None    Shift=    0.000
 Gap=     0.033 Goal=   None    Shift=    0.000
 RMSDP=4.00D-04 MaxDP=3.37D-02 DE=-6.11D-05 OVMax= 8.74D-03

 Cycle   8  Pass 1  IDiag  1:
 E= -1136.11945030925     Delta-E=       -0.000013444451 Rises=F Damp=F
 DIIS: error= 4.68D-05 at cycle   8 NSaved=   8.
 NSaved= 8 IEnMin= 8 EnMin= -1136.11945030925     IErMin= 8 ErrMin= 4.68D-05
 ErrMax= 4.68D-05  0.00D+00 EMaxC= 1.00D-01 BMatC= 8.68D-07 BMatP= 1.72D-06
 IDIUse=1 WtCom= 1.00D+00 WtEn= 0.00D+00
 Coeff-Com:  0.101D-02-0.126D-02 0.695D-03 0.332D-02-0.440D-01-0.244D+00
 Coeff-Com:  0.438D+00 0.846D+00
 Coeff:      0.101D-02-0.126D-02 0.695D-03 0.332D-02-0.440D-01-0.244D+00
 Coeff:      0.438D+00 0.846D+00
 Gap=     0.047 Goal=   None    Shift=    0.000
 Gap=     0.033 Goal=   None    Shift=    0.000
 RMSDP=2.76D-04 MaxDP=2.64D-02 DE=-1.34D-05 OVMax= 5.10D-03

 Cycle   9  Pass 1  IDiag  1:
 E= -1136.11945528419     Delta-E=       -0.000004974941 Rises=F Damp=F
 DIIS: error= 3.82D-05 at cycle   9 NSaved=   9.
 NSaved= 9 IEnMin= 9 EnMin= -1136.11945528419     IErMin= 9 ErrMin= 3.82D-05
 ErrMax= 3.82D-05  0.00D+00 EMaxC= 1.00D-01 BMatC= 4.30D-07 BMatP= 8.68D-07
 IDIUse=1 WtCom= 1.00D+00 WtEn= 0.00D+00
 Coeff-Com:  0.561D-04 0.765D-05 0.281D-02 0.405D-02-0.102D-01-0.877D-01
 Coeff-Com: -0.221D+00 0.505D+00 0.806D+00
 Coeff:      0.561D-04 0.765D-05 0.281D-02 0.405D-02-0.102D-01-0.877D-01
 Coeff:     -0.221D+00 0.505D+00 0.806D+00
 Gap=     0.047 Goal=   None    Shift=    0.000
 Gap=     0.033 Goal=   None    Shift=    0.000
 RMSDP=1.89D-04 MaxDP=1.79D-02 DE=-4.97D-06 OVMax= 3.76D-03

 Cycle  10  Pass 1  IDiag  1:
 E= -1136.11945743032     Delta-E=       -0.000002146135 Rises=F Damp=F
 DIIS: error= 1.69D-05 at cycle  10 NSaved=  10.
 NSaved=10 IEnMin=10 EnMin= -1136.11945743032     IErMin=10 ErrMin= 1.69D-05
 ErrMax= 1.69D-05  0.00D+00 EMaxC= 1.00D-01 BMatC= 1.02D-07 BMatP= 4.30D-07
 IDIUse=1 WtCom= 1.00D+00 WtEn= 0.00D+00
 Coeff-Com: -0.586D-04 0.943D-04 0.176D-02 0.326D-03 0.989D-02 0.481D-01
 Coeff-Com: -0.228D+00-0.974D-01 0.311D+00 0.955D+00
 Coeff:     -0.586D-04 0.943D-04 0.176D-02 0.326D-03 0.989D-02 0.481D-01
 Coeff:     -0.228D+00-0.974D-01 0.311D+00 0.955D+00
 Gap=     0.047 Goal=   None    Shift=    0.000
 Gap=     0.033 Goal=   None    Shift=    0.000
 RMSDP=1.22D-04 MaxDP=1.22D-02 DE=-2.15D-06 OVMax= 2.28D-03

 Cycle  11  Pass 1  IDiag  1:
 E= -1136.11945805180     Delta-E=       -0.000000621476 Rises=F Damp=F
 DIIS: error= 6.65D-06 at cycle  11 NSaved=  11.
 NSaved=11 IEnMin=11 EnMin= -1136.11945805180     IErMin=11 ErrMin= 6.65D-06
 ErrMax= 6.65D-06  0.00D+00 EMaxC= 1.00D-01 BMatC= 1.41D-08 BMatP= 1.02D-07
 IDIUse=1 WtCom= 1.00D+00 WtEn= 0.00D+00
 Coeff-Com: -0.915D-04 0.113D-03-0.190D-03-0.857D-03 0.632D-02 0.367D-01
 Coeff-Com: -0.366D-01-0.959D-01-0.587D-01 0.127D+00 0.102D+01
 Coeff:     -0.915D-04 0.113D-03-0.190D-03-0.857D-03 0.632D-02 0.367D-01
 Coeff:     -0.366D-01-0.959D-01-0.587D-01 0.127D+00 0.102D+01
 Gap=     0.047 Goal=   None    Shift=    0.000
 Gap=     0.033 Goal=   None    Shift=    0.000
 RMSDP=4.78D-05 MaxDP=3.52D-03 DE=-6.21D-07 OVMax= 9.22D-04

 Cycle  12  Pass 1  IDiag  1:
 E= -1136.11945816486     Delta-E=       -0.000000113062 Rises=F Damp=F
 DIIS: error= 3.66D-06 at cycle  12 NSaved=  12.
 NSaved=12 IEnMin=12 EnMin= -1136.11945816486     IErMin=12 ErrMin= 3.66D-06
 ErrMax= 3.66D-06  0.00D+00 EMaxC= 1.00D-01 BMatC= 4.74D-09 BMatP= 1.41D-08
 IDIUse=1 WtCom= 1.00D+00 WtEn= 0.00D+00
 Coeff-Com: -0.475D-04 0.559D-04-0.439D-03-0.283D-03 0.306D-03 0.155D-02
 Coeff-Com:  0.270D-01 0.526D-02-0.756D-01-0.212D+00 0.321D+00 0.933D+00
 Coeff:     -0.475D-04 0.559D-04-0.439D-03-0.283D-03 0.306D-03 0.155D-02
 Coeff:      0.270D-01 0.526D-02-0.756D-01-0.212D+00 0.321D+00 0.933D+00
 Gap=     0.047 Goal=   None    Shift=    0.000
 Gap=     0.033 Goal=   None    Shift=    0.000
 RMSDP=2.47D-05 MaxDP=2.62D-03 DE=-1.13D-07 OVMax= 5.80D-04

 Cycle  13  Pass 1  IDiag  1:
 E= -1136.11945819838     Delta-E=       -0.000000033520 Rises=F Damp=F
 DIIS: error= 2.91D-06 at cycle  13 NSaved=  13.
 NSaved=13 IEnMin=13 EnMin= -1136.11945819838     IErMin=13 ErrMin= 2.91D-06
 ErrMax= 2.91D-06  0.00D+00 EMaxC= 1.00D-01 BMatC= 2.29D-09 BMatP= 4.74D-09
 IDIUse=1 WtCom= 1.00D+00 WtEn= 0.00D+00
 Coeff-Com:  0.417D-05-0.773D-05-0.205D-03 0.393D-04-0.135D-02-0.809D-02
 Coeff-Com:  0.218D-01 0.269D-01-0.235D-01-0.146D+00-0.830D-01 0.526D+00
 Coeff-Com:  0.687D+00
 Coeff:      0.417D-05-0.773D-05-0.205D-03 0.393D-04-0.135D-02-0.809D-02
 Coeff:      0.218D-01 0.269D-01-0.235D-01-0.146D+00-0.830D-01 0.526D+00
 Coeff:      0.687D+00
 Gap=     0.047 Goal=   None    Shift=    0.000
 Gap=     0.033 Goal=   None    Shift=    0.000
 RMSDP=1.12D-05 MaxDP=9.36D-04 DE=-3.35D-08 OVMax= 3.09D-04

 Cycle  14  Pass 1  IDiag  1:
 E= -1136.11945820973     Delta-E=       -0.000000011345 Rises=F Damp=F
 DIIS: error= 1.53D-06 at cycle  14 NSaved=  14.
 NSaved=14 IEnMin=14 EnMin= -1136.11945820973     IErMin=14 ErrMin= 1.53D-06
 ErrMax= 1.53D-06  0.00D+00 EMaxC= 1.00D-01 BMatC= 5.99D-10 BMatP= 2.29D-09
 IDIUse=1 WtCom= 1.00D+00 WtEn= 0.00D+00
 Coeff-Com:  0.332D-04-0.415D-04 0.197D-03 0.145D-03-0.271D-03-0.216D-02
 Coeff-Com: -0.152D-01 0.426D-02 0.446D-01 0.823D-01-0.206D+00-0.323D+00
 Coeff-Com:  0.188D+00 0.123D+01
 Coeff:      0.332D-04-0.415D-04 0.197D-03 0.145D-03-0.271D-03-0.216D-02
 Coeff:     -0.152D-01 0.426D-02 0.446D-01 0.823D-01-0.206D+00-0.323D+00
 Coeff:      0.188D+00 0.123D+01
 Gap=     0.047 Goal=   None    Shift=    0.000
 Gap=     0.033 Goal=   None    Shift=    0.000
 RMSDP=1.44D-05 MaxDP=1.12D-03 DE=-1.13D-08 OVMax= 3.68D-04

 Cycle  15  Pass 1  IDiag  1:
 E= -1136.11945821694     Delta-E=       -0.000000007218 Rises=F Damp=F
 DIIS: error= 1.01D-06 at cycle  15 NSaved=  15.
 NSaved=15 IEnMin=15 EnMin= -1136.11945821694     IErMin=15 ErrMin= 1.01D-06
 ErrMax= 1.01D-06  0.00D+00 EMaxC= 1.00D-01 BMatC= 2.15D-10 BMatP= 5.99D-10
 IDIUse=1 WtCom= 1.00D+00 WtEn= 0.00D+00
 Coeff-Com: -0.962D-05 0.135D-04 0.114D-03-0.237D-04 0.798D-03 0.340D-02
 Coeff-Com: -0.101D-01-0.758D-02 0.124D-01 0.401D-01 0.278D-01-0.141D+00
 Coeff-Com: -0.224D+00-0.285D-01 0.133D+01
 Coeff:     -0.962D-05 0.135D-04 0.114D-03-0.237D-04 0.798D-03 0.340D-02
 Coeff:     -0.101D-01-0.758D-02 0.124D-01 0.401D-01 0.278D-01-0.141D+00
 Coeff:     -0.224D+00-0.285D-01 0.133D+01
 Gap=     0.047 Goal=   None    Shift=    0.000
 Gap=     0.033 Goal=   None    Shift=    0.000
 RMSDP=9.30D-06 MaxDP=7.85D-04 DE=-7.22D-09 OVMax= 2.53D-04

 Cycle  16  Pass 1  IDiag  1:
 E= -1136.11945821981     Delta-E=       -0.000000002864 Rises=F Damp=F
 DIIS: error= 7.22D-07 at cycle  16 NSaved=  16.
 NSaved=16 IEnMin=16 EnMin= -1136.11945821981     IErMin=16 ErrMin= 7.22D-07
 ErrMax= 7.22D-07  0.00D+00 EMaxC= 1.00D-01 BMatC= 7.14D-11 BMatP= 2.15D-10
 IDIUse=1 WtCom= 1.00D+00 WtEn= 0.00D+00
 Coeff-Com:  0.296D-06-0.107D-05-0.429D-04-0.207D-04-0.451D-04-0.362D-03
 Coeff-Com:  0.194D-02 0.614D-02-0.849D-02-0.350D-01 0.256D-01 0.143D+00
 Coeff-Com:  0.410D-01-0.292D+00-0.681D+00 0.180D+01
 Coeff:      0.296D-06-0.107D-05-0.429D-04-0.207D-04-0.451D-04-0.362D-03
 Coeff:      0.194D-02 0.614D-02-0.849D-02-0.350D-01 0.256D-01 0.143D+00
 Coeff:      0.410D-01-0.292D+00-0.681D+00 0.180D+01
 Gap=     0.047 Goal=   None    Shift=    0.000
 Gap=     0.033 Goal=   None    Shift=    0.000
 RMSDP=6.44D-06 MaxDP=5.16D-04 DE=-2.86D-09 OVMax= 2.07D-04

 Cycle  17  Pass 1  IDiag  1:
 E= -1136.11945822108     Delta-E=       -0.000000001268 Rises=F Damp=F
 DIIS: error= 2.90D-07 at cycle  17 NSaved=  17.
 NSaved=17 IEnMin=17 EnMin= -1136.11945822108     IErMin=17 ErrMin= 2.90D-07
 ErrMax= 2.90D-07  0.00D+00 EMaxC= 1.00D-01 BMatC= 1.83D-11 BMatP= 7.14D-11
 IDIUse=1 WtCom= 1.00D+00 WtEn= 0.00D+00
 Coeff-Com:  0.676D-05-0.913D-05-0.265D-04 0.964D-06-0.180D-03-0.683D-03
 Coeff-Com:  0.331D-03 0.300D-02 0.454D-03-0.830D-02-0.190D-01 0.425D-01
 Coeff-Com:  0.672D-01 0.355D-01-0.604D+00 0.428D+00 0.106D+01
 Coeff:      0.676D-05-0.913D-05-0.265D-04 0.964D-06-0.180D-03-0.683D-03
 Coeff:      0.331D-03 0.300D-02 0.454D-03-0.830D-02-0.190D-01 0.425D-01
 Coeff:      0.672D-01 0.355D-01-0.604D+00 0.428D+00 0.106D+01
 Gap=     0.047 Goal=   None    Shift=    0.000
 Gap=     0.033 Goal=   None    Shift=    0.000
 RMSDP=2.57D-06 MaxDP=1.92D-04 DE=-1.27D-09 OVMax= 9.79D-05

 Cycle  18  Pass 1  IDiag  1:
 E= -1136.11945822135     Delta-E=       -0.000000000269 Rises=F Damp=F
 DIIS: error= 1.75D-07 at cycle  18 NSaved=  18.
 NSaved=18 IEnMin=18 EnMin= -1136.11945822135     IErMin=18 ErrMin= 1.75D-07
 ErrMax= 1.75D-07  0.00D+00 EMaxC= 1.00D-01 BMatC= 5.85D-12 BMatP= 1.83D-11
 IDIUse=1 WtCom= 1.00D+00 WtEn= 0.00D+00
 Coeff-Com:  0.281D-05-0.351D-05 0.505D-05 0.448D-05-0.504D-04-0.228D-03
 Coeff-Com: -0.662D-03-0.283D-03 0.346D-02 0.615D-02-0.181D-01-0.229D-01
 Coeff-Com:  0.176D-01 0.115D+00-0.762D-01-0.332D+00 0.213D+00 0.110D+01
 Coeff:      0.281D-05-0.351D-05 0.505D-05 0.448D-05-0.504D-04-0.228D-03
 Coeff:     -0.662D-03-0.283D-03 0.346D-02 0.615D-02-0.181D-01-0.229D-01
 Coeff:      0.176D-01 0.115D+00-0.762D-01-0.332D+00 0.213D+00 0.110D+01
 Gap=     0.047 Goal=   None    Shift=    0.000
 Gap=     0.033 Goal=   None    Shift=    0.000
 RMSDP=1.35D-06 MaxDP=8.64D-05 DE=-2.69D-10 OVMax= 5.81D-05

 Cycle  19  Pass 1  IDiag  1:
 E= -1136.11945822142     Delta-E=       -0.000000000070 Rises=F Damp=F
 DIIS: error= 7.28D-08 at cycle  19 NSaved=  19.
 NSaved=19 IEnMin=19 EnMin= -1136.11945822142     IErMin=19 ErrMin= 7.28D-08
 ErrMax= 7.28D-08  0.00D+00 EMaxC= 1.00D-01 BMatC= 9.85D-13 BMatP= 5.85D-12
 IDIUse=1 WtCom= 1.00D+00 WtEn= 0.00D+00
 Coeff-Com: -0.120D-05 0.158D-05 0.878D-05 0.352D-05 0.483D-04 0.136D-03
 Coeff-Com: -0.353D-03-0.725D-04-0.123D-03 0.884D-03 0.374D-02-0.402D-02
 Coeff-Com: -0.115D-01-0.169D-01 0.973D-01 0.664D-01-0.301D+00-0.432D+00
 Coeff-Com:  0.160D+01
 Coeff:     -0.120D-05 0.158D-05 0.878D-05 0.352D-05 0.483D-04 0.136D-03
 Coeff:     -0.353D-03-0.725D-04-0.123D-03 0.884D-03 0.374D-02-0.402D-02
 Coeff:     -0.115D-01-0.169D-01 0.973D-01 0.664D-01-0.301D+00-0.432D+00
 Coeff:      0.160D+01
 Gap=     0.047 Goal=   None    Shift=    0.000
 Gap=     0.033 Goal=   None    Shift=    0.000
 RMSDP=6.58D-07 MaxDP=6.90D-05 DE=-6.96D-11 OVMax= 2.29D-05

 Cycle  20  Pass 1  IDiag  1:
 E= -1136.11945822145     Delta-E=       -0.000000000035 Rises=F Damp=F
 DIIS: error= 3.61D-08 at cycle  20 NSaved=  20.
 NSaved=20 IEnMin=20 EnMin= -1136.11945822145     IErMin=20 ErrMin= 3.61D-08
 ErrMax= 3.61D-08  0.00D+00 EMaxC= 1.00D-01 BMatC= 3.07D-13 BMatP= 9.85D-13
 IDIUse=1 WtCom= 1.00D+00 WtEn= 0.00D+00
 Coeff-Com: -0.236D-06 0.256D-06-0.118D-05 0.107D-05-0.633D-05-0.465D-04
 Coeff-Com:  0.909D-04 0.511D-03-0.411D-03-0.228D-02 0.136D-02 0.956D-02
 Coeff-Com:  0.241D-02-0.221D-01-0.474D-01 0.118D+00 0.196D-01-0.218D+00
 Coeff-Com: -0.280D+00 0.142D+01
 Coeff:     -0.236D-06 0.256D-06-0.118D-05 0.107D-05-0.633D-05-0.465D-04
 Coeff:      0.909D-04 0.511D-03-0.411D-03-0.228D-02 0.136D-02 0.956D-02
 Coeff:      0.241D-02-0.221D-01-0.474D-01 0.118D+00 0.196D-01-0.218D+00
 Coeff:     -0.280D+00 0.142D+01
 Gap=     0.047 Goal=   None    Shift=    0.000
 Gap=     0.033 Goal=   None    Shift=    0.000
 RMSDP=3.33D-07 MaxDP=2.57D-05 DE=-3.46D-11 OVMax= 1.28D-05

 Cycle  21  Pass 1  IDiag  1:
 E= -1136.11945822147     Delta-E=       -0.000000000015 Rises=F Damp=F
 DIIS: error= 1.56D-08 at cycle  21 NSaved=  20.
 NSaved=20 IEnMin=20 EnMin= -1136.11945822147     IErMin=20 ErrMin= 1.56D-08
 ErrMax= 1.56D-08  0.00D+00 EMaxC= 1.00D-01 BMatC= 7.86D-14 BMatP= 3.07D-13
 IDIUse=1 WtCom= 1.00D+00 WtEn= 0.00D+00
 Coeff-Com:  0.126D-06-0.170D-05-0.128D-05-0.855D-05-0.234D-04 0.299D-05
 Coeff-Com:  0.593D-04 0.134D-03-0.170D-03-0.128D-02 0.102D-02 0.414D-02
 Coeff-Com:  0.585D-02-0.366D-01 0.383D-02 0.579D-01 0.113D+00-0.411D+00
 Coeff-Com: -0.100D+00 0.136D+01
 Coeff:      0.126D-06-0.170D-05-0.128D-05-0.855D-05-0.234D-04 0.299D-05
 Coeff:      0.593D-04 0.134D-03-0.170D-03-0.128D-02 0.102D-02 0.414D-02
 Coeff:      0.585D-02-0.366D-01 0.383D-02 0.579D-01 0.113D+00-0.411D+00
 Coeff:     -0.100D+00 0.136D+01
 Gap=     0.047 Goal=   None    Shift=    0.000
 Gap=     0.033 Goal=   None    Shift=    0.000
 RMSDP=1.65D-07 MaxDP=1.27D-05 DE=-1.55D-11 OVMax= 6.91D-06

 Cycle  22  Pass 1  IDiag  1:
 E= -1136.11945822147     Delta-E=       -0.000000000000 Rises=F Damp=F
 DIIS: error= 5.80D-09 at cycle  22 NSaved=  20.
 NSaved=20 IEnMin=20 EnMin= -1136.11945822147     IErMin=20 ErrMin= 5.80D-09
 ErrMax= 5.80D-09  0.00D+00 EMaxC= 1.00D-01 BMatC= 1.67D-14 BMatP= 7.86D-14
 IDIUse=1 WtCom= 1.00D+00 WtEn= 0.00D+00
 Coeff-Com: -0.366D-06-0.187D-06-0.315D-05-0.897D-05-0.168D-04-0.230D-04
 Coeff-Com:  0.116D-03 0.256D-03-0.807D-03-0.963D-03 0.772D-03 0.559D-02
 Coeff-Com:  0.408D-03-0.185D-01 0.711D-02 0.544D-01 0.129D-01-0.376D+00
 Coeff-Com:  0.318D+00 0.996D+00
 Coeff:     -0.366D-06-0.187D-06-0.315D-05-0.897D-05-0.168D-04-0.230D-04
 Coeff:      0.116D-03 0.256D-03-0.807D-03-0.963D-03 0.772D-03 0.559D-02
 Coeff:      0.408D-03-0.185D-01 0.711D-02 0.544D-01 0.129D-01-0.376D+00
 Coeff:      0.318D+00 0.996D+00
 Gap=     0.047 Goal=   None    Shift=    0.000
 Gap=     0.033 Goal=   None    Shift=    0.000
 RMSDP=5.50D-08 MaxDP=4.58D-06 DE=-4.55D-13 OVMax= 1.62D-06

 Cycle  23  Pass 1  IDiag  1:
 E= -1136.11945822146     Delta-E=        0.000000000002 Rises=F Damp=F
 DIIS: error= 2.39D-09 at cycle  23 NSaved=  20.
 NSaved=20 IEnMin=19 EnMin= -1136.11945822147     IErMin=20 ErrMin= 2.39D-09
 ErrMax= 2.39D-09  0.00D+00 EMaxC= 1.00D-01 BMatC= 2.89D-15 BMatP= 1.67D-14
 IDIUse=1 WtCom= 1.00D+00 WtEn= 0.00D+00
 Large coefficients: NSaved= 20 BigCof=    0.00 CofMax=   10.00 Det=-9.22D-15
 Inversion failed.  Reducing to 19 matrices.
 Large coefficients: NSaved= 19 BigCof=    0.00 CofMax=   10.00 Det=-9.25D-15
 Inversion failed.  Reducing to 18 matrices.
 Large coefficients: NSaved= 18 BigCof=    0.00 CofMax=   10.00 Det=-9.38D-15
 Inversion failed.  Reducing to 17 matrices.
 Large coefficients: NSaved= 17 BigCof=    0.00 CofMax=   10.00 Det=-9.56D-15
 Inversion failed.  Reducing to 16 matrices.
 Large coefficients: NSaved= 16 BigCof=    0.00 CofMax=   10.00 Det=-9.64D-15
 Inversion failed.  Reducing to 15 matrices.
 Coeff-Com: -0.881D-05 0.661D-04-0.590D-04-0.235D-03-0.242D-03 0.412D-03
 Coeff-Com:  0.393D-02-0.227D-02-0.663D-02-0.121D-01 0.813D-01-0.976D-01
 Coeff-Com: -0.146D+00 0.253D+00 0.927D+00
 Coeff:     -0.881D-05 0.661D-04-0.590D-04-0.235D-03-0.242D-03 0.412D-03
 Coeff:      0.393D-02-0.227D-02-0.663D-02-0.121D-01 0.813D-01-0.976D-01
 Coeff:     -0.146D+00 0.253D+00 0.927D+00
 Gap=     0.047 Goal=   None    Shift=    0.000
 Gap=     0.033 Goal=   None    Shift=    0.000
 RMSDP=2.31D-08 MaxDP=2.15D-06 DE= 2.27D-12 OVMax= 7.25D-07

 Cycle  24  Pass 1  IDiag  1:
 E= -1136.11945822145     Delta-E=        0.000000000013 Rises=F Damp=F
 DIIS: error= 1.07D-09 at cycle  24 NSaved=  16.
 NSaved=16 IEnMin=14 EnMin= -1136.11945822147     IErMin=16 ErrMin= 1.07D-09
 ErrMax= 1.07D-09  0.00D+00 EMaxC= 1.00D-01 BMatC= 3.93D-16 BMatP= 2.89D-15
 IDIUse=1 WtCom= 1.00D+00 WtEn= 0.00D+00
 Large coefficients: NSaved= 16 BigCof=    0.00 CofMax=   10.00 Det=-1.44D-15
 Inversion failed.  Reducing to 15 matrices.
 Coeff-Com:  0.873D-05-0.577D-05-0.787D-04-0.945D-04 0.194D-03 0.834D-03
 Coeff-Com: -0.952D-03-0.214D-02-0.298D-02 0.156D-01 0.431D-02-0.717D-01
 Coeff-Com: -0.128D-01 0.187D+00 0.883D+00
 Coeff:      0.873D-05-0.577D-05-0.787D-04-0.945D-04 0.194D-03 0.834D-03
 Coeff:     -0.952D-03-0.214D-02-0.298D-02 0.156D-01 0.431D-02-0.717D-01
 Coeff:     -0.128D-01 0.187D+00 0.883D+00
 Gap=     0.047 Goal=   None    Shift=    0.000
 Gap=     0.033 Goal=   None    Shift=    0.000
 RMSDP=1.17D-08 MaxDP=1.41D-06 DE= 1.27D-11 OVMax= 3.53D-07

 Cycle  25  Pass 1  IDiag  1:
 E= -1136.11945822145     Delta-E=        0.000000000002 Rises=F Damp=F
 DIIS: error= 5.24D-10 at cycle  25 NSaved=  16.
 NSaved=16 IEnMin=13 EnMin= -1136.11945822147     IErMin=16 ErrMin= 5.24D-10
 ErrMax= 5.24D-10  0.00D+00 EMaxC= 1.00D-01 BMatC= 1.19D-16 BMatP= 3.93D-16
 IDIUse=1 WtCom= 1.00D+00 WtEn= 0.00D+00
 Large coefficients: NSaved= 16 BigCof=    0.00 CofMax=   10.00 Det=-3.90D-16
 Inversion failed.  Reducing to 15 matrices.
 Coeff-Com:  0.148D-04-0.683D-05-0.307D-04-0.731D-04-0.273D-03 0.837D-03
 Coeff-Com: -0.175D-03-0.252D-02-0.150D-02 0.200D-01-0.196D-01-0.470D-01
 Coeff-Com: -0.243D-01 0.336D+00 0.738D+00
 Coeff:      0.148D-04-0.683D-05-0.307D-04-0.731D-04-0.273D-03 0.837D-03
 Coeff:     -0.175D-03-0.252D-02-0.150D-02 0.200D-01-0.196D-01-0.470D-01
 Coeff:     -0.243D-01 0.336D+00 0.738D+00
 Gap=     0.047 Goal=   None    Shift=    0.000
 Gap=     0.033 Goal=   None    Shift=    0.000
 RMSDP=5.06D-09 MaxDP=6.61D-07 DE= 1.82D-12 OVMax= 4.40D-08

 SCF Done:  E(UB3LYP) =  -1136.11945822     A.U. after   25 cycles
            NFock= 25  Conv=0.51D-08     -V/T= 2.0027
 <Sx>= 0.0000 <Sy>= 0.0000 <Sz>= 0.5000 <S**2>= 0.7789 S= 0.5143
 <L.S>= 0.000000000000E+00
 KE= 1.133018628302D+03 PE=-3.421045148874D+03 EE= 8.061012445472D+02
 Annihilation of the first spin contaminant:
 S**2 before annihilation     0.7789,   after     0.7505
 Leave Link  502 at Tue Dec  5 20:15:42 2023, MaxMem=  1879048192 cpu:             226.1 elap:              20.5
 (Enter /home/sekinelabo/g16/l601.exe)
 Copying SCF densities to generalized density rwf, IOpCl= 1 IROHF=0.

 **********************************************************************

            Population analysis using the SCF Density.

 **********************************************************************

 Orbital symmetries:
 Alpha Orbitals:
       Occupied  (A) (A) (A) (A) (A) (A) (A) (A) (A) (A) (A) (A)
                 (A) (A) (A) (A) (A) (A) (A) (A) (A) (A) (A) (A)
                 (A) (A) (A) (A) (A) (A) (A) (A) (A) (A) (A) (A)
                 (A) (A) (A)
       Virtual   (A) (A) (A) (A) (A) (A) (A) (A) (A) (A) (A) (A)
                 (A) (A) (A) (A) (A) (A) (A) (A) (A) (A) (A) (A)
                 (A) (A) (A) (A) (A) (A) (A) (A) (A) (A) (A) (A)
                 (A) (A) (A) (A) (A) (A) (A) (A) (A) (A) (A) (A)
                 (A) (A) (A) (A) (A) (A) (A) (A) (A) (A) (A) (A)
                 (A) (A) (A) (A) (A) (A) (A) (A) (A) (A) (A) (A)
                 (A) (A) (A) (A) (A) (A) (A) (A) (A) (A) (A) (A)
                 (A) (A) (A) (A) (A) (A) (A) (A) (A) (A) (A) (A)
                 (A) (A) (A) (A) (A) (A) (A) (A) (A) (A) (A) (A)
                 (A) (A) (A) (A) (A) (A) (A) (A) (A) (A) (A) (A)
                 (A) (A) (A) (A) (A) (A) (A) (A) (A) (A) (A) (A)
                 (A) (A) (A) (A) (A) (A) (A) (A) (A) (A) (A) (A)
                 (A) (A) (A) (A) (A) (A) (A) (A) (A) (A) (A) (A)
                 (A) (A) (A) (A) (A) (A) (A) (A) (A) (A) (A) (A)
                 (A) (A) (A)
 Beta  Orbitals:
       Occupied  (A) (A) (A) (A) (A) (A) (A) (A) (A) (A) (A) (A)
                 (A) (A) (A) (A) (A) (A) (A) (A) (A) (A) (A) (A)
                 (A) (A) (A) (A) (A) (A) (A) (A) (A) (A) (A) (A)
                 (A) (A)
       Virtual   (A) (A) (A) (A) (A) (A) (A) (A) (A) (A) (A) (A)
                 (A) (A) (A) (A) (A) (A) (A) (A) (A) (A) (A) (A)
                 (A) (A) (A) (A) (A) (A) (A) (A) (A) (A) (A) (A)
                 (A) (A) (A) (A) (A) (A) (A) (A) (A) (A) (A) (A)
                 (A) (A) (A) (A) (A) (A) (A) (A) (A) (A) (A) (A)
                 (A) (A) (A) (A) (A) (A) (A) (A) (A) (A) (A) (A)
                 (A) (A) (A) (A) (A) (A) (A) (A) (A) (A) (A) (A)
                 (A) (A) (A) (A) (A) (A) (A) (A) (A) (A) (A) (A)
                 (A) (A) (A) (A) (A) (A) (A) (A) (A) (A) (A) (A)
                 (A) (A) (A) (A) (A) (A) (A) (A) (A) (A) (A) (A)
                 (A) (A) (A) (A) (A) (A) (A) (A) (A) (A) (A) (A)
                 (A) (A) (A) (A) (A) (A) (A) (A) (A) (A) (A) (A)
                 (A) (A) (A) (A) (A) (A) (A) (A) (A) (A) (A) (A)
                 (A) (A) (A) (A) (A) (A) (A) (A) (A) (A) (A) (A)
                 (A) (A) (A) (A)
 The electronic state is 2-A.
 Alpha  occ. eigenvalues --  -38.45178 -38.44232 -38.44185 -38.44067 -38.43146
 Alpha  occ. eigenvalues --  -38.43003 -38.42681  -2.20971  -2.20080  -2.20077
 Alpha  occ. eigenvalues --   -2.20025  -2.19097  -2.19008  -2.18619  -1.14639
 Alpha  occ. eigenvalues --   -1.14612  -1.14595  -1.13769  -1.13764  -1.13751
 Alpha  occ. eigenvalues --   -1.13726  -1.13724  -1.13700  -1.13695  -1.13657
 Alpha  occ. eigenvalues --   -1.13626  -1.12994  -1.12740  -1.12723  -1.12670
 Alpha  occ. eigenvalues --   -1.12654  -1.12530  -1.12340  -1.12287  -1.12215
 Alpha  occ. eigenvalues --   -0.18972  -0.14210  -0.11349  -0.11161
 Alpha virt. eigenvalues --   -0.06434  -0.05439  -0.04426  -0.03197  -0.02601
 Alpha virt. eigenvalues --   -0.02243  -0.02184  -0.01126  -0.00597   0.00069
 Alpha virt. eigenvalues --    0.00199   0.00343   0.00489   0.00571   0.00710
 Alpha virt. eigenvalues --    0.00777   0.00892   0.00964   0.01154   0.01429
 Alpha virt. eigenvalues --    0.01475   0.01730   0.01839   0.01914   0.01983
 Alpha virt. eigenvalues --    0.02341   0.02464   0.02600   0.02629   0.02688
 Alpha virt. eigenvalues --    0.02720   0.02809   0.02875   0.02940   0.02960
 Alpha virt. eigenvalues --    0.03153   0.03175   0.03482   0.03683   0.04021
 Alpha virt. eigenvalues --    0.04138   0.04291   0.04605   0.04768   0.04856
 Alpha virt. eigenvalues --    0.05050   0.05302   0.05478   0.05566   0.05749
 Alpha virt. eigenvalues --    0.06084   0.06528   0.06630   0.07116   0.07313
 Alpha virt. eigenvalues --    0.07437   0.07602   0.08005   0.08261   0.08676
 Alpha virt. eigenvalues --    0.09544   0.10263   0.10953   0.11293   0.11415
 Alpha virt. eigenvalues --    0.11893   0.12003   0.12771   0.13034   0.13291
 Alpha virt. eigenvalues --    0.13547   0.13585   0.13753   0.14005   0.14701
 Alpha virt. eigenvalues --    0.15008   0.15650   0.16304   0.16516   0.19561
 Alpha virt. eigenvalues --    0.24224   0.26446   0.26896   0.28240   0.28665
 Alpha virt. eigenvalues --    0.29871   0.31004   0.32218   0.32833   0.33275
 Alpha virt. eigenvalues --    0.35112   0.35380   0.36274   0.36828   0.38127
 Alpha virt. eigenvalues --    0.39342   0.39668   0.40128   0.41078   0.41864
 Alpha virt. eigenvalues --    0.42376   0.43310   0.43988   0.44131   0.44665
 Alpha virt. eigenvalues --    0.45098   0.45184   0.45668   0.45937   0.46173
 Alpha virt. eigenvalues --    0.46922   0.47319   0.48389   0.48868   0.49151
 Alpha virt. eigenvalues --    0.49297   0.49813   0.51247   0.52117   0.52793
 Alpha virt. eigenvalues --    0.54019   0.54923   0.55040   0.56476   0.57173
 Alpha virt. eigenvalues --    0.57681   0.60065   0.61014   0.61815   0.62055
 Alpha virt. eigenvalues --    0.62833   0.64080   0.67482   0.68414   0.70502
 Alpha virt. eigenvalues --    0.84247   2.04524   2.12235   2.16303   2.21668
 Alpha virt. eigenvalues --    2.23127   2.26319   2.28031   4.42164   4.43187
 Alpha virt. eigenvalues --    4.43426   4.43796   4.44579   4.44827   4.45161
 Alpha virt. eigenvalues --    4.45871   4.47064   4.47908   4.48942   4.49628
 Alpha virt. eigenvalues --    4.49921   4.54183   4.54280   4.56183   4.57162
 Alpha virt. eigenvalues --    4.59175   4.63084   4.63347   4.77645  96.24145
 Alpha virt. eigenvalues --   96.33389  96.38489  96.45684  96.47114  96.51550
 Alpha virt. eigenvalues --   96.53454
  Beta  occ. eigenvalues --  -38.45134 -38.44196 -38.44150 -38.44027 -38.43145
  Beta  occ. eigenvalues --  -38.42986 -38.42664  -2.20889  -2.20014  -2.20012
  Beta  occ. eigenvalues --   -2.19952  -2.19097  -2.18984  -2.18592  -1.14580
  Beta  occ. eigenvalues --   -1.14551  -1.14540  -1.13725  -1.13716  -1.13694
  Beta  occ. eigenvalues --   -1.13679  -1.13675  -1.13660  -1.13654  -1.13601
  Beta  occ. eigenvalues --   -1.13566  -1.12988  -1.12731  -1.12712  -1.12662
  Beta  occ. eigenvalues --   -1.12601  -1.12521  -1.12329  -1.12231  -1.12197
  Beta  occ. eigenvalues --   -0.18316  -0.13943  -0.10911
  Beta virt. eigenvalues --   -0.07593  -0.06156  -0.04880  -0.04214  -0.02979
  Beta virt. eigenvalues --   -0.02175  -0.01886  -0.01606  -0.00603  -0.00516
  Beta virt. eigenvalues --    0.00230   0.00268   0.00445   0.00548   0.00633
  Beta virt. eigenvalues --    0.00829   0.00880   0.00913   0.00999   0.01193
  Beta virt. eigenvalues --    0.01525   0.01603   0.01840   0.01909   0.01998
  Beta virt. eigenvalues --    0.02024   0.02405   0.02524   0.02635   0.02723
  Beta virt. eigenvalues --    0.02746   0.02770   0.02826   0.02899   0.02936
  Beta virt. eigenvalues --    0.02987   0.03214   0.03222   0.03548   0.03754
  Beta virt. eigenvalues --    0.04205   0.04231   0.04367   0.04706   0.04945
  Beta virt. eigenvalues --    0.04963   0.05171   0.05389   0.05543   0.05683
  Beta virt. eigenvalues --    0.05829   0.06233   0.06584   0.06729   0.07191
  Beta virt. eigenvalues --    0.07399   0.07504   0.07729   0.08189   0.08352
  Beta virt. eigenvalues --    0.08910   0.09621   0.10550   0.11131   0.11569
  Beta virt. eigenvalues --    0.11765   0.12078   0.12283   0.13008   0.13206
  Beta virt. eigenvalues --    0.13449   0.13711   0.13854   0.13931   0.14198
  Beta virt. eigenvalues --    0.14904   0.15177   0.15801   0.16536   0.16656
  Beta virt. eigenvalues --    0.19653   0.24443   0.26784   0.27010   0.28485
  Beta virt. eigenvalues --    0.28974   0.30117   0.31121   0.32477   0.33214
  Beta virt. eigenvalues --    0.33474   0.35360   0.35686   0.36602   0.37026
  Beta virt. eigenvalues --    0.38469   0.39554   0.40045   0.40483   0.41403
  Beta virt. eigenvalues --    0.42203   0.42688   0.43488   0.44157   0.44260
  Beta virt. eigenvalues --    0.44808   0.45271   0.45321   0.45778   0.46099
  Beta virt. eigenvalues --    0.46273   0.47055   0.47408   0.48591   0.49079
  Beta virt. eigenvalues --    0.49279   0.49412   0.49961   0.51438   0.52313
  Beta virt. eigenvalues --    0.52959   0.54108   0.54968   0.55166   0.56608
  Beta virt. eigenvalues --    0.57306   0.57863   0.60165   0.61083   0.61845
  Beta virt. eigenvalues --    0.62241   0.62911   0.64180   0.67636   0.68511
  Beta virt. eigenvalues --    0.70615   0.84224   2.04658   2.12383   2.16459
  Beta virt. eigenvalues --    2.21715   2.23244   2.26399   2.28087   4.42220
  Beta virt. eigenvalues --    4.43225   4.43481   4.43833   4.44651   4.44873
  Beta virt. eigenvalues --    4.45223   4.45928   4.47122   4.47960   4.48975
  Beta virt. eigenvalues --    4.49665   4.49978   4.54234   4.54318   4.56204
  Beta virt. eigenvalues --    4.57194   4.59217   4.63128   4.63369   4.77656
  Beta virt. eigenvalues --   96.24188  96.33439  96.38541  96.45705  96.47147
  Beta virt. eigenvalues --   96.51581  96.53474
          Condensed to atoms (all electrons):
               1          2          3          4          5          6
     1  Na  16.888155  -3.696606  -2.446024  -1.564374   0.260735   0.907670
     2  Na  -3.696606  14.640599  -0.967432   0.914420  -0.800496  -0.568204
     3  Na  -2.446024  -0.967432  16.683189  -0.057602   0.651719  -0.605128
     4  Na  -1.564374   0.914420  -0.057602  13.867621  -2.138498  -0.549806
     5  Na   0.260735  -0.800496   0.651719  -2.138498  13.111952   0.391072
     6  Na   0.907670  -0.568204  -0.605128  -0.549806   0.391072  11.280660
     7  Na  -0.135442   0.274983  -0.520308   0.665801  -0.444126   0.193757
               7
     1  Na  -0.135442
     2  Na   0.274983
     3  Na  -0.520308
     4  Na   0.665801
     5  Na  -0.444126
     6  Na   0.193757
     7  Na  10.995604
          Atomic-Atomic Spin Densities.
               1          2          3          4          5          6
     1  Na   0.216808  -0.421030  -0.103707  -0.340754   0.642214  -0.017741
     2  Na  -0.421030   1.005433  -0.684296   0.441304  -0.725395  -0.073857
     3  Na  -0.103707  -0.684296   1.567980  -0.181552   0.426593  -0.044608
     4  Na  -0.340754   0.441304  -0.181552   2.217350  -1.974171  -0.349193
     5  Na   0.642214  -0.725395   0.426593  -1.974171   1.876673   0.478316
     6  Na  -0.017741  -0.073857  -0.044608  -0.349193   0.478316   0.053878
     7  Na  -0.212828   0.313542  -0.527647   0.533041  -0.373590  -0.013364
               7
     1  Na  -0.212828
     2  Na   0.313542
     3  Na  -0.527647
     4  Na   0.533041
     5  Na  -0.373590
     6  Na  -0.013364
     7  Na   0.479329
 Mulliken charges and spin densities:
               1          2
     1  Na   0.785886  -0.237039
     2  Na   1.202737  -0.144299
     3  Na  -1.738413   0.452761
     4  Na  -0.137563   0.346024
     5  Na  -0.032357   0.350640
     6  Na  -0.050020   0.033432
     7  Na  -0.030269   0.198482
 Sum of Mulliken charges =  -0.00000   1.00000
 Mulliken charges and spin densities with hydrogens summed into heavy atoms:
               1          2
     1  Na   0.785886  -0.237039
     2  Na   1.202737  -0.144299
     3  Na  -1.738413   0.452761
     4  Na  -0.137563   0.346024
     5  Na  -0.032357   0.350640
     6  Na  -0.050020   0.033432
     7  Na  -0.030269   0.198482
 Electronic spatial extent (au):  <R**2>=           2312.4815
 Charge=             -0.0000 electrons
 Dipole moment (field-independent basis, Debye):
    X=             -0.6457    Y=             -0.4813    Z=              0.0018  Tot=              0.8053
 Quadrupole moment (field-independent basis, Debye-Ang):
   XX=            -48.5254   YY=            -77.3504   ZZ=            -67.4073
   XY=              0.3767   XZ=              1.9543   YZ=              6.0547
 Traceless Quadrupole moment (field-independent basis, Debye-Ang):
   XX=             15.9023   YY=            -12.9227   ZZ=             -2.9796
   XY=              0.3767   XZ=              1.9543   YZ=              6.0547
 Octapole moment (field-independent basis, Debye-Ang**2):
  XXX=            -12.1498  YYY=             -0.8743  ZZZ=              2.2047  XYY=             -6.9520
  XXY=             -0.2622  XXZ=              3.5530  XZZ=             -4.3932  YZZ=             -7.7525
  YYZ=             -3.6668  XYZ=             -7.1729
 Hexadecapole moment (field-independent basis, Debye-Ang**3):
 XXXX=          -1787.6025 YYYY=          -1162.0626 ZZZZ=           -949.5164 XXXY=             15.7576
 XXXZ=             71.1967 YYYX=             -2.9083 YYYZ=             41.7951 ZZZX=             23.4953
 ZZZY=             45.2915 XXYY=           -493.7847 XXZZ=           -406.6861 YYZZ=           -333.9345
 XXYZ=             51.6179 YYXZ=            -30.6407 ZZXY=             -4.6510
 N-N= 3.458058178029D+02 E-N=-3.421045148711D+03  KE= 1.133018628302D+03
                          Isotropic Fermi Contact Couplings
        Atom                 a.u.       MegaHertz       Gauss      10(-4) cm-1
     1  Na(23)            -0.01991     -23.55877      -8.40636      -7.85836
     2  Na(23)             0.14390     170.24243      60.74673      56.78676
     3  Na(23)             0.00740       8.75347       3.12346       2.91984
     4  Na(23)             0.14169     167.62874      59.81410      55.91493
     5  Na(23)             0.01533      18.13921       6.47252       6.05059
     6  Na(23)             0.14531     171.90248      61.33908      57.34049
     7  Na(23)             0.17660     208.91785      74.54708      69.68749
 --------------------------------------------------------
       Center         ----  Spin Dipole Couplings  ----
                      3XX-RR        3YY-RR        3ZZ-RR
 --------------------------------------------------------
     1   Atom       -0.003451     -0.006497      0.009948
     2   Atom        0.009383     -0.005827     -0.003556
     3   Atom       -0.025355     -0.020694      0.046049
     4   Atom        0.004434     -0.004218     -0.000216
     5   Atom       -0.017008      0.000018      0.016989
     6   Atom        0.005635     -0.008028      0.002393
     7   Atom        0.005810     -0.002741     -0.003068
 --------------------------------------------------------
                        XY            XZ            YZ
 --------------------------------------------------------
     1   Atom        0.008531      0.009628      0.010618
     2   Atom        0.003013      0.008480     -0.001536
     3   Atom       -0.011283     -0.017494      0.026683
     4   Atom        0.001285      0.012062     -0.007007
     5   Atom        0.011419      0.018554      0.027645
     6   Atom       -0.007238     -0.011741     -0.000631
     7   Atom       -0.005773     -0.009107      0.002880
 --------------------------------------------------------


 ---------------------------------------------------------------------------------
              Anisotropic Spin Dipole Couplings in Principal Axis System
 ---------------------------------------------------------------------------------

       Atom             a.u.   MegaHertz   Gauss  10(-4) cm-1        Axes

              Baa    -0.0139    -1.970    -0.703    -0.657 -0.5341  0.8312 -0.1542
     1 Na(23) Bbb    -0.0075    -1.056    -0.377    -0.352  0.7152  0.3471 -0.6067
              Bcc     0.0214     3.026     1.080     1.009  0.4508  0.4343  0.7799
 
              Baa    -0.0097    -1.374    -0.490    -0.458 -0.4037  0.5879  0.7010
     2 Na(23) Bbb    -0.0041    -0.574    -0.205    -0.191  0.1794  0.8022 -0.5694
              Bcc     0.0138     1.947     0.695     0.650  0.8971  0.1042  0.4293
 
              Baa    -0.0348    -4.919    -1.755    -1.641  0.6929  0.7158 -0.0863
     3 Na(23) Bbb    -0.0254    -3.583    -1.279    -1.195  0.6830 -0.6134  0.3965
              Bcc     0.0602     8.502     3.034     2.836 -0.2309  0.3336  0.9140
 
              Baa    -0.0142    -2.007    -0.716    -0.670 -0.4819  0.5436  0.6872
     4 Na(23) Bbb    -0.0009    -0.121    -0.043    -0.040  0.4907  0.8172 -0.3023
              Bcc     0.0151     2.128     0.759     0.710  0.7259 -0.1916  0.6606
 
              Baa    -0.0252    -3.564    -1.272    -1.189  0.8886  0.0905 -0.4497
     5 Na(23) Bbb    -0.0198    -2.795    -0.997    -0.932 -0.3181  0.8280 -0.4619
              Bcc     0.0450     6.358     2.269     2.121  0.3305  0.5534  0.7645
 
              Baa    -0.0136    -1.923    -0.686    -0.642  0.5320  0.7357  0.4191
     6 Na(23) Bbb    -0.0033    -0.467    -0.167    -0.156  0.3617 -0.6450  0.6732
              Bcc     0.0169     2.391     0.853     0.798  0.7656 -0.2066 -0.6093
 
              Baa    -0.0089    -1.250    -0.446    -0.417  0.5634  0.1493  0.8126
     7 Na(23) Bbb    -0.0051    -0.723    -0.258    -0.241  0.2191  0.9213 -0.3212
              Bcc     0.0140     1.973     0.704     0.658  0.7966 -0.3590 -0.4864
 

 ---------------------------------------------------------------------------------

 No NMR shielding tensors so no spin-rotation constants.
 Leave Link  601 at Tue Dec  5 20:15:43 2023, MaxMem=  1879048192 cpu:               2.3 elap:               0.2
 (Enter /home/sekinelabo/g16/l701.exe)
 ... and contract with generalized density number  0.
 Compute integral first derivatives.
 Leave Link  701 at Tue Dec  5 20:15:43 2023, MaxMem=  1879048192 cpu:               1.5 elap:               0.1
 (Enter /home/sekinelabo/g16/l702.exe)
 L702 exits ... SP integral derivatives will be done elsewhere.
 Leave Link  702 at Tue Dec  5 20:15:43 2023, MaxMem=  1879048192 cpu:               0.4 elap:               0.0
 (Enter /home/sekinelabo/g16/l703.exe)
 Integral derivatives from FoFJK, PRISM(SPDF).
 Compute integral first derivatives, UseDBF=F ICtDFT=           0.
 Calling FoFJK, ICntrl=      2127 FMM=F ISym2X=0 I1Cent= 0 IOpClX= 1 NMat=1 NMatS=1 NMatT=0.
 FoFJK:  IHMeth= 1 ICntrl=    2127 DoSepK=F KAlg= 0 I1Cent=           0 FoldK=F
 IRaf=         0 NMat=       1 IRICut=       1 DoRegI=T DoRafI=F ISym2E= 0 IDoP0=0 IntGTp=1.
 FoFCou: FMM=F IPFlag=           0 FMFlag=      100000 FMFlg1=         800
         NFxFlg=           0 DoJE=F BraDBF=F KetDBF=F FulRan=T
         wScrn=  0.000000 ICntrl=      2127 IOpCl=  1 I1Cent=           0 NGrid=           0
         NMat0=    1 NMatS0=      1 NMatT0=    0 NMatD0=    1 NMtDS0=    0 NMtDT0=    0
 Symmetry not used in FoFCou.
 Leave Link  703 at Tue Dec  5 20:15:45 2023, MaxMem=  1879048192 cpu:              33.6 elap:               2.3
 (Enter /home/sekinelabo/g16/l716.exe)
 Dipole        =-2.54034545D-01-1.89365035D-01 7.08353168D-04
 ***** Axes restored to original set *****
 -------------------------------------------------------------------
 Center     Atomic                   Forces (Hartrees/Bohr)
 Number     Number              X              Y              Z
 -------------------------------------------------------------------
      1       11          -0.007287497    0.003348483   -0.010205973
      2       11           0.001220039    0.000229542    0.000833838
      3       11           0.006066808    0.006167935    0.002454985
      4       11          -0.003290347   -0.001040229    0.005745529
      5       11           0.003285569   -0.003425209    0.005176591
      6       11           0.001113641   -0.002522298    0.000524002
      7       11          -0.001108213   -0.002758225   -0.004528972
 -------------------------------------------------------------------
 Cartesian Forces:  Max     0.010205973 RMS     0.004270958
 Z-matrix is all fixed cartesians, so copy forces.
 Force constants in Cartesian coordinates: 
                1             2             3             4             5 
      1  0.765058D-01
      2  0.197534D-02  0.822947D-01
      3  0.702267D-02 -0.286446D-01  0.109231D+00
      4  0.817182D-02  0.481603D-02 -0.115850D-01  0.712190D-01
      5  0.495112D-02  0.191023D-01 -0.125910D-01  0.152026D-01  0.559670D-01
      6 -0.139967D-01 -0.940889D-02  0.201614D-01 -0.982631D-02 -0.125944D-01
      7 -0.666451D-01 -0.288754D-01  0.221217D-01 -0.446895D-01  0.507033D-02
      8 -0.866616D-02 -0.752235D-01  0.392927D-01 -0.188947D-01 -0.617845D-01
      9  0.220884D-02  0.747078D-02 -0.786429D-01  0.247298D-01  0.328387D-01
     10 -0.147554D-01  0.666544D-02 -0.824126D-02 -0.374278D-02 -0.273472D-02
     11 -0.455627D-02 -0.912464D-02  0.115308D-01 -0.330529D-02  0.788172D-02
     12  0.211830D-01  0.587752D-02 -0.351994D-01 -0.200797D-02 -0.225924D-02
     13  0.376773D-02  0.357382D-02 -0.627773D-02 -0.122248D-01 -0.199054D-01
     14  0.416438D-02  0.548263D-02  0.484538D-02  0.944247D-02 -0.206303D-01
     15 -0.822644D-02  0.623382D-02 -0.682872D-03 -0.144896D-02  0.167881D-02
     16 -0.114899D-01  0.120671D-01  0.228027D-02  0.163144D-04 -0.626424D-02
     17  0.240522D-02 -0.261491D-01 -0.135261D-01 -0.109864D-02  0.225036D-02
     18 -0.821965D-02  0.186070D-01 -0.148612D-01  0.103649D-02 -0.122698D-02
     19  0.444503D-02 -0.222339D-03 -0.532059D-02 -0.187500D-01  0.368025D-02
     20 -0.273628D-03  0.361769D-02 -0.907270D-03 -0.616247D-02 -0.278652D-02
     21  0.283378D-04 -0.135633D-03 -0.643830D-05 -0.898082D-03 -0.584589D-02
                6             7             8             9            10 
      6  0.587634D-01
      7  0.651531D-03  0.182339D+00
      8  0.213551D-01  0.370517D-01  0.238902D+00
      9 -0.621049D-01 -0.298424D-01 -0.679903D-01  0.220095D+00
     10  0.328748D-02 -0.275316D-01  0.796960D-02  0.606424D-02  0.990186D-01
     11 -0.345231D-02 -0.208831D-01 -0.260351D-01  0.177796D-01 -0.450586D-02
     12  0.449732D-02  0.483663D-02 -0.155018D-02 -0.244123D-01 -0.217847D-01
     13  0.357289D-02 -0.213930D-01 -0.674940D-02  0.108732D-02 -0.352261D-01
     14  0.598295D-02  0.709325D-02 -0.359483D-01  0.467000D-02 -0.191896D-02
     15 -0.115749D-01 -0.849999D-02  0.765386D-02 -0.276158D-01  0.156158D-01
     16 -0.313904D-02 -0.849882D-02 -0.857514D-02 -0.553905D-02 -0.160506D-01
     17 -0.424241D-02  0.404947D-02 -0.235702D-01 -0.118715D-01 -0.469064D-02
     18  0.190416D-02  0.319111D-02  0.732304D-02 -0.799109D-02  0.545150D-02
     19  0.194502D-01 -0.135811D-01 -0.213591D-02  0.129126D-02 -0.171208D-02
     20  0.235999D-02 -0.350630D-02 -0.163405D-01  0.171027D-01 -0.784862D-03
     21 -0.116466D-01  0.754152D-02 -0.608423D-02 -0.193284D-01 -0.393045D-03
               11            12            13            14            15 
     11  0.682298D-01
     12 -0.263523D-02  0.944366D-01
     13  0.188307D-01 -0.119762D-01  0.978627D-01
     14 -0.252062D-01  0.503585D-02 -0.183696D-01  0.129792D+00
     15 -0.186390D-02 -0.171526D-01  0.155139D-01 -0.146892D-01  0.104027D+00
     16  0.198631D-01  0.176834D-01 -0.198026D-01 -0.636423D-02 -0.141019D-01
     17 -0.157483D-01 -0.145530D-02  0.131638D-01 -0.314807D-01  0.176778D-01
     18 -0.195191D-01 -0.211408D-01 -0.761657D-03 -0.170758D-01 -0.344675D-01
     19 -0.544328D-02 -0.793418D-02 -0.129839D-01  0.595271D-02  0.114763D-02
     20  0.274464D-05 -0.301343D-02  0.945601D-02 -0.220095D-01 -0.166912D-01
     21 -0.183981D-02 -0.102886D-02 -0.115852D-02  0.112309D-01 -0.125330D-01
               16            17            18            19            20 
     16  0.522604D-01
     17 -0.107145D-01  0.910764D-01
     18  0.920540D-03  0.173916D-01  0.760871D-01
     19  0.356523D-02 -0.311476D-02 -0.161833D-02  0.390169D-01
     20 -0.120742D-04  0.362154D-02 -0.549968D-02  0.128333D-02  0.338946D-01
     21  0.189576D-02 -0.397416D-02  0.469280D-03 -0.701597D-02  0.664887D-02
               21 
     21  0.440741D-01
 Leave Link  716 at Tue Dec  5 20:15:45 2023, MaxMem=  1879048192 cpu:               0.4 elap:               0.0
 (Enter /home/sekinelabo/g16/l103.exe)

 GradGradGradGradGradGradGradGradGradGradGradGradGradGradGradGradGradGrad
 Berny optimization.
 Search for a local minimum.
 Step number   1 out of a maximum of    2
 All quantities printed in internal units (Hartrees-Bohrs-Radians)
 Second derivative matrix not updated -- first step.
 ITU=  0
     Eigenvalues ---    0.03772   0.04411   0.05692   0.06837   0.07280
     Eigenvalues ---    0.08543   0.10499   0.11858   0.12742   0.14044
     Eigenvalues ---    0.15088   0.17748   0.20661   0.21715   0.40378
 Angle between quadratic step and forces=  20.66 degrees.
 Linear search not attempted -- first point.
 B after Tr=     0.000000    0.000000   -0.000000
         Rot=    1.000000   -0.000000    0.000000    0.000000 Ang=   0.00 deg.
 Variable       Old X    -DE/DX   Delta X   Delta X   Delta X     New X
                                 (Linear)    (Quad)   (Total)
    X1       21.87868  -0.00729   0.00000  -0.06886  -0.06886  21.80983
    Y1       26.44785   0.00335   0.00000   0.04255   0.04255  26.49040
    Z1       20.37219  -0.01021   0.00000  -0.08073  -0.08073  20.29146
    X2       31.01475   0.00122   0.00000   0.03878   0.03878  31.05353
    Y2       27.81053   0.00023   0.00000   0.01083   0.01083  27.82136
    Z2       26.76570   0.00083   0.00000   0.03318   0.03318  26.79888
    X3       25.88944   0.00607   0.00000   0.02986   0.02986  25.91929
    Y3       27.59265   0.00617   0.00000   0.04133   0.04133  27.63398
    Z3       23.68280   0.00245   0.00000   0.01021   0.01021  23.69301
    X4       21.10956  -0.00329   0.00000  -0.03440  -0.03440  21.07516
    Y4       24.19964  -0.00104   0.00000  -0.00211  -0.00211  24.19753
    Z4       25.91211   0.00575   0.00000   0.04763   0.04763  25.95974
    X5       26.71789   0.00329   0.00000   0.03591   0.03591  26.75380
    Y5       22.24359  -0.00343   0.00000  -0.01630  -0.01630  22.22729
    Z5       27.04463   0.00518   0.00000   0.04866   0.04866  27.09329
    X6       24.19889   0.00111   0.00000   0.00938   0.00938  24.20827
    Y6       20.58894  -0.00252   0.00000  -0.03691  -0.03691  20.55204
    Z6       21.75377   0.00052   0.00000   0.00765   0.00765  21.76142
    X7       25.88774  -0.00111   0.00000  -0.01066  -0.01066  25.87707
    Y7       27.81374  -0.00276   0.00000  -0.03939  -0.03939  27.77435
    Z7       31.16593  -0.00453   0.00000  -0.06660  -0.06660  31.09933
         Item               Value     Threshold  Converged?
 Maximum Force            0.010206     0.000450     NO 
 RMS     Force            0.004271     0.000300     NO 
 Maximum Displacement     0.080728     0.001800     NO 
 RMS     Displacement     0.039930     0.001200     NO 
 Predicted change in Energy=-1.675574D-03
 GradGradGradGradGradGradGradGradGradGradGradGradGradGradGradGradGradGrad

 Leave Link  103 at Tue Dec  5 20:15:45 2023, MaxMem=  1879048192 cpu:               0.2 elap:               0.0
 (Enter /home/sekinelabo/g16/l9999.exe)
 1\1\GINC-SEKINELABO-XA7R-R37\Force\UB3LYP\6-311+G(d)\Na7(2)\SEKINELABO
 \05-Dec-2023\0\\#P B3LYP/6-311+g(d) force\\DPGEN\\0,2\Na,11.5777,13.99
 56,10.7805\Na,16.4123,14.7167,14.1638\Na,13.7001,14.6014,12.5324\Na,11
 .1707,12.8059,13.7121\Na,14.1385,11.7708,14.3114\Na,12.8055,10.8952,11
 .5116\Na,13.6992,14.7184,16.4923\\Version=ES64L-G16RevB.01\State=2-A\H
 F=-1136.1194582\S2=0.778897\S2-1=0.\S2A=0.750458\RMSD=5.058e-09\RMSF=4
 .271e-03\Dipole=0.0814985,-0.0268604,0.3050077\Quadrupole=2.662632,-6.
 5618958,3.8992638,2.5471484,4.557922,9.0007598\PG=C01 [X(Na7)]\\@


 ERROR IS THE FORCE THAT WELDS MEN TOGETHER....
 TRUTH IS COMMUNICATED TO MEN ONLY BY DEEDS OF TRUTH.
           TOLSTOI,MY RELIGION
 Job cpu time:       0 days  0 hours  4 minutes 35.6 seconds.
 Elapsed time:       0 days  0 hours  0 minutes 23.8 seconds.
 File lengths (MBytes):  RWF=     32 Int=      0 D2E=      0 Chk=      4 Scr=      1
 Normal termination of Gaussian 16 at Tue Dec  5 20:15:45 2023.
