ITEM: TIMESTEP
10840
ITEM: NUMBER OF ATOMS
7
ITEM: BOX BOUNDS xy xz yz ff ff ff
0.0000000000000000e+00 3.0693000068800000e+01 0.0000000000000000e+00
0.0000000000000000e+00 3.0693000068800000e+01 0.0000000000000000e+00
0.0000000000000000e+00 3.0693000068800000e+01 0.0000000000000000e+00
ITEM: ATOMS id type x y z fx fy fz
5 1 11.6984 13.597 13.4195 -0.0106131 0.0345954 0.0507501
4 1 14.8295 13.5664 14.3536 -0.0478528 -0.136223 -0.0516888
1 1 12.8094 16.1614 15.8699 0.0308937 -0.0658136 -0.106477
2 1 16.4478 16.5839 15.4328 0.0085514 0.0108799 0.148846
3 1 18.1442 12.9757 15.4067 -0.0361027 0.133536 0.0112196
7 1 14.0913 19.073 15.9854 0.0746983 0.0167774 -0.00103795
6 1 19.4048 15.468 16.9575 -0.0195748 0.00624803 -0.051612
