ITEM: TIMESTEP
12440
ITEM: NUMBER OF ATOMS
7
ITEM: BOX BOUNDS xy xz yz ff ff ff
0.0000000000000000e+00 3.0693000068800000e+01 0.0000000000000000e+00
0.0000000000000000e+00 3.0693000068800000e+01 0.0000000000000000e+00
0.0000000000000000e+00 3.0693000068800000e+01 0.0000000000000000e+00
ITEM: ATOMS id type x y z fx fy fz
5 1 13.2877 11.4263 14.7949 -0.0494243 0.0564959 0.0471027
3 1 15.7179 13.5962 14.5538 0.0213269 0.283474 0.0629201
6 1 16.1102 15.349 11.7115 0.027702 0.0203011 0.129669
2 1 17.1506 17.2729 14.7228 -0.0700246 -0.125356 0.0194205
4 1 12.523 14.2712 16.4256 0.105735 -0.0409125 -0.0323305
1 1 15.113 16.6687 17.4379 -0.0130796 -0.141638 -0.13604
7 1 17.5232 18.8411 17.779 -0.0222359 -0.0523643 -0.0907411
