ITEM: TIMESTEP
15310
ITEM: NUMBER OF ATOMS
7
ITEM: BOX BOUNDS xy xz yz ff ff ff
0.0000000000000000e+00 3.0693000068800000e+01 0.0000000000000000e+00
0.0000000000000000e+00 3.0693000068800000e+01 0.0000000000000000e+00
0.0000000000000000e+00 3.0693000068800000e+01 0.0000000000000000e+00
ITEM: ATOMS id type x y z fx fy fz
1 1 11.5187 15.6749 14.667 0.349707 -0.00133796 0.0406612
2 1 15.2826 14.5916 11.8685 0.00140164 0.191736 0.232206
7 1 18.2128 15.4911 13.6933 0.0554227 0.0354506 -0.348424
5 1 15.7783 16.4467 18.3867 0.0118094 -0.0394766 0.0338117
3 1 13.1081 14.2454 17.1138 -0.0825407 0.109157 -0.00768123
6 1 15.2231 16.3443 15.0675 -0.154599 -0.403169 -0.116265
4 1 18.302 14.6315 16.6288 -0.181201 0.10764 0.165691
