ITEM: TIMESTEP
16690
ITEM: NUMBER OF ATOMS
7
ITEM: BOX BOUNDS xy xz yz ff ff ff
0.0000000000000000e+00 3.0693000068800000e+01 0.0000000000000000e+00
0.0000000000000000e+00 3.0693000068800000e+01 0.0000000000000000e+00
0.0000000000000000e+00 3.0693000068800000e+01 0.0000000000000000e+00
ITEM: ATOMS id type x y z fx fy fz
2 1 12.8371 14.6368 14.2822 -0.176717 0.0440151 -0.0644298
7 1 15.451 13.0312 13.2851 0.131183 0.128997 0.146312
6 1 15.8136 16.6085 14.5412 0.0795648 -0.103816 -0.561309
3 1 15.0521 14.182 16.562 0.115421 -0.0694204 0.0176604
4 1 18.4964 14.365 14.9768 -0.293569 0.0789532 0.0960651
1 1 13.2401 17.3451 16.4295 0.00344479 -0.0975369 0.0786356
5 1 16.5352 17.2569 17.3487 0.140673 0.0188084 0.287066
