ITEM: TIMESTEP
17220
ITEM: NUMBER OF ATOMS
7
ITEM: BOX BOUNDS xy xz yz ff ff ff
0.0000000000000000e+00 3.0693000068800000e+01 0.0000000000000000e+00
0.0000000000000000e+00 3.0693000068800000e+01 0.0000000000000000e+00
0.0000000000000000e+00 3.0693000068800000e+01 0.0000000000000000e+00
ITEM: ATOMS id type x y z fx fy fz
2 1 12.03 14.8195 15.2329 0.417003 0.00606364 0.0154985
7 1 14.3021 12.9774 13.6357 0.0793821 0.190532 0.124045
4 1 18.2418 14.3503 14.7237 0.0716794 -0.161568 -0.164141
6 1 15.8194 16.6304 14.0813 -0.369189 -0.253248 -0.0983107
3 1 15.6275 14.318 16.5781 -0.328247 0.0728533 -0.140803
1 1 13.7837 17.2371 16.744 0.0668673 -0.0196636 -0.0361106
5 1 17.6211 17.0929 16.4298 0.0625041 0.165031 0.299822
