ITEM: TIMESTEP
1890
ITEM: NUMBER OF ATOMS
7
ITEM: BOX BOUNDS xy xz yz ff ff ff
0.0000000000000000e+00 3.0693000068800000e+01 0.0000000000000000e+00
0.0000000000000000e+00 3.0693000068800000e+01 0.0000000000000000e+00
0.0000000000000000e+00 3.0693000068800000e+01 0.0000000000000000e+00
ITEM: ATOMS id type x y z fx fy fz
2 1 16.1791 13.0574 11.6017 -0.0568937 -0.130153 -0.121965
1 1 14.749 13.5338 14.6011 0.082484 0.0190103 0.0496249
3 1 17.6484 15.2907 13.1135 0.0694338 0.182242 0.202807
7 1 10.7362 15.6143 19.0709 0.0919977 -0.00354672 -0.0897404
6 1 13.1951 15.765 16.4524 -0.0474313 0.0212666 0.162485
5 1 17.0329 15.6874 16.8875 -0.172966 0.0208665 -0.173649
4 1 17.8848 18.4769 15.6985 0.0333756 -0.109686 -0.0295621
