ITEM: TIMESTEP
21280
ITEM: NUMBER OF ATOMS
7
ITEM: BOX BOUNDS xy xz yz ff ff ff
0.0000000000000000e+00 3.0693000068800000e+01 0.0000000000000000e+00
0.0000000000000000e+00 3.0693000068800000e+01 0.0000000000000000e+00
0.0000000000000000e+00 3.0693000068800000e+01 0.0000000000000000e+00
ITEM: ATOMS id type x y z fx fy fz
7 1 15.2205 15.0263 14.1354 0.0880324 -0.046164 -0.0403269
4 1 18.2348 14.8171 12.2092 -0.154316 0.0710484 0.0939672
1 1 12.8245 17.9358 14.4081 0.128436 -0.0430766 0.00155998
5 1 12.8073 11.3441 17.8189 0.100895 0.0823265 -0.00362457
3 1 15.4459 13.5035 17.5883 -0.0972102 0.0296476 -0.044859
6 1 16.0815 17.0456 17.1612 -0.0466933 -0.0819149 0.0546921
2 1 16.811 17.7531 14.1045 -0.0191438 -0.011867 -0.0614087
