ITEM: TIMESTEP
21520
ITEM: NUMBER OF ATOMS
7
ITEM: BOX BOUNDS xy xz yz ff ff ff
0.0000000000000000e+00 3.0693000068800000e+01 0.0000000000000000e+00
0.0000000000000000e+00 3.0693000068800000e+01 0.0000000000000000e+00
0.0000000000000000e+00 3.0693000068800000e+01 0.0000000000000000e+00
ITEM: ATOMS id type x y z fx fy fz
7 1 14.6148 14.4576 15.0521 0.0298915 -0.0200636 0.0581051
4 1 15.2836 16.8745 11.3283 -0.0380843 -0.00392431 -0.0599009
1 1 14.2631 17.592 14.266 -0.0407573 0.0450088 -0.00047822
5 1 12.8684 11.27 19.1742 -0.0284706 -0.0373928 0.0253657
3 1 14.7995 13.6463 18.5112 0.0671578 0.0528589 -0.10214
6 1 17.7013 15.8481 15.8354 -0.0524074 -0.0629576 0.107909
2 1 17.8949 17.737 13.2583 0.0626703 0.0264705 -0.0288606
