ITEM: TIMESTEP
22670
ITEM: NUMBER OF ATOMS
7
ITEM: BOX BOUNDS xy xz yz ff ff ff
0.0000000000000000e+00 3.0693000068800000e+01 0.0000000000000000e+00
0.0000000000000000e+00 3.0693000068800000e+01 0.0000000000000000e+00
0.0000000000000000e+00 3.0693000068800000e+01 0.0000000000000000e+00
ITEM: ATOMS id type x y z fx fy fz
6 1 15.8111 13.6124 14.3035 -0.095531 0.130516 -0.00675686
1 1 14.6321 16.7373 12.5336 0.0144635 0.0775411 -0.0209614
2 1 14.622 13.7978 11.2237 0.0419844 -0.124681 0.0369504
4 1 14.8335 19.9938 14.1943 -0.00761718 -0.0616597 0.0158573
3 1 16.0368 12.3497 18.3618 0.0274312 0.0865701 0.0419783
7 1 14.8356 17.145 15.7686 0.0451212 -0.0435526 0.0379294
5 1 16.6544 13.7894 21.04 -0.025852 -0.064734 -0.104997
