ITEM: TIMESTEP
23960
ITEM: NUMBER OF ATOMS
7
ITEM: BOX BOUNDS xy xz yz ff ff ff
0.0000000000000000e+00 3.0693000068800000e+01 0.0000000000000000e+00
0.0000000000000000e+00 3.0693000068800000e+01 0.0000000000000000e+00
0.0000000000000000e+00 3.0693000068800000e+01 0.0000000000000000e+00
ITEM: ATOMS id type x y z fx fy fz
2 1 14.0237 17.8817 18.0719 0.0516012 0.00301121 -0.144763
1 1 14.5529 18.3716 14.7023 0.00718262 -0.0715567 0.0973993
7 1 13.2956 14.1965 14.0336 -0.0334859 0.0811426 -0.0511283
4 1 15.9515 15.9007 12.8056 -0.0969497 0.0568133 0.00643117
3 1 17.6425 13.0212 17.104 0.265205 -0.176517 0.283662
6 1 15.8137 15.4145 16.2706 -0.197444 0.314522 0.0444217
5 1 16.1456 12.6393 14.4375 0.0038905 -0.207416 -0.236022
