ITEM: TIMESTEP
24180
ITEM: NUMBER OF ATOMS
7
ITEM: BOX BOUNDS xy xz yz ff ff ff
0.0000000000000000e+00 3.0693000068800000e+01 0.0000000000000000e+00
0.0000000000000000e+00 3.0693000068800000e+01 0.0000000000000000e+00
0.0000000000000000e+00 3.0693000068800000e+01 0.0000000000000000e+00
ITEM: ATOMS id type x y z fx fy fz
7 1 12.5963 14.8592 14.1264 0.033697 -0.0466014 -0.0188144
5 1 15.6148 12.1884 15.5545 -0.130037 -0.135009 -0.0873185
1 1 14.2157 17.9466 14.6969 -0.0954834 0.150475 0.0031151
4 1 15.8694 15.5068 13.5022 0.0798137 -0.028253 -0.474691
3 1 18.1815 14.0111 15.2314 0.0935768 0.0652416 0.115671
2 1 16.0087 17.6489 17.8112 0.158967 0.296332 0.139232
6 1 14.939 15.2644 16.5029 -0.140535 -0.302184 0.322805
