ITEM: TIMESTEP
24360
ITEM: NUMBER OF ATOMS
7
ITEM: BOX BOUNDS xy xz yz ff ff ff
0.0000000000000000e+00 3.0693000068800000e+01 0.0000000000000000e+00
0.0000000000000000e+00 3.0693000068800000e+01 0.0000000000000000e+00
0.0000000000000000e+00 3.0693000068800000e+01 0.0000000000000000e+00
ITEM: ATOMS id type x y z fx fy fz
7 1 12.3473 14.6233 14.8405 0.201965 0.0472555 0.00154966
5 1 15.2398 12.4023 14.5588 -0.0630242 0.12647 0.176905
1 1 13.9007 18.0446 15.3222 -0.0242555 -0.135829 0.0743946
4 1 15.7149 15.6477 13.8923 -0.174741 -0.134613 -0.380694
3 1 18.0798 14.3067 16.0458 0.0316906 -0.291652 0.00193363
2 1 17.3071 17.3448 15.7954 0.062169 0.415349 0.213517
6 1 14.836 15.0561 16.9706 -0.0338043 -0.0269809 -0.0876049
