ITEM: TIMESTEP
25810
ITEM: NUMBER OF ATOMS
7
ITEM: BOX BOUNDS xy xz yz ff ff ff
0.0000000000000000e+00 3.0693000068800000e+01 0.0000000000000000e+00
0.0000000000000000e+00 3.0693000068800000e+01 0.0000000000000000e+00
0.0000000000000000e+00 3.0693000068800000e+01 0.0000000000000000e+00
ITEM: ATOMS id type x y z fx fy fz
5 1 14.5105 12.8275 16.7575 -0.00628157 0.0652281 -0.0585718
3 1 14.3138 13.2802 13.3822 0.124836 0.121364 0.147508
4 1 13.8718 16.0465 15.6271 -0.209806 -0.224692 -0.304644
2 1 16.0369 16.386 12.6549 -0.132995 -0.012853 -0.139024
7 1 15.4544 16.0664 18.2446 0.143945 -0.0780659 0.179218
6 1 16.9212 14.7413 15.2132 -0.117084 -0.120902 0.128415
1 1 16.3169 18.0776 15.546 0.197386 0.249922 0.0470981
