ITEM: TIMESTEP
4100
ITEM: NUMBER OF ATOMS
7
ITEM: BOX BOUNDS xy xz yz ff ff ff
0.0000000000000000e+00 3.0693000068800000e+01 0.0000000000000000e+00
0.0000000000000000e+00 3.0693000068800000e+01 0.0000000000000000e+00
0.0000000000000000e+00 3.0693000068800000e+01 0.0000000000000000e+00
ITEM: ATOMS id type x y z fx fy fz
2 1 12.7393 13.2945 11.662 0.0937493 -0.109564 -0.0375561
3 1 15.5092 11.4201 11.1024 -0.0736267 0.0200526 0.0589797
4 1 15.2913 13.535 14.9595 -0.0321484 0.0933971 -0.0922014
1 1 13.8848 15.8854 13.1935 0.02286 0.082636 0.130445
5 1 15.492 16.9772 16.7311 -0.366428 -0.314566 -0.333189
6 1 17.4543 18.2383 18.2851 0.361877 0.23103 0.267852
7 1 17.0545 18.0749 21.492 -0.00628366 -0.00298574 0.00566936
