ITEM: TIMESTEP
5020
ITEM: NUMBER OF ATOMS
7
ITEM: BOX BOUNDS xy xz yz ff ff ff
0.0000000000000000e+00 3.0693000068800000e+01 0.0000000000000000e+00
0.0000000000000000e+00 3.0693000068800000e+01 0.0000000000000000e+00
0.0000000000000000e+00 3.0693000068800000e+01 0.0000000000000000e+00
ITEM: ATOMS id type x y z fx fy fz
2 1 10.825 11.6535 14.9449 0.226519 0.0924499 -0.104401
3 1 12.4093 15.0516 14.4246 0.127708 -0.000569065 0.0305773
4 1 13.9526 11.8805 13.4954 -0.185718 0.0938687 0.136914
1 1 14.0969 18.1345 14.7101 0.0294811 -0.262955 0.0238854
5 1 15.9566 15.5427 15.4112 -0.162549 0.0873374 -0.0488657
6 1 19.175 16.519 17.8716 0.0295176 0.074696 -0.100868
7 1 21.0101 18.6437 16.5676 -0.0649584 -0.084828 0.0627581
