ITEM: TIMESTEP
7580
ITEM: NUMBER OF ATOMS
7
ITEM: BOX BOUNDS xy xz yz ff ff ff
0.0000000000000000e+00 3.0693000068800000e+01 0.0000000000000000e+00
0.0000000000000000e+00 3.0693000068800000e+01 0.0000000000000000e+00
0.0000000000000000e+00 3.0693000068800000e+01 0.0000000000000000e+00
ITEM: ATOMS id type x y z fx fy fz
7 1 15.2462 16.1915 8.38719 -0.0172148 -0.0443451 0.123537
5 1 14.6671 14.7981 12.7471 -0.00855587 0.0831628 0.0409283
1 1 14.5651 17.0416 15.5982 -0.0459246 -0.019793 -0.0593797
4 1 14.4059 12.6327 16.3226 -0.0273197 0.226866 -0.132834
6 1 16.865 12.2231 18.0402 0.10202 -0.0603097 0.0889689
3 1 16.4314 15.5637 17.7744 -0.00170925 -0.0122998 0.0824653
2 1 15.2448 18.9747 18.5558 -0.00129586 -0.173281 -0.143686
