ITEM: TIMESTEP
8650
ITEM: NUMBER OF ATOMS
7
ITEM: BOX BOUNDS xy xz yz ff ff ff
0.0000000000000000e+00 3.0693000068800000e+01 0.0000000000000000e+00
0.0000000000000000e+00 3.0693000068800000e+01 0.0000000000000000e+00
0.0000000000000000e+00 3.0693000068800000e+01 0.0000000000000000e+00
ITEM: ATOMS id type x y z fx fy fz
7 1 12.026 16.494 14.043 0.0542918 -0.0964399 0.0111993
4 1 17.3121 14.4507 15.3865 0.215851 -0.0482786 -0.301978
5 1 14.7399 13.6786 12.6907 0.0183721 0.0946142 0.170834
1 1 15.1992 16.7941 13.7083 -0.0400254 -0.0544217 -0.0201565
6 1 14.5543 13.6065 16.567 -0.393998 -0.0691873 -0.194284
3 1 16.64 14.8121 18.5472 0.108861 0.0639294 0.306308
2 1 16.9539 17.5895 16.4828 0.0366478 0.109784 0.0280765
