ITEM: TIMESTEP
9490
ITEM: NUMBER OF ATOMS
7
ITEM: BOX BOUNDS xy xz yz ff ff ff
0.0000000000000000e+00 3.0693000068800000e+01 0.0000000000000000e+00
0.0000000000000000e+00 3.0693000068800000e+01 0.0000000000000000e+00
0.0000000000000000e+00 3.0693000068800000e+01 0.0000000000000000e+00
ITEM: ATOMS id type x y z fx fy fz
5 1 13.5938 13.1097 11.8955 0.0754946 0.049391 0.0498984
4 1 16.6231 14.2385 14.061 0.0212612 -0.246097 -0.149639
1 1 13.7662 15.9489 13.5334 -0.0941099 0.0781626 0.0848743
3 1 18.4358 14.4869 16.9814 -0.135191 0.0530397 0.0261969
7 1 13.0085 17.5366 16.9237 0.176712 -0.149486 -0.0725407
6 1 15.4199 15.1266 18.6527 0.0330874 0.11493 -0.115805
2 1 16.5781 16.9783 15.3777 -0.0772542 0.10006 0.177015
