1.281659999999999933e+01 1.722700000000000031e+01 1.656520000000000081e+01 1.344589999999999996e+01 1.452560000000000073e+01 1.808050000000000068e+01 1.609080000000000155e+01 1.202190000000000047e+01 1.757580000000000098e+01 1.457540000000000013e+01 2.043799999999999883e+01 1.496310000000000073e+01 1.710900000000000176e+01 1.419699999999999918e+01 1.219170000000000087e+01 1.822329999999999828e+01 1.216590000000000060e+01 1.498279999999999923e+01 1.516450000000000031e+01 1.685020000000000095e+01 1.306639999999999979e+01
1.214879999999999960e+01 1.468210000000000015e+01 1.951810000000000045e+01 1.828119999999999834e+01 1.235479999999999912e+01 1.206630000000000003e+01 1.637020000000000053e+01 1.099039999999999928e+01 9.704729999999999634e+00 1.801119999999999877e+01 1.548780000000000001e+01 1.375859999999999950e+01 9.983710000000000306e+00 1.429400000000000048e+01 1.652489999999999881e+01 1.482199999999999918e+01 1.680280000000000129e+01 1.390300000000000047e+01 1.202449999999999974e+01 1.702959999999999852e+01 1.616580000000000084e+01
8.358200000000000074e+00 1.618639999999999901e+01 1.732580000000000098e+01 1.752909999999999968e+01 1.230330000000000013e+01 1.107920000000000016e+01 2.002100000000000080e+01 1.028090000000000082e+01 1.136999999999999922e+01 1.526130000000000031e+01 1.493510000000000026e+01 1.221710000000000029e+01 1.101490000000000080e+01 1.469270000000000032e+01 1.762819999999999965e+01 1.536609999999999943e+01 1.753089999999999904e+01 1.492689999999999984e+01 1.409099999999999930e+01 1.571230000000000082e+01 1.709420000000000073e+01
9.051080000000000680e+00 1.731650000000000134e+01 2.158950000000000102e+01 1.867569999999999908e+01 1.250779999999999959e+01 9.582990000000000563e+00 1.941090000000000160e+01 9.917949999999999378e+00 7.877710000000000434e+00 1.708980000000000032e+01 1.344059999999999988e+01 1.291259999999999941e+01 1.075050000000000061e+01 1.746069999999999922e+01 1.879500000000000171e+01 1.491339999999999932e+01 1.426399999999999935e+01 1.494780000000000086e+01 1.175029999999999930e+01 1.673410000000000153e+01 1.593599999999999994e+01
1.291409999999999947e+01 1.058730000000000082e+01 1.483220000000000027e+01 9.246840000000000614e+00 1.632039999999999935e+01 1.462429999999999986e+01 1.167530000000000001e+01 1.659639999999999915e+01 1.235420000000000051e+01 1.158840000000000003e+01 1.344819999999999993e+01 1.511069999999999958e+01 1.540590000000000082e+01 1.141900000000000048e+01 1.304490000000000016e+01 1.750860000000000127e+01 1.405139999999999922e+01 1.151449999999999996e+01 1.783050000000000068e+01 1.374699999999999989e+01 1.468900000000000006e+01
1.318420000000000059e+01 1.217120000000000068e+01 1.453659999999999997e+01 9.246480000000000032e+00 1.784090000000000131e+01 1.413870000000000005e+01 1.148090000000000011e+01 1.589540000000000042e+01 1.366530000000000022e+01 9.896509999999999252e+00 1.323339999999999961e+01 1.587710000000000043e+01 1.591060000000000052e+01 1.059789999999999921e+01 1.304620000000000068e+01 1.754370000000000118e+01 1.340259999999999962e+01 1.082429999999999914e+01 1.890729999999999933e+01 1.302839999999999954e+01 1.408150000000000013e+01
1.266789999999999949e+01 1.470599999999999952e+01 1.377330000000000076e+01 1.318609999999999971e+01 2.060610000000000142e+01 1.595330000000000048e+01 1.142029999999999923e+01 1.839049999999999940e+01 1.448690000000000033e+01 1.017789999999999928e+01 1.459869999999999912e+01 1.571809999999999974e+01 1.553379999999999939e+01 1.251200000000000045e+01 1.164109999999999978e+01 1.629710000000000036e+01 9.041510000000000602e+00 1.153110000000000035e+01 1.688660000000000139e+01 6.314809999999999590e+00 1.306579999999999941e+01
1.178359999999999985e+01 1.350740000000000052e+01 1.247789999999999999e+01 1.454160000000000075e+01 2.183780000000000143e+01 1.639620000000000033e+01 1.390310000000000024e+01 1.883539999999999992e+01 1.582670000000000066e+01 1.156060000000000088e+01 1.620769999999999911e+01 1.477149999999999963e+01 1.357230000000000025e+01 1.007189999999999941e+01 1.135069999999999979e+01 1.500999999999999979e+01 7.542049999999999699e+00 1.116849999999999987e+01 1.579850000000000065e+01 8.167469999999999786e+00 1.417810000000000059e+01
1.485859999999999914e+01 1.432600000000000051e+01 1.219139999999999979e+01 1.310190000000000055e+01 2.131400000000000006e+01 1.616689999999999827e+01 1.361500000000000021e+01 1.811870000000000047e+01 1.596649999999999991e+01 1.617889999999999873e+01 1.659270000000000067e+01 1.407590000000000074e+01 1.524419999999999931e+01 1.101670000000000016e+01 1.227919999999999945e+01 1.013990000000000080e+01 6.961990000000000123e+00 1.284880000000000067e+01 1.303120000000000012e+01 7.839649999999999785e+00 1.264080000000000048e+01
1.047100000000000009e+01 1.407460000000000022e+01 1.036580000000000013e+01 1.339969999999999928e+01 1.534720000000000084e+01 1.282659999999999911e+01 1.395640000000000036e+01 1.221240000000000059e+01 1.064240000000000030e+01 1.062490000000000023e+01 1.352500000000000036e+01 1.386999999999999922e+01 1.540119999999999933e+01 1.022460000000000058e+01 1.226299999999999990e+01 1.229519999999999946e+01 1.025159999999999982e+01 1.484149999999999991e+01 1.003969999999999985e+01 1.055250000000000021e+01 1.137870000000000026e+01
1.200910000000000011e+01 1.174910000000000032e+01 1.039090000000000025e+01 1.260490000000000066e+01 1.546990000000000087e+01 1.171519999999999939e+01 1.555589999999999939e+01 1.351270000000000060e+01 1.033810000000000073e+01 1.184309999999999974e+01 1.343479999999999919e+01 1.428480000000000061e+01 1.416499999999999915e+01 1.172690000000000055e+01 1.340429999999999922e+01 1.062069999999999936e+01 9.783599999999999852e+00 1.457719999999999949e+01 9.389350000000000307e+00 1.051110000000000078e+01 1.147760000000000069e+01
1.538829999999999920e+01 1.042590000000000039e+01 1.248240000000000016e+01 1.706650000000000134e+01 1.316360000000000063e+01 1.030749999999999922e+01 1.384800000000000075e+01 1.338739999999999952e+01 1.064649999999999963e+01 7.781600000000000072e+00 1.414669999999999916e+01 1.411650000000000027e+01 1.145250000000000057e+01 1.408580000000000076e+01 1.339109999999999978e+01 1.194319999999999915e+01 1.030700000000000038e+01 1.166159999999999997e+01 8.707950000000000301e+00 1.067159999999999975e+01 1.358249999999999957e+01
1.036730000000000018e+01 1.518030000000000079e+01 1.293430000000000035e+01 1.596059999999999945e+01 1.415290000000000070e+01 1.151149999999999984e+01 9.467180000000000817e+00 1.113700000000000045e+01 1.395459999999999923e+01 1.363679999999999914e+01 1.267769999999999975e+01 1.422199999999999953e+01 1.212819999999999965e+01 9.510429999999999495e+00 1.282970000000000077e+01 1.432809999999999917e+01 1.162420000000000009e+01 1.077030000000000065e+01 1.155770000000000053e+01 1.316329999999999956e+01 1.122349999999999959e+01
1.427420000000000044e+01 1.089959999999999951e+01 1.456949999999999967e+01 1.142810000000000059e+01 1.300789999999999935e+01 8.939120000000000843e+00 1.228159999999999918e+01 1.553560000000000052e+01 1.108150000000000013e+01 1.098470000000000013e+01 1.159639999999999915e+01 1.215380000000000038e+01 1.466399999999999970e+01 1.399629999999999974e+01 1.317120000000000068e+01 1.225650000000000084e+01 8.529109999999999303e+00 1.305330000000000013e+01 1.157879999999999932e+01 1.390300000000000047e+01 1.449939999999999962e+01
1.458929999999999971e+01 1.000029999999999930e+01 9.720810000000000173e+00 1.137570000000000014e+01 1.374419999999999931e+01 1.648329999999999984e+01 1.410180000000000078e+01 1.316960000000000086e+01 8.835390000000000299e+00 1.115789999999999971e+01 1.050660000000000061e+01 1.552069999999999972e+01 1.101210000000000022e+01 1.469159999999999933e+01 1.006579999999999941e+01 1.449499999999999922e+01 9.383670000000000400e+00 1.337659999999999982e+01 1.073610000000000042e+01 1.597189999999999976e+01 1.346519999999999939e+01
1.450569999999999915e+01 1.202549999999999919e+01 9.640259999999999607e+00 1.129720000000000013e+01 1.425019999999999953e+01 1.426839999999999975e+01 1.097739999999999938e+01 1.613380000000000081e+01 1.142570000000000086e+01 1.400489999999999924e+01 1.529279999999999973e+01 1.131150000000000055e+01 1.187219999999999942e+01 1.059950000000000081e+01 1.173590000000000089e+01 1.271640000000000015e+01 8.315519999999999357e+00 1.381020000000000003e+01 1.257949999999999946e+01 1.133610000000000007e+01 1.576149999999999984e+01
8.483729999999999549e+00 1.119299999999999962e+01 1.378420000000000023e+01 1.144299999999999962e+01 1.297000000000000064e+01 1.474259999999999948e+01 1.508039999999999914e+01 1.151549999999999940e+01 1.362049999999999983e+01 1.112529999999999930e+01 1.099879999999999924e+01 1.097359999999999935e+01 1.237240000000000073e+01 1.468849999999999945e+01 1.155700000000000038e+01 1.418270000000000053e+01 1.171819999999999951e+01 1.060730000000000040e+01 1.526590000000000025e+01 1.486930000000000085e+01 1.266820000000000057e+01
1.053880000000000017e+01 9.918060000000000542e+00 1.376689999999999969e+01 1.251789999999999914e+01 1.308079999999999998e+01 1.475869999999999926e+01 1.545289999999999964e+01 1.216769999999999996e+01 1.372760000000000069e+01 1.016220000000000034e+01 1.018290000000000006e+01 1.050249999999999950e+01 1.187229999999999919e+01 1.555119999999999969e+01 1.241929999999999978e+01 1.253630000000000067e+01 1.184500000000000064e+01 1.090670000000000073e+01 1.487289999999999957e+01 1.520759999999999934e+01 1.187160000000000082e+01
1.455269999999999975e+01 1.378129999999999988e+01 1.495710000000000051e+01 1.346940000000000026e+01 1.477229999999999954e+01 8.271539999999999893e+00 1.098639999999999972e+01 1.057699999999999996e+01 1.165930000000000000e+01 1.253780000000000072e+01 1.195880000000000010e+01 8.847229999999999706e+00 1.555710000000000015e+01 1.431220000000000070e+01 1.200859999999999950e+01 1.150450000000000017e+01 1.209430000000000049e+01 1.694510000000000005e+01 9.345470000000000610e+00 1.045749999999999957e+01 1.526440000000000019e+01
1.358039999999999914e+01 1.426549999999999940e+01 1.532750000000000057e+01 1.359650000000000070e+01 1.417559999999999931e+01 9.391280000000000072e+00 9.217050000000000409e+00 1.066999999999999993e+01 1.145909999999999940e+01 1.041629999999999967e+01 1.148189999999999955e+01 8.796329999999999316e+00 1.506259999999999977e+01 1.541130000000000067e+01 1.203529999999999944e+01 1.409689999999999976e+01 1.158140000000000036e+01 1.655000000000000071e+01 1.198349999999999937e+01 1.036780000000000079e+01 1.439370000000000083e+01
1.352829999999999977e+01 1.449959999999999916e+01 1.312739999999999974e+01 1.154780000000000051e+01 1.464390000000000036e+01 1.021419999999999995e+01 1.019999999999999929e+01 1.166680000000000028e+01 9.657120000000000815e+00 1.309159999999999968e+01 1.110239999999999938e+01 1.110829999999999984e+01 1.398709999999999987e+01 1.145079999999999920e+01 1.398259999999999970e+01 1.052089999999999925e+01 1.207300000000000040e+01 1.340709999999999980e+01 1.133189999999999920e+01 8.770979999999999777e+00 1.271080000000000076e+01
1.063049999999999962e+01 1.143110000000000070e+01 9.947570000000000690e+00 9.568659999999999499e+00 1.424390000000000001e+01 1.111469999999999914e+01 1.177880000000000038e+01 8.350350000000000605e+00 1.274680000000000035e+01 1.047879999999999967e+01 1.106780000000000008e+01 1.364380000000000059e+01 1.232699999999999996e+01 1.450549999999999962e+01 1.292099999999999937e+01 1.538250000000000028e+01 1.405369999999999919e+01 1.221310000000000073e+01 1.404119999999999990e+01 1.055519999999999925e+01 1.162059999999999960e+01
1.122879999999999967e+01 1.650270000000000081e+01 1.383290000000000042e+01 1.104790000000000028e+01 1.298820000000000086e+01 1.588260000000000005e+01 1.314259999999999984e+01 1.127640000000000065e+01 1.709100000000000108e+01 1.279499999999999993e+01 1.147910000000000075e+01 1.265990000000000038e+01 1.296899999999999942e+01 1.477420000000000044e+01 1.190799999999999947e+01 1.674640000000000128e+01 1.543570000000000064e+01 1.257210000000000072e+01 1.962620000000000076e+01 1.509960000000000058e+01 1.360929999999999929e+01
1.012129999999999974e+01 1.397749999999999915e+01 1.477439999999999998e+01 1.262860000000000049e+01 1.273509999999999920e+01 1.654899999999999949e+01 1.685109999999999886e+01 1.237209999999999965e+01 1.085459999999999958e+01 1.415670000000000073e+01 1.410710000000000086e+01 1.069110000000000049e+01 1.578369999999999962e+01 1.301709999999999923e+01 1.445020000000000060e+01 1.312429999999999986e+01 1.580499999999999972e+01 1.351389999999999958e+01 1.489020000000000010e+01 1.554190000000000005e+01 1.672269999999999968e+01
1.581719999999999970e+01 1.535180000000000078e+01 6.565900000000000070e+00 1.316520000000000046e+01 1.488240000000000052e+01 1.577619999999999933e+01 1.615619999999999834e+01 1.656390000000000029e+01 9.225139999999999674e+00 1.567810000000000059e+01 1.579920000000000080e+01 1.270110000000000028e+01 1.452020000000000088e+01 1.399530000000000030e+01 1.917770000000000152e+01 1.275709999999999944e+01 1.187379999999999924e+01 1.672190000000000154e+01 1.238410000000000011e+01 1.201200000000000045e+01 2.031019999999999825e+01
1.204030000000000022e+01 1.817589999999999861e+01 6.765719999999999956e+00 1.451169999999999938e+01 1.364250000000000007e+01 1.403720000000000034e+01 1.437400000000000055e+01 1.652280000000000015e+01 7.663380000000000081e+00 1.393520000000000003e+01 1.526469999999999949e+01 1.130540000000000056e+01 1.600189999999999912e+01 1.247269999999999968e+01 1.738380000000000081e+01 1.573370000000000068e+01 1.186020000000000074e+01 2.305170000000000030e+01 1.388160000000000061e+01 1.253930000000000078e+01 2.027100000000000080e+01
6.307900000000000063e+00 1.395480000000000054e+01 1.342849999999999966e+01 1.449910000000000032e+01 1.532140000000000057e+01 1.317510000000000048e+01 9.203049999999999287e+00 1.517590000000000039e+01 1.253030000000000044e+01 1.136350000000000016e+01 1.655079999999999885e+01 1.464630000000000010e+01 1.691319999999999979e+01 1.414380000000000059e+01 1.513160000000000061e+01 2.188230000000000075e+01 1.122000000000000064e+01 1.577120000000000033e+01 2.030910000000000082e+01 1.411139999999999972e+01 1.579529999999999923e+01
1.522620000000000040e+01 1.191080000000000005e+01 2.005529999999999902e+01 1.379720000000000013e+01 1.570550000000000068e+01 1.475479999999999947e+01 1.398160000000000025e+01 1.172780000000000022e+01 2.321270000000000167e+01 1.426389999999999958e+01 1.454460000000000086e+01 1.793440000000000012e+01 1.342609999999999992e+01 1.583590000000000053e+01 1.164930000000000021e+01 1.563180000000000014e+01 1.478509999999999991e+01 5.145290000000000141e+00 1.415140000000000065e+01 1.596840000000000082e+01 7.726429999999999687e+00
1.575569999999999915e+01 1.146279999999999966e+01 1.233530000000000015e+01 1.055860000000000021e+01 1.164840000000000053e+01 1.132990000000000030e+01 1.105770000000000053e+01 1.584229999999999983e+01 1.584699999999999953e+01 9.220039999999999125e+00 1.328940000000000055e+01 1.372129999999999939e+01 1.314840000000000053e+01 1.052740000000000009e+01 1.018590000000000018e+01 1.752060000000000173e+01 1.355879999999999974e+01 1.411439999999999984e+01 1.424760000000000026e+01 1.517950000000000088e+01 1.397480000000000011e+01
1.557349999999999923e+01 1.246690000000000076e+01 1.002820000000000000e+01 1.019839999999999947e+01 1.222000000000000064e+01 1.193769999999999953e+01 1.151430000000000042e+01 1.222339999999999982e+01 1.671320000000000050e+01 9.408400000000000318e+00 1.397910000000000075e+01 1.479729999999999990e+01 1.271269999999999989e+01 1.269839999999999947e+01 9.112550000000000594e+00 1.702110000000000056e+01 1.401769999999999960e+01 1.308779999999999966e+01 1.508029999999999937e+01 1.390310000000000024e+01 1.583179999999999943e+01
1.458230000000000004e+01 1.410280000000000022e+01 1.090610000000000035e+01 9.053860000000000241e+00 1.353669999999999973e+01 1.161030000000000051e+01 1.273859999999999992e+01 1.206029999999999980e+01 1.675619999999999976e+01 1.033060000000000045e+01 1.165440000000000076e+01 1.446690000000000076e+01 1.154219999999999935e+01 1.466060000000000052e+01 8.734669999999999490e+00 1.703150000000000119e+01 1.326040000000000063e+01 1.259680000000000000e+01 1.622960000000000136e+01 1.223329999999999984e+01 1.643750000000000000e+01
1.484319999999999951e+01 1.523780000000000001e+01 1.061219999999999963e+01 9.657450000000000756e+00 1.454240000000000066e+01 1.211599999999999966e+01 1.289840000000000053e+01 1.117880000000000074e+01 1.569430000000000014e+01 9.899050000000000793e+00 1.220250000000000057e+01 1.477779999999999916e+01 1.137899999999999956e+01 1.494519999999999982e+01 9.629799999999999471e+00 1.671890000000000143e+01 1.291910000000000025e+01 1.294500000000000028e+01 1.611250000000000071e+01 1.048279999999999923e+01 1.573349999999999937e+01
1.282230000000000025e+01 1.261229999999999940e+01 1.175150000000000006e+01 1.579710000000000036e+01 1.237459999999999916e+01 1.363909999999999911e+01 1.749729999999999919e+01 1.705249999999999844e+01 1.627520000000000167e+01 1.468430000000000035e+01 1.785589999999999833e+01 1.523359999999999914e+01 1.761449999999999960e+01 1.328430000000000000e+01 1.611540000000000106e+01 1.401500000000000057e+01 1.570589999999999975e+01 1.703119999999999834e+01 1.167709999999999937e+01 1.522199999999999953e+01 1.406150000000000055e+01
1.643469999999999942e+01 1.319180000000000064e+01 1.458239999999999981e+01 1.139770000000000039e+01 1.299339999999999939e+01 1.749129999999999896e+01 1.676020000000000110e+01 1.782339999999999947e+01 1.241479999999999961e+01 1.423099999999999987e+01 1.568469999999999942e+01 1.694379999999999953e+01 1.787030000000000030e+01 1.617520000000000024e+01 1.591000000000000014e+01 1.471920000000000073e+01 1.549920000000000009e+01 1.250239999999999974e+01 1.269459999999999944e+01 1.274000000000000021e+01 1.426290000000000013e+01
1.407469999999999999e+01 1.722230000000000061e+01 1.386769999999999925e+01 1.043479999999999919e+01 1.220640000000000036e+01 1.429330000000000034e+01 1.179620000000000068e+01 1.451009999999999955e+01 1.629949999999999832e+01 1.289359999999999928e+01 1.472959999999999958e+01 1.215109999999999957e+01 1.445500000000000007e+01 1.129790000000000028e+01 1.276280000000000037e+01 1.559859999999999935e+01 1.393560000000000088e+01 1.419740000000000002e+01 1.882059999999999889e+01 1.417179999999999929e+01 1.450179999999999936e+01
1.377480000000000082e+01 1.736459999999999937e+01 1.433060000000000045e+01 1.094829999999999970e+01 1.190850000000000009e+01 1.397349999999999959e+01 1.280930000000000035e+01 1.446879999999999988e+01 1.607079999999999842e+01 1.192109999999999914e+01 1.475479999999999947e+01 1.209350000000000058e+01 1.363230000000000075e+01 1.129379999999999917e+01 1.204170000000000051e+01 1.604390000000000072e+01 1.385510000000000019e+01 1.479219999999999935e+01 1.894389999999999930e+01 1.442800000000000082e+01 1.477130000000000010e+01
1.210929999999999929e+01 1.307329999999999970e+01 1.104850000000000065e+01 1.435670000000000002e+01 1.290479999999999983e+01 1.592549999999999955e+01 1.164329999999999998e+01 1.110139999999999993e+01 1.388610000000000078e+01 1.523980000000000068e+01 1.189070000000000071e+01 1.318200000000000038e+01 1.373889999999999922e+01 1.577069999999999972e+01 1.657189999999999941e+01 1.639379999999999882e+01 1.510839999999999961e+01 1.397860000000000014e+01 1.459179999999999922e+01 1.822419999999999973e+01 1.348090000000000011e+01
1.248019999999999996e+01 1.420500000000000007e+01 1.060040000000000049e+01 1.231600000000000072e+01 1.213569999999999993e+01 1.666740000000000066e+01 1.513959999999999972e+01 1.283300000000000018e+01 1.213649999999999984e+01 1.492340000000000089e+01 1.642220000000000013e+01 1.272860000000000014e+01 1.608930000000000149e+01 1.241619999999999990e+01 1.565429999999999922e+01 1.176210000000000022e+01 1.400719999999999921e+01 1.448210000000000086e+01 1.536289999999999978e+01 1.605420000000000158e+01 1.580429999999999957e+01
1.347080000000000055e+01 1.153550000000000075e+01 1.442190000000000083e+01 1.770810000000000173e+01 1.252929999999999922e+01 1.409580000000000055e+01 1.871440000000000126e+01 1.512100000000000044e+01 1.318570000000000064e+01 1.602220000000000155e+01 1.762089999999999890e+01 1.360839999999999961e+01 1.330100000000000016e+01 1.501800000000000068e+01 1.295040000000000013e+01 1.058949999999999925e+01 1.362979999999999947e+01 1.545589999999999975e+01 8.097910000000000608e+00 1.244940000000000069e+01 1.418570000000000064e+01
1.440060000000000073e+01 1.145229999999999926e+01 1.426130000000000031e+01 1.724520000000000053e+01 1.193929999999999936e+01 1.432360000000000078e+01 1.843550000000000111e+01 1.567950000000000088e+01 1.359750000000000014e+01 1.573390000000000022e+01 1.744040000000000035e+01 1.331189999999999962e+01 1.292019999999999946e+01 1.532750000000000057e+01 1.240230000000000032e+01 1.111749999999999972e+01 1.359999999999999964e+01 1.539850000000000030e+01 8.050940000000000651e+00 1.246490000000000009e+01 1.460859999999999914e+01
1.296359999999999957e+01 1.735750000000000171e+01 1.245710000000000051e+01 9.964330000000000354e+00 1.581339999999999968e+01 1.269669999999999987e+01 1.119020000000000081e+01 1.314840000000000053e+01 1.437260000000000026e+01 1.433549999999999969e+01 1.104589999999999961e+01 1.497230000000000061e+01 1.568340000000000067e+01 1.241499999999999915e+01 1.743690000000000140e+01 1.719920000000000115e+01 1.254649999999999999e+01 1.301459999999999972e+01 1.656759999999999877e+01 1.557709999999999972e+01 1.295369999999999955e+01
1.156250000000000000e+01 1.547289999999999921e+01 1.398140000000000072e+01 1.370960000000000001e+01 1.116789999999999949e+01 1.642650000000000077e+01 1.052820000000000000e+01 1.339980000000000082e+01 1.634819999999999851e+01 1.638309999999999889e+01 1.201810000000000045e+01 1.346390000000000065e+01 1.419020000000000081e+01 1.508489999999999931e+01 1.542849999999999966e+01 1.671940000000000026e+01 1.413059999999999938e+01 1.041830000000000034e+01 1.481080000000000041e+01 1.662950000000000017e+01 1.183699999999999974e+01
1.096170000000000044e+01 1.521439999999999948e+01 1.548320000000000007e+01 1.526500000000000057e+01 1.250660000000000061e+01 1.670189999999999841e+01 1.206969999999999921e+01 1.249840000000000018e+01 1.328309999999999924e+01 1.646349999999999980e+01 1.367270000000000074e+01 1.413780000000000037e+01 1.387219999999999942e+01 1.552379999999999960e+01 1.577699999999999925e+01 1.565199999999999925e+01 1.292159999999999975e+01 1.083060000000000045e+01 1.361979999999999968e+01 1.556630000000000003e+01 1.169030000000000058e+01
1.622360000000000113e+01 1.455189999999999984e+01 1.575200000000000067e+01 1.305519999999999925e+01 1.410159999999999947e+01 1.609829999999999828e+01 1.798689999999999856e+01 1.399409999999999954e+01 1.312349999999999994e+01 1.477120000000000033e+01 1.425389999999999979e+01 1.276929999999999943e+01 1.296149999999999913e+01 1.657029999999999959e+01 1.434709999999999930e+01 1.096049999999999969e+01 1.243660000000000032e+01 1.371289999999999942e+01 1.090729999999999933e+01 1.095759999999999934e+01 1.106290000000000084e+01
1.456680000000000064e+01 9.346259999999999124e+00 1.594630000000000081e+01 1.463809999999999967e+01 1.257109999999999950e+01 1.616740000000000066e+01 1.239370000000000083e+01 1.162129999999999974e+01 1.362049999999999983e+01 1.648219999999999885e+01 1.496799999999999997e+01 1.460999999999999943e+01 1.437570000000000014e+01 1.781149999999999878e+01 1.430719999999999992e+01 1.117099999999999937e+01 1.413139999999999930e+01 1.142459999999999987e+01 1.323869999999999969e+01 1.641639999999999944e+01 1.079010000000000069e+01
1.562010000000000076e+01 1.112429999999999986e+01 1.557080000000000020e+01 1.619490000000000052e+01 1.329320000000000057e+01 1.747589999999999932e+01 1.327210000000000001e+01 1.080630000000000024e+01 1.177800000000000047e+01 1.468469999999999942e+01 1.724249999999999972e+01 1.662709999999999866e+01 1.258649999999999913e+01 1.665340000000000131e+01 1.427500000000000036e+01 1.136040000000000028e+01 1.225999999999999979e+01 1.003289999999999971e+01 1.314739999999999931e+01 1.548639999999999972e+01 1.110650000000000048e+01
1.700019999999999953e+01 1.325150000000000006e+01 1.571499999999999986e+01 1.570010000000000083e+01 1.530320000000000036e+01 1.754520000000000124e+01 1.730399999999999849e+01 1.271010000000000062e+01 1.215799999999999947e+01 1.168759999999999977e+01 1.460469999999999935e+01 1.655320000000000036e+01 9.783970000000000056e+00 1.478950000000000031e+01 1.371369999999999933e+01 1.456739999999999924e+01 1.303979999999999961e+01 1.019720000000000049e+01 1.082280000000000086e+01 1.316729999999999912e+01 1.098380000000000045e+01
1.344860000000000078e+01 1.688489999999999824e+01 5.658520000000000216e+00 1.204969999999999963e+01 7.742609999999999992e+00 1.751650000000000063e+01 1.366140000000000043e+01 1.359079999999999977e+01 1.504460000000000086e+01 1.362420000000000009e+01 1.403889999999999993e+01 1.812500000000000000e+01 1.368870000000000076e+01 1.356170000000000009e+01 1.075859999999999950e+01 1.246840000000000082e+01 1.002100000000000080e+01 1.588109999999999999e+01 1.268629999999999924e+01 1.578739999999999988e+01 8.643150000000000333e+00
1.299690000000000012e+01 1.853600000000000136e+01 1.212630000000000052e+01 1.319679999999999964e+01 1.056709999999999994e+01 1.509029999999999916e+01 1.166849999999999987e+01 1.211299999999999955e+01 1.180010000000000048e+01 9.262950000000000017e+00 1.082499999999999929e+01 1.379850000000000065e+01 1.446000000000000085e+01 1.286630000000000074e+01 1.188189999999999991e+01 1.566419999999999924e+01 1.009340000000000082e+01 1.643499999999999872e+01 1.437800000000000011e+01 1.662659999999999982e+01 1.049540000000000006e+01
1.504640000000000022e+01 1.930570000000000164e+01 1.163020000000000032e+01 1.335810000000000031e+01 1.065789999999999971e+01 1.490600000000000058e+01 9.534850000000000492e+00 1.224549999999999983e+01 1.408799999999999919e+01 1.140320000000000000e+01 1.000479999999999947e+01 1.184559999999999924e+01 1.212780000000000058e+01 1.391879999999999917e+01 1.356109999999999971e+01 1.573610000000000042e+01 9.056089999999999307e+00 1.497330000000000005e+01 1.442089999999999961e+01 1.643850000000000122e+01 1.062310000000000088e+01
1.290269999999999939e+01 1.701679999999999993e+01 1.527730000000000032e+01 9.965180000000000149e+00 1.121700000000000053e+01 1.036730000000000018e+01 1.496310000000000073e+01 1.065850000000000009e+01 1.158680000000000021e+01 1.434590000000000032e+01 1.135650000000000048e+01 1.508750000000000036e+01 1.358990000000000009e+01 1.337609999999999921e+01 9.756080000000000751e+00 1.173729999999999940e+01 1.353710000000000058e+01 1.307779999999999987e+01 1.412310000000000088e+01 1.446550000000000047e+01 1.647459999999999880e+01
1.092970000000000041e+01 1.820159999999999911e+01 1.527389999999999937e+01 1.656540000000000035e+01 1.414799999999999969e+01 1.489119999999999955e+01 2.012659999999999982e+01 1.000900000000000034e+01 1.607410000000000139e+01 1.833930000000000149e+01 1.213659999999999961e+01 1.735290000000000177e+01 1.336320000000000086e+01 1.601670000000000016e+01 1.479170000000000051e+01 1.128509999999999991e+01 1.408130000000000059e+01 1.117169999999999952e+01 1.094819999999999993e+01 1.696430000000000149e+01 1.200210000000000043e+01
1.414819999999999922e+01 1.762999999999999901e+01 1.325650000000000084e+01 1.403860000000000063e+01 1.048000000000000043e+01 1.490290000000000070e+01 1.443309999999999960e+01 1.055189999999999984e+01 2.190850000000000009e+01 1.358520000000000039e+01 9.947200000000000486e+00 1.875300000000000011e+01 1.460040000000000049e+01 1.354829999999999934e+01 1.366879999999999917e+01 1.606469999999999843e+01 1.914799999999999969e+01 8.250289999999999679e+00 1.468720000000000070e+01 2.025209999999999866e+01 1.081750000000000078e+01
1.722660000000000124e+01 1.580589999999999939e+01 1.283099999999999952e+01 1.494679999999999964e+01 1.129589999999999961e+01 1.688850000000000051e+01 8.638030000000000541e+00 1.206220000000000070e+01 1.807349999999999923e+01 1.144110000000000049e+01 1.231119999999999948e+01 1.856790000000000163e+01 1.711400000000000077e+01 1.333109999999999928e+01 1.588949999999999996e+01 1.649859999999999971e+01 1.965530000000000044e+01 8.655340000000000700e+00 1.569239999999999924e+01 1.709580000000000055e+01 1.065169999999999995e+01
1.801040000000000063e+01 1.408169999999999966e+01 1.230300000000000082e+01 1.310200000000000031e+01 1.476549999999999940e+01 1.405860000000000021e+01 9.341409999999999769e+00 1.680610000000000070e+01 1.372409999999999997e+01 7.471309999999999896e+00 1.716379999999999839e+01 1.601399999999999935e+01 1.608060000000000045e+01 1.471020000000000039e+01 1.496540000000000070e+01 1.916460000000000008e+01 1.176640000000000086e+01 1.371340000000000003e+01 1.838710000000000022e+01 1.226379999999999981e+01 1.677890000000000015e+01
1.722419999999999973e+01 1.644539999999999935e+01 1.599380000000000024e+01 1.146720000000000006e+01 1.304570000000000007e+01 1.588310000000000066e+01 9.871650000000000702e+00 1.352360000000000007e+01 1.258820000000000050e+01 1.284149999999999991e+01 1.567109999999999914e+01 1.324649999999999928e+01 1.453100000000000058e+01 1.414889999999999937e+01 1.604939999999999856e+01 1.636510000000000176e+01 1.491430000000000078e+01 1.309839999999999982e+01 1.777359999999999829e+01 1.232520000000000060e+01 1.321490000000000009e+01
1.289559999999999995e+01 1.021940000000000026e+01 1.154519999999999946e+01 1.333520000000000039e+01 1.272470000000000034e+01 9.751239999999999242e+00 1.232699999999999996e+01 1.127820000000000000e+01 1.503509999999999991e+01 1.138620000000000054e+01 1.376140000000000008e+01 1.762519999999999953e+01 1.356550000000000011e+01 1.637419999999999831e+01 1.613980000000000103e+01 1.565629999999999988e+01 1.430489999999999995e+01 1.099009999999999998e+01 1.600140000000000029e+01 1.650440000000000040e+01 1.408050000000000068e+01