-3.091517623997516057e+04
-3.091493583744589341e+04
-3.091499846826092835e+04
-3.091498180917815625e+04
-3.091511909007753638e+04
-3.091494910952742066e+04
-3.091499409457482034e+04
-3.091492903459933223e+04
-3.091507035448477109e+04
-3.091537672748251862e+04
-3.091532440515693088e+04
-3.091516965101009555e+04
-3.091536489950925898e+04
-3.091554321436275495e+04
-3.091494648498921379e+04
-3.091526667647312206e+04
-3.091534878982437294e+04
-3.091526370771088114e+04
-3.091506446539656099e+04
-3.091502683123304450e+04
-3.091576706611056943e+04
-3.091557094249322836e+04
-3.091508671914034494e+04
-3.091543939720984054e+04
-3.091493238813057178e+04
-3.091502608972276357e+04
-3.091509319545027392e+04
-3.091503087674983544e+04
-3.091526079255507648e+04
-3.091506317775376374e+04
-3.091500032026787812e+04
-3.091516265115309579e+04
-3.091528345066005932e+04
-3.091528434183295758e+04
-3.091523371831421537e+04
-3.091523595481805387e+04
-3.091522352220778703e+04
-3.091544070798231041e+04
-3.091491368356789098e+04
-3.091507122307222380e+04
-3.091508028147058940e+04
-3.091527053314289515e+04
-3.091548964276242623e+04
-3.091532637798243377e+04
-3.091524905029767979e+04
-3.091499720075455843e+04
-3.091507030142256917e+04
-3.091493199547026961e+04
-3.091497623302088687e+04
-3.091499331388014616e+04
-3.091511395501684092e+04
-3.091502855099265071e+04
-3.091492304401264482e+04
-3.091492794206216786e+04
-3.091499365674361252e+04
-3.091497598539727551e+04
-3.091509033390089826e+04
-3.091512196877009046e+04
-3.091515493427606998e+04
-3.091508300641880487e+04
-3.091509189229699041e+04
-3.091547063887450349e+04
-3.091545911539665394e+04
-3.091522016894866465e+04
-3.091554814778708533e+04
-3.091539856407575280e+04
-3.091529055609723582e+04
-3.091517546608333578e+04
-3.091489681876703980e+04
-3.091523152616493826e+04
-3.091525660036890986e+04
-3.091495907923511186e+04
-3.091504567484590007e+04
-3.091528811632434736e+04
-3.091525216627351983e+04
-3.091497960968180269e+04
-3.091514268207730129e+04
-3.091550337063467668e+04
-3.091534879227339479e+04
-3.091555819695202808e+04
-3.091531390401086173e+04
-3.091532550177579469e+04
-3.091528458673543719e+04
-3.091542061563893367e+04
-3.091537346374884874e+04
-3.091505143985019095e+04
-3.091514942206555861e+04
-3.091494326152839858e+04
-3.091492621658817006e+04
-3.091501261899812380e+04
-3.091485037791047580e+04
-3.091492689251900083e+04
-3.091501772603109202e+04
-3.091488831711363309e+04
-3.091502312259321116e+04
-3.091494322397668657e+04
-3.091512812398566166e+04
-3.091498178196676963e+04
-3.091509993108471099e+04
-3.091487832563682969e+04
-3.091509616938267573e+04
-3.091532858319317529e+04
-3.091513081573598902e+04
-3.091515522135619904e+04
-3.091508384398527778e+04
-3.091519356056673132e+04
-3.091515631797506285e+04
-3.091448573989250144e+04
-3.091550572333113087e+04
-3.091562088817634503e+04
-3.091548692706607835e+04
-3.091550502236582179e+04
-3.091537457587820609e+04
-3.091537169392028954e+04
-3.091514114381763648e+04
-3.091499418546084780e+04
-3.091513519268746677e+04
-3.091534259488017778e+04
-3.091566995139420033e+04
-3.091556915742629280e+04
-3.091544493173368755e+04
-3.091535828306069016e+04
-3.091527961494305418e+04
-3.091537056192662203e+04
-3.091537376851637600e+04
-3.091554383804773170e+04
-3.091546658356160697e+04
-3.091511463584572630e+04
-3.091483534334745855e+04
-3.091499348694456421e+04
-3.091577433753720470e+04
-3.091506938548730977e+04
-3.091503369095140079e+04
-3.091493056387923934e+04
-3.091501190850882267e+04
-3.091501516190216353e+04
-3.091499025722513397e+04
-3.091541499594345078e+04
-3.091505966966184860e+04
-3.091571787989724908e+04
-3.091576908111372541e+04
-3.091591869149221384e+04
-3.091588982864693389e+04
-3.091518064876396238e+04
-3.091525504170070417e+04
-3.091514854830794866e+04
-3.091504507401849332e+04
-3.091521655092274887e+04
-3.091532839951631831e+04
-3.091528689126773679e+04
-3.091512159243662245e+04
-3.091508779562278505e+04
-3.091509461017024296e+04
-3.091515670464885989e+04
-3.091545761305601627e+04
-3.091516842595348862e+04
-3.091506648992370174e+04
-3.091533313048792843e+04
-3.091511601138129845e+04
-3.091535900361819949e+04
-3.091546826005511684e+04
-3.091553326642417233e+04
-3.091535839517160275e+04
-3.091534137689852651e+04
-3.091528305255748273e+04
-3.091542222192706686e+04
-3.091505005043681012e+04
-3.091541631188608881e+04
-3.091523763430480903e+04
-3.091501056998073182e+04
-3.091502318218614892e+04
-3.091484864182402816e+04
-3.091501994212638965e+04
-3.091544249794730058e+04
-3.091530827479139043e+04
-3.091486607915245258e+04
-3.091555812729087484e+04
-3.091526971135902932e+04
-3.091544890105859668e+04
-3.091539163551258389e+04
-3.091534705618695443e+04
-3.091505230408381976e+04
-3.091517054272722453e+04
-3.091524812347786428e+04
-3.091496745408345305e+04
-3.091546932646933783e+04
-3.091511448482253036e+04
-3.091497466754983543e+04
-3.091515572204570708e+04
-3.091569578125836779e+04
-3.091530619665782433e+04
-3.091504308840363956e+04
-3.091520774640660966e+04
-3.091522832719437065e+04
-3.091542616866653043e+04
-3.091510731108477557e+04
-3.091534253174976038e+04
-3.091509363328147811e+04
-3.091522600932848945e+04
-3.091497364331325662e+04
-3.091547979006369133e+04
-3.091574624586261052e+04
-3.091510306719697473e+04
-3.091505730281547221e+04
-3.091504455890695317e+04
-3.091516031260656382e+04
-3.091521287548080363e+04
-3.091510377442090248e+04
-3.091528952832317736e+04
-3.091510804252683374e+04
-3.091513075995264444e+04
-3.091505657218975466e+04
-3.091528318426059195e+04
-3.091499404423375745e+04
-3.091506558269608286e+04
-3.091503620392291850e+04
-3.091506368715091594e+04
-3.091521776182943358e+04
-3.091500898219634473e+04
-3.091507895246648332e+04
-3.091505744431467974e+04
-3.091571205638847823e+04
-3.091519846024894287e+04
-3.091521373862597829e+04
-3.091496265998142553e+04
-3.091515184578373373e+04
-3.091559815387947310e+04
-3.091542274248088870e+04
-3.091554314470160534e+04
-3.091522706839564853e+04
-3.091505968952616240e+04
-3.091532508081564811e+04
-3.091546270349004408e+04
-3.091515984266592568e+04
-3.091553825753663841e+04
-3.091534554677136111e+04
-3.091546913816655069e+04
-3.091567285675390667e+04
-3.091527940160578510e+04
-3.091500607710875192e+04
-3.091529077514889286e+04
-3.091496567037708883e+04
-3.091500292031583376e+04
-3.091502773818854621e+04
-3.091514762937943306e+04
-3.091527160499940146e+04
-3.091499451607919036e+04
-3.091575609475175224e+04
-3.091567178217626497e+04
-3.091492063335594139e+04
-3.091499948134084116e+04
-3.091518147381319068e+04
-3.091497671520665244e+04
-3.091512320144588739e+04
-3.091507355481590639e+04
-3.091524783313237640e+04
-3.091535340188222472e+04
-3.091554897746225106e+04
-3.091522053303700886e+04
-3.091561388478186200e+04
-3.091562214534238228e+04
-3.091540874521591468e+04
-3.091497568716048045e+04
-3.091513633366088834e+04
-3.091510286474426175e+04
-3.091501242117133734e+04
-3.091513432763749370e+04
-3.091510400354077865e+04
-3.091511589654925046e+04
-3.091509077581380916e+04
-3.091560078821377829e+04
-3.091542480537607844e+04
-3.091530745191907045e+04
-3.091501518122224661e+04
-3.091490482109150616e+04
-3.091542071087878867e+04
-3.091506694326539218e+04
-3.091498752275292645e+04
-3.091522673124656649e+04
-3.091498891733646815e+04
-3.091532160428894349e+04
-3.091505179060496448e+04
-3.091523642230966652e+04
-3.091534584201490361e+04
-3.091510174581206229e+04
-3.091522723275241515e+04
-3.091499100526613620e+04
-3.091504500109198125e+04
-3.091504585580162529e+04
-3.091512786901497020e+04
-3.091516801859903717e+04
-3.091494761915978961e+04
-3.091524135655033751e+04
-3.091508607069301434e+04
-3.091521881354951256e+04
-3.091527353374245286e+04
-3.091511438903845192e+04
-3.091517426905445245e+04
-3.091501961558974654e+04
-3.091507886348525062e+04
-3.091505485188591410e+04
-3.091503158397375955e+04
-3.091557169325537325e+04
-3.091588996552020762e+04
-3.091524210948939435e+04
-3.091534349720974933e+04
-3.091496568126164129e+04
-3.091508196558328200e+04
-3.091545103688030576e+04
-3.091543123243339505e+04
-3.091513711000173862e+04
-3.091500837402186517e+04
-3.091503863009011911e+04
-3.091498267477234913e+04
-3.091512173774542316e+04
-3.091503436116783996e+04
-3.091502278979795665e+04
-3.091496138975391659e+04
-3.091571528039352415e+04
-3.091545204723907591e+04
-3.091553915061433872e+04
-3.091551632298241020e+04
-3.091505226027348544e+04
-3.091526612462620687e+04
-3.091538945860168315e+04
-3.091501953041811430e+04
-3.091498092072639338e+04
-3.091506462186203498e+04
-3.091510651896132185e+04
-3.091564542958136735e+04
-3.091550759030433983e+04
-3.091556404903274961e+04
-3.091533655231974990e+04
-3.091545089021093008e+04
-3.091515764480225698e+04
-3.091505012091430399e+04
-3.091503562704153228e+04
-3.091548979106448314e+04
-3.091516038607731025e+04
-3.091502631775418195e+04
-3.091506757593012298e+04
-3.091541864607880052e+04
-3.091520251148012903e+04
-3.091507746373154805e+04
-3.091499527337207473e+04
-3.091560273355578101e+04
-3.091566709746401102e+04
-3.091528864177621290e+04
-3.091526200400598827e+04
-3.091513416572974529e+04
-3.091542798992461030e+04
-3.091570630907158557e+04
-3.091502211495558004e+04
-3.091505256123141953e+04
-3.091519588169798226e+04
-3.091506324442166078e+04
-3.091508438739666235e+04
-3.091500295705120516e+04
-3.091501227014814503e+04
-3.091502972407550988e+04
-3.091505713791447488e+04
-3.091520478363087750e+04
-3.091501865230667681e+04
-3.091498802044917829e+04
-3.091502717300805307e+04
-3.091505704784478803e+04
-3.091532778807646901e+04
-3.091498940795776434e+04
-3.091523032641491591e+04
-3.091567095222898570e+04
-3.091525543191198449e+04
-3.091529372078145389e+04
-3.091579793824461012e+04
-3.091528338453638935e+04
-3.091561503010911110e+04
-3.091513987495069523e+04
-3.091511342983708892e+04
-3.091510784442794829e+04
-3.091526118058944121e+04
-3.091507311453568036e+04
-3.091517307311403056e+04
-3.091505982422252418e+04
-3.091582900929388052e+04
-3.091502978421267471e+04
-3.091504679160119485e+04
-3.091506281502598358e+04
-3.091493460912391674e+04
-3.091498500869295458e+04
-3.091504282635799245e+04
-3.091547877072516712e+04
-3.091511524429232304e+04
-3.091510252868364478e+04
-3.091503006857166110e+04
-3.091503050585864185e+04
-3.091504568491411919e+04
-3.091536692648541793e+04
-3.091508075658139569e+04
-3.091509480337108471e+04
-3.091550514454494623e+04
-3.091562559084811437e+04
-3.091563513333704032e+04
-3.091528848966456644e+04
-3.091561962039785794e+04
-3.091547714919866485e+04
-3.091522029248835679e+04
-3.091556196899438510e+04
-3.091533604509950965e+04
-3.091530880541342412e+04
-3.091517778150019149e+04
-3.091551962562835979e+04
-3.091506279162419378e+04
-3.091499370109817391e+04
-3.091537882765730683e+04
-3.091533152011809216e+04
-3.091502748838801926e+04
-3.091505506495106602e+04
-3.091495289544758634e+04
-3.091518687255222540e+04
-3.091515886523292647e+04
-3.091507575703339535e+04
-3.091505908107956566e+04
-3.091533089099083736e+04
-3.091509031403658446e+04
-3.091514773849709309e+04
-3.091492830642263289e+04
-3.091537064328866472e+04
-3.091547212706521168e+04
-3.091544944474209842e+04
-3.091556566321218270e+04
-3.091516483758798131e+04
-3.091539285158943676e+04
-3.091519631435902193e+04
-3.091534496825728638e+04
-3.091541459103802481e+04
-3.091509036247285258e+04
-3.091516330422637111e+04
-3.091511509218067295e+04
-3.091530460941766432e+04
-3.091523466091663431e+04
-3.091566179314848341e+04
-3.091514159552664933e+04
-3.091535393957921769e+04
-3.091566577852811315e+04
-3.091526352049654452e+04
-3.091548683155411345e+04
-3.091534215704897360e+04
-3.091551933555498908e+04
-3.091546653566956593e+04
-3.091507080728224173e+04
-3.091520678339564984e+04
-3.091563584028885816e+04
-3.091501828386450507e+04
-3.091525180245728552e+04
-3.091509517916033292e+04
-3.091517638528396128e+04
-3.091504989043386013e+04
-3.091498432786406920e+04
-3.091517668869092086e+04
-3.091534326945044086e+04
-3.091547079670053790e+04
-3.091523868221529119e+04
-3.091498576108778434e+04
-3.091505050214581934e+04
-3.091532500108628665e+04
-3.091534919255288696e+04
-3.091533971074535293e+04
-3.091510249820689205e+04
-3.091554731375809206e+04
-3.091570711316805318e+04
-3.091563601988400114e+04
-3.091573935675595567e+04
-3.091511392154683563e+04
-3.091583236990008299e+04
-3.091546792018490305e+04
-3.091537921514744812e+04
-3.091548983052099356e+04
-3.091565033606642100e+04
-3.091539089645133572e+04
-3.091506973079980162e+04
-3.091499655829372932e+04
-3.091511161538185115e+04
-3.091500602758402965e+04
-3.091586254542263487e+04
-3.091547507977273563e+04
-3.091517358659288948e+04
-3.091495889038809037e+04
-3.091504795543218279e+04
-3.091514578934549354e+04
-3.091505570142539000e+04
-3.091560164156284736e+04
-3.091503080055794999e+04
-3.091536563639359520e+04
-3.091520031660971290e+04
-3.091498487807829588e+04
-3.091509647333386238e+04
-3.091501712792481703e+04
-3.091495563781109013e+04
-3.091504443944896775e+04
-3.091527340857008312e+04
-3.091511827564074702e+04
-3.091525992913778828e+04
-3.091498954428681100e+04
-3.091496491961494030e+04
-3.091499955154621784e+04
-3.091527777708602298e+04
-3.091531873892997464e+04
-3.091512020139055312e+04
-3.091533243278798545e+04
-3.091516552440336818e+04
-3.091529559809499187e+04
-3.091502898691905648e+04
-3.091475747007441532e+04
-3.091483232533260889e+04
-3.091497787631650499e+04
-3.091530242624814491e+04
-3.091524655909527064e+04
-3.091511567776970332e+04
-3.091571496283664601e+04
-3.091561037723417758e+04
-3.091529316049901536e+04
-3.091502709763251187e+04
-3.091517104804266637e+04
-3.091547021056728408e+04
-3.091535735107071014e+04
-3.091541189275696161e+04
-3.091502723695480745e+04
-3.091506832968552044e+04
-3.091517850994900073e+04
-3.091539367282907187e+04
-3.091525180898801773e+04
-3.091506682897757128e+04
-3.091501617770321172e+04
-3.091508214354574739e+04
-3.091527274651705375e+04
-3.091560731785801909e+04
-3.091564786636100689e+04
-3.091532821284620877e+04
-3.091516933699069705e+04
-3.091514630282435610e+04
-3.091533351280790521e+04
-3.091523643618747155e+04
-3.091570177728732233e+04
-3.091505333512324796e+04
-3.091529329628383493e+04
-3.091555421238873896e+04
-3.091540350729617785e+04
-3.091546963150898227e+04
-3.091560064426554527e+04
-3.091567276831690469e+04
-3.091573191444181793e+04
-3.091582970917073180e+04
-3.091583096089450555e+04
-3.091526340784140848e+04
-3.091556215484815766e+04
-3.091501729473062005e+04
-3.091512373533328355e+04
-3.091521805652874536e+04
-3.091548486825259533e+04
-3.091534114260849310e+04
-3.091544841996128889e+04
-3.091494051481107090e+04
-3.091503331706695462e+04
-3.091507468354420780e+04
-3.091499961440451443e+04
-3.091511318819997905e+04
-3.091515137638732267e+04
-3.091526401955336769e+04
-3.091521732018863258e+04
-3.091522774378225222e+04
-3.091534128927786878e+04
-3.091547445799256457e+04
-3.091552382053566907e+04
-3.091522509284900298e+04
-3.091551959787274973e+04
-3.091519633612813050e+04
-3.091514616186937565e+04
-3.091585981965807514e+04
-3.091544261277934856e+04
-3.091546792372238269e+04
-3.091552543471510216e+04
-3.091567226272934931e+04
-3.091500496171402847e+04
-3.091504884143492018e+04
-3.091506462757642294e+04
-3.091509140766219571e+04
-3.091558185888504886e+04
-3.091560876223840023e+04
-3.091536624402385496e+04
-3.091528262316180553e+04
-3.091535173872229643e+04
-3.091534660420582804e+04
-3.091504638234194863e+04
-3.091544290883923168e+04
-3.091536339825707910e+04
-3.091559459299747323e+04
-3.091517702012560039e+04
-3.091508038215271881e+04
-3.091554858670674366e+04
-3.091497574239959067e+04
-3.091507940988988776e+04
-3.091536722989237751e+04
-3.091555980051901497e+04
-3.091542440128699309e+04
-3.091507462259070235e+04
-3.091535395726662318e+04
-3.091557460922752216e+04
-3.091521550137958184e+04
-3.091540693593084143e+04
-3.091513693285561385e+04
-3.091586756456282819e+04
-3.091505648266429489e+04
-3.091497380576523210e+04
-3.091504642914553187e+04
-3.091497394508753132e+04
-3.091502349185172352e+04
-3.091510021326678543e+04
-3.091498235912027303e+04
-3.091563995138508835e+04
-3.091530466030295793e+04
-3.091495245462312596e+04
-3.091568206291010574e+04
-3.091524387305933487e+04
-3.091540580393717755e+04
-3.091512209666360286e+04
-3.091504015556042941e+04
-3.091498863025634637e+04
-3.091587565804543192e+04
-3.091582562038783362e+04
-3.091571987476397771e+04
-3.091516074309069518e+04
-3.091533319144143024e+04
-3.091512846984238058e+04
-3.091535942267354403e+04
-3.091495034764549200e+04
-3.091502649435607964e+04
-3.091497479653180562e+04
-3.091573408291718806e+04
-3.091577267247247801e+04
-3.091570468890565098e+04
-3.091506197718740077e+04
-3.091516895303803904e+04
-3.091521609567625273e+04
-3.091529468569720848e+04
-3.091527081396440190e+04
-3.091529147475363425e+04
-3.091522741561293151e+04
-3.091501818916888078e+04
-3.091489069756570098e+04
-3.091500228384150978e+04
-3.091496072253072271e+04
-3.091484487685663044e+04
-3.091506423083441041e+04
-3.091500265527693045e+04
-3.091492204916436822e+04
-3.091510444028352504e+04
-3.091511037671954909e+04
-3.091539771889009353e+04
-3.091533029533359513e+04
-3.091537928127111809e+04
-3.091544360871608660e+04
-3.091508061263316267e+04
-3.091537573481114669e+04
-3.091527431851883739e+04
-3.091538694508593835e+04
-3.091501624545956292e+04
-3.091509580611066849e+04
-3.091556311160049518e+04
-3.091547449853752551e+04
-3.091539934966847431e+04
-3.091490202947539001e+04
-3.091497277118833154e+04
-3.091498149706355252e+04
-3.091504766671937614e+04
-3.091485306095315900e+04
-3.091523123908481284e+04
-3.091539018895529443e+04
-3.091540524719221503e+04
-3.091538004346204252e+04
-3.091492074084091655e+04
-3.091551606202521725e+04
-3.091535210281064792e+04
-3.091511812488967189e+04
-3.091525919334190257e+04
-3.091522444793914474e+04
-3.091520211419388943e+04
-3.091544030770282188e+04
-3.091535804877065675e+04
-3.091561326028055191e+04
-3.091541732687079639e+04
-3.091549420992149680e+04
-3.091495103881470641e+04
-3.091528199838837827e+04
-3.091514747509087829e+04
-3.091503864043044814e+04
-3.091532685173266509e+04
-3.091531880668632220e+04
-3.091543560503104891e+04
-3.091545982425326656e+04
-3.091539381460039658e+04
-3.091550510699322695e+04
-3.091529447861856534e+04
-3.091519147726300071e+04
-3.091538161872919591e+04
-3.091496943942619691e+04
-3.091523197161532880e+04
-3.091536538604884117e+04
-3.091537358810488877e+04
-3.091508058025160790e+04
-3.091531477559156338e+04
-3.091556516143422414e+04
-3.091541679652087987e+04
-3.091561185454033694e+04
-3.091537513235105507e+04
-3.091533208693127017e+04
-3.091504521361290608e+04
-3.091505256476890281e+04
-3.091510151805275382e+04
-3.091510712958483055e+04
-3.091512373261214816e+04
-3.091508058242851985e+04
-3.091504090986005758e+04
-3.091515097529148625e+04
-3.091503181363786280e+04
-3.091500795605497115e+04
-3.091508998423458252e+04
-3.091530049151858111e+04
-3.091501436488066247e+04
-3.091502912297599323e+04
-3.091509829323137092e+04
-3.091516013029027454e+04
-3.091536782146791302e+04
-3.091536571122490932e+04
-3.091493318188671037e+04
-3.091508796950354736e+04
-3.091502716620520368e+04
-3.091495064615439696e+04
-3.091507257411754836e+04
-3.091518009229111340e+04
-3.091501889911395119e+04
-3.091502614713879302e+04
-3.091538525417039637e+04
-3.091507855844561345e+04
-3.091520336727821996e+04
-3.091511911647258603e+04
-3.091515485998898657e+04
-3.091519261742008530e+04
-3.091498330009000711e+04
-3.091504207913332357e+04
-3.091500532498603570e+04
-3.091531695576783386e+04
-3.091536357213783776e+04
-3.091551009837781021e+04
-3.091515521428123975e+04
-3.091524057367874775e+04
-3.091511722310432742e+04
-3.091508389459845057e+04
-3.091487101148832517e+04
-3.091548936683897409e+04
-3.091526882209092582e+04
-3.091506948018293406e+04
-3.091499651285071377e+04
-3.091487771501332827e+04
-3.091499494166527438e+04
-3.091514189675669695e+04
-3.091502515637221950e+04
-3.091499864731184789e+04
-3.091500054666661163e+04
-3.091559710841801643e+04
-3.091521295657073642e+04
-3.091538388924726314e+04
-3.091519357580510768e+04
-3.091509045227042589e+04
-3.091508072419984092e+04
-3.091509358756634902e+04
-3.091527050321037314e+04
-3.091515394949600523e+04
-3.091502546821470241e+04
-3.091506234889493498e+04
-3.091506221447069402e+04
-3.091513907139846197e+04
-3.091503461749910639e+04
-3.091511915701755061e+04
-3.091496006972957184e+04
-3.091514543695804605e+04
-3.091528636336684576e+04
-3.091507930267702613e+04
-3.091529026820076979e+04
-3.091500871606898727e+04
-3.091506894221382754e+04
-3.091583547172600083e+04
-3.091536651586559674e+04
-3.091500278970118234e+04
-3.091509525317530279e+04
-3.091506227351940106e+04
-3.091489499587627506e+04
-3.091492046791070970e+04
-3.091524176744226861e+04
-3.091576413517216133e+04
-3.091551371014510369e+04
-3.091508302954848841e+04
-3.091508990015139716e+04
-3.091535037924144490e+04
-3.091564051520501380e+04
-3.091583507580032892e+04
-3.091581054364717056e+04
-3.091517592132982463e+04
-3.091511584920143650e+04
-3.091503315651977391e+04
-3.091513214610065916e+04
-3.091507149028803178e+04
-3.091559366944302019e+04
-3.091517462035345307e+04
-3.091502666415512795e+04
-3.091509899419668000e+04
-3.091501441957554562e+04
-3.091535709201831924e+04
-3.091539228423203531e+04
-3.091530382246437512e+04
-3.091530363851540096e+04
-3.091515182401462516e+04
-3.091507260132893134e+04
-3.091561617135464621e+04
-3.091506359680910828e+04
-3.091510923003173230e+04
-3.091492890725003963e+04
-3.091502263006712019e+04
-3.091508845631524673e+04
-3.091501434093464195e+04
-3.091492816573976961e+04
-3.091534370238359770e+04
-3.091521237968935020e+04
-3.091545139062832823e+04
-3.091516097139422345e+04
-3.091503309883163820e+04
-3.091498975272602547e+04
-3.091518079135162043e+04
-3.091512464419358730e+04
-3.091525480196838907e+04
-3.091558634495418664e+04
-3.091559526920041753e+04
-3.091544059695985925e+04
-3.091525025358518178e+04
-3.091500626323463439e+04
-3.091531931989307122e+04
-3.091498554693417464e+04
-3.091505389023552198e+04
-3.091511402957604150e+04
-3.091563654832912653e+04
-3.091536595449470406e+04
-3.091495941502361893e+04
-3.091570147578516480e+04
-3.091535174688571351e+04
-3.091548938425425513e+04
-3.091520885826385347e+04
-3.091507806210992567e+04
-3.091525596280612808e+04
-3.091542645112071841e+04
-3.091510217167025621e+04
-3.091559778815844402e+04
-3.091522291893135480e+04
-3.091527890173262131e+04
-3.091582464485964010e+04
-3.091571919339086162e+04
-3.091522986708671669e+04
-3.091520246848613533e+04
-3.091490133721772509e+04
-3.091499051437273010e+04
-3.091528652935629725e+04
-3.091505299225978160e+04
-3.091499041613962254e+04
-3.091515339547218173e+04
-3.091557450745693859e+04
-3.091544096757893931e+04
-3.091522964776294248e+04
-3.091534148601619017e+04
-3.091523306306403538e+04
-3.091534656366086347e+04
-3.091531515818365369e+04
-3.091535826210792584e+04
-3.091526728628028650e+04
-3.091506169963126376e+04
-3.091512722519356976e+04
-3.091519132923306097e+04
-3.091502266843517646e+04
-3.091530995291757790e+04
-3.091533295443025781e+04
-3.091565280114590496e+04
-3.091546471686051518e+04
-3.091533360314970560e+04
-3.091575752525432836e+04
-3.091561945794587882e+04
-3.091514041727362564e+04
-3.091553032269640607e+04
-3.091548819430033473e+04
-3.091520497465481094e+04
-3.091515211299954535e+04
-3.091563400270394413e+04
-3.091512081555154509e+04
-3.091560287587132916e+04
-3.091546904156613164e+04
-3.091541326230603227e+04
-3.091549147245604036e+04
-3.091574401997121822e+04
-3.091518594246704015e+04
-3.091496125424121055e+04
-3.091494010364702990e+04
-3.091498748737812275e+04
-3.091490448775202458e+04
-3.091495211312023457e+04
-3.091486759373821042e+04
-3.091522108053010015e+04
-3.091549189967480561e+04
-3.091510915792156084e+04
-3.091505825983992690e+04
-3.091551110601544133e+04
-3.091510304270672714e+04
-3.091527476777882475e+04
-3.091503869022728395e+04
-3.091506512690536329e+04
-3.091502215468420036e+04
-3.091534198235187068e+04
-3.091534086804560866e+04
-3.091508171632698577e+04
-3.091524207955686506e+04
-3.091510440354815364e+04
-3.091494829617908545e+04
-3.091495896331460244e+04
-3.091517978153707736e+04
-3.091535282881043531e+04
-3.091510706727075012e+04
-3.091510763435604531e+04
-3.091518393236193879e+04
-3.091564412615596666e+04
-3.091542820353399293e+04
-3.091524092307295359e+04
-3.091513730755640427e+04
-3.091516871384995466e+04
-3.091503265719083720e+04
-3.091527332230998582e+04
-3.091534389504021601e+04
-3.091544391702108987e+04
-3.091511512102474080e+04
-3.091502961495785348e+04
-3.091517459259783573e+04
-3.091530120881072435e+04
-3.091503771687599510e+04
-3.091493826415731382e+04
-3.091511003630510459e+04
-3.091514692460453443e+04
-3.091504276730928541e+04
-3.091509926086826454e+04
-3.091505790609190808e+04
-3.091537135051259611e+04
-3.091503656039207635e+04
-3.091568398376185723e+04
-3.091506900398367725e+04
-3.091532323806057320e+04
-3.091520534228063480e+04
-3.091543314240059772e+04
-3.091534987120485675e+04
-3.091555781272725289e+04
-3.091508482849323264e+04
-3.091502469405076772e+04
-3.091546309642246342e+04
-3.091506830927697956e+04
-3.091540075295966017e+04
-3.091518851748052111e+04
-3.091510190146119203e+04
-3.091516603679377295e+04
-3.091494153387748520e+04
-3.091504769420287630e+04
-3.091511929443505142e+04
-3.091524101885702839e+04
-3.091526204373461223e+04
-3.091523414526086708e+04
-3.091561763886471090e+04
-3.091539223443519586e+04
-3.091533559611163946e+04
-3.091541454232964315e+04
-3.091535496191100174e+04
-3.091510897097933412e+04
-3.091510930676784119e+04
-3.091583917356298480e+04
-3.091538984228223126e+04
-3.091504362773331377e+04
-3.091503247569089217e+04
-3.091501193789711760e+04
-3.091505047302964158e+04
-3.091497942627706288e+04
-3.091508149455418607e+04
-3.091520785851752225e+04
-3.091494885945477654e+04
-3.091502302735335979e+04
-3.091530743341533162e+04
-3.091499543310291119e+04
-3.091550814051856651e+04
-3.091507952091234620e+04
-3.091524888213131635e+04
-3.091517163118267126e+04
-3.091514824871058590e+04
-3.091518979097339616e+04
-3.091537852561091859e+04
-3.091527553704471211e+04
-3.091524257861368824e+04
-3.091508147877158262e+04
-3.091495468296354738e+04
-3.091547828581826252e+04
-3.091510013299319689e+04
-3.091528192138015220e+04
-3.091526751920975221e+04
-3.091549938035699597e+04
-3.091548367285639688e+04
-3.091525361364715354e+04
-3.091556280356759817e+04
-3.091572699625586756e+04
-3.091570386440064976e+04
-3.091580759474924707e+04
-3.091582703374723860e+04
-3.091536195061132821e+04
-3.091493395877178045e+04
-3.091510332788205778e+04
-3.091552831150285419e+04
-3.091523936304417657e+04
-3.091586095736613061e+04
-3.091585089078590318e+04
-3.091511058624722136e+04
-3.091558441811592638e+04
-3.091534768286518010e+04
-3.091549862932273390e+04
-3.091499792566588803e+04
-3.091502187658383264e+04
-3.091530558929967810e+04
-3.091564552754235774e+04
-3.091527408831050343e+04
-3.091512440691029769e+04
-3.091509162372060018e+04
-3.091542515068857028e+04
-3.091502451499984454e+04
-3.091503943663560858e+04
-3.091503166642426004e+04
-3.091529496325335276e+04
-3.091499042838474998e+04
-3.091506637128205693e+04
-3.091506557398843870e+04
-3.091532103393828584e+04
-3.091503136764324518e+04
-3.091510000863716050e+04
-3.091515738384506039e+04
-3.091499518411872486e+04
-3.091560806671536557e+04
-3.091520387558691800e+04
-3.091528087401389712e+04
-3.091563405222866277e+04
-3.091560460025687280e+04
-3.091580634329759414e+04
-3.091560706805749942e+04
-3.091543767989925618e+04
-3.091576366468729248e+04
-3.091494694839912336e+04
-3.091519721179053886e+04
-3.091533747478574514e+04
-3.091531798218131735e+04
-3.091497521885251990e+04
-3.091514654772682843e+04
-3.091524812293363721e+04
-3.091505024037228941e+04
-3.091519582999634440e+04
-3.091497387324946976e+04
-3.091587723358469884e+04
-3.091526990129450860e+04
-3.091536786663881139e+04
-3.091544532140073716e+04
-3.091548536975844763e+04
-3.091553746459684407e+04
-3.091498063337415442e+04
-3.091498724329198740e+04
-3.091495504650767180e+04
-3.091493615554699500e+04
-3.091525188980583698e+04
-3.091494269417099349e+04
-3.091554268482917905e+04
-3.091554879133636859e+04
-3.091557470446737716e+04
-3.091572178418694602e+04
-3.091572426967497086e+04
-3.091554889555597765e+04
-3.091534215459995175e+04
-3.091548474008696576e+04
-3.091502742961142940e+04
-3.091523794805209400e+04
-3.091549456285317501e+04
-3.091520895159890642e+04
-3.091547802159570711e+04
-3.091517467722525180e+04
-3.091532305683274171e+04
-3.091528069169760784e+04
-3.091556768392972299e+04
-3.091561963373143226e+04
-3.091532384433025800e+04
-3.091525887496868381e+04
-3.091501532272145778e+04
-3.091548381925365538e+04
-3.091509376552881440e+04
-3.091553214014489640e+04
-3.091582008232650696e+04
-3.091542200777345715e+04
-3.091584295512933386e+04
-3.091544687272186638e+04
-3.091542838068011770e+04
-3.091522108787717298e+04
-3.091488670048517452e+04
-3.091501109243934843e+04
-3.091490892211952450e+04
-3.091504469278697434e+04
-3.091503064354825619e+04
-3.091513797069788416e+04
-3.091502616346561990e+04
-3.091525625859389766e+04
-3.091524484668273362e+04
-3.091514283418895138e+04
-3.091524348121536968e+04
-3.091503844069886691e+04
-3.091507596656106762e+04
-3.091539692703875698e+04
-3.091500508470949717e+04
-3.091508241702018131e+04
-3.091500342590338914e+04
-3.091517146927492649e+04
-3.091577643090914717e+04
-3.091530242570391420e+04
-3.091517337189505270e+04
-3.091500388468736128e+04
-3.091515810821216292e+04
-3.091508346302586870e+04
-3.091505590932038831e+04
-3.091507035775014083e+04
-3.091523374416503066e+04
-3.091563395590036089e+04
-3.091529015091969268e+04
-3.091511008202023368e+04
-3.091501779269898907e+04
-3.091567467148125797e+04
-3.091522403867989851e+04
-3.091524533648768556e+04
-3.091533438330015269e+04
-3.091527331768404838e+04
-3.091546754657256679e+04
-3.091527046974036421e+04
-3.091477532999566392e+04
-3.091545341025741436e+04
-3.091556771250168094e+04
-3.091517573928565253e+04
-3.091528171457361896e+04