1.257431529308720153e-01 1.629758665298480513e-01 -1.796956489256404943e-01 7.889734092753419858e-02 -1.491813827086488631e-01 2.899932068707159263e-02 -2.538949155023351167e-02 7.467229817540935177e-02 -4.726793575525096297e-02 -5.215472909372864674e-02 -2.265487628625599548e-01 -2.422313621573548778e-02 -2.147730065663463334e-02 1.011281805609669064e-02 6.480892856864031715e-02 -9.498046670590223894e-02 6.713341170684015979e-02 -3.164411188358147008e-03 -1.063855727397464840e-02 6.083580252508200004e-02 1.605429342513406410e-01
-1.655307205303418461e-01 -3.623075461419984072e-02 -1.811924938878088642e-01 -1.021976567203395359e-01 -3.968703745755360751e-03 -7.780266795509817312e-02 8.835133945512420317e-02 3.670193501848541262e-02 8.748518615055297931e-02 -9.311220015035236164e-02 1.004103284989974094e-02 -7.480368155781137382e-03 1.913298402700917555e-01 8.212057896108526656e-02 1.972961370710999696e-01 1.225799244500658291e-03 -2.501966404094377663e-02 5.713202527096466338e-02 7.993359843131712938e-02 -6.364442442857143334e-02 -7.543776707186193586e-02
-5.571272478655059368e-02 2.391537514188967622e-02 1.636095920894262709e-03 -1.298782584869807681e-02 3.948901107570228219e-02 3.011847056362635527e-02 -4.057221692709108568e-02 2.751204022945382202e-02 -8.335002917237674044e-03 6.248655373520701356e-02 1.828892678483251891e-02 8.779222731545412162e-02 -5.323937476300678873e-02 -6.161710941831729377e-02 2.784736353146694335e-02 4.541103347661335637e-02 -3.637098259220777202e-02 -1.536867785726546420e-01 5.461455511352617670e-02 -1.121726122135322141e-02 1.462767558051811072e-02
7.667801591732345545e-03 3.895427299601596054e-03 -1.597555081320756534e-02 -3.325567947828951803e-03 -4.915949650736761711e-02 -4.932044757856851938e-03 -1.765628108867128149e-02 6.685125882259757013e-02 4.728187113553704302e-02 5.354410193487150332e-02 -3.691168563172134154e-02 -7.697693239556333000e-02 -4.324863269509889724e-02 1.904020319066164132e-02 1.339274891904040643e-01 -1.169141896334567471e-01 8.690236843777629505e-02 6.656504359502432577e-02 1.199328192605195048e-01 -9.061817845568308216e-02 -1.498898245322702050e-01
-3.808991946380640287e-02 -1.505929184608739979e-01 5.305888330616488624e-02 1.672844701416219271e-01 -8.703863691658855761e-02 -5.354045096808068838e-02 -6.582065774623703514e-02 -3.073173014034901937e-02 6.721764105336638928e-02 -7.355613077876822781e-02 1.711294009709617703e-01 -3.360282985582219856e-02 9.671411028879910166e-03 1.101230314480608069e-01 -7.609890059340505830e-02 -1.914330443595167394e-02 -4.812498735387888554e-02 8.679469062848087224e-02 1.965407983219401994e-02 3.523578903060040068e-02 -4.382903357070418865e-02
-9.661604840612174339e-02 -3.705762145921915468e-02 1.911486803263726456e-02 -9.967617564163790134e-02 1.031055647437015416e-01 1.171795789237020657e-02 4.225366711149947108e-02 -1.873079661065658874e-01 6.174767004763968836e-02 2.064078703175675211e-01 4.029217234761501426e-02 -1.287355573035218470e-01 -6.753980030610555463e-02 1.160420199469907737e-01 3.625687702447781546e-02 1.300981906695770074e-01 -6.101562549504671584e-02 3.085341017861824575e-01 -1.149277037447787864e-01 2.594145602252439370e-02 -3.086358660577180890e-01
5.549927178445636378e-02 -4.753841583017644201e-02 -4.907120481751076069e-02 -4.443622534346464842e-02 -3.011286555827143163e-02 -4.358092209513091120e-02 4.438634593801261269e-02 -2.641397340056435630e-02 7.059761354858529181e-02 2.537123671627941959e-02 4.557105895059968687e-02 -3.896363181229665212e-02 -6.257736510637021410e-02 -2.217664077431266700e-02 5.657229606648485343e-02 -1.972540223978368548e-02 7.707144615558481071e-02 1.110840070450583826e-02 1.482189672937619333e-03 3.599390457140388098e-03 -6.662603016705125579e-03
4.788412638981977970e-02 3.927139288614246715e-02 7.942364578815439002e-02 -2.803119742269480873e-03 -4.325315783703681527e-03 3.508116287369909478e-03 -2.740014581062533497e-02 -3.499081430114318880e-02 -2.162709313919317089e-02 3.981518124970461620e-02 -1.165682733855434999e-01 -1.143274025290601792e-01 -2.439076701350156029e-01 4.438723553977995118e-01 8.078098268125949444e-02 1.735258750036284825e-01 -3.198780669817973266e-01 -4.547402550927185511e-02 1.288570162269009160e-02 -7.381277831754256072e-03 1.771572499867391307e-02
-1.895828783717185342e-02 -4.573926053331474340e-02 6.713048064899401063e-03 2.016171848232031077e-02 -7.855538417881663404e-02 9.606156425252451985e-04 1.063696318988288127e-02 4.559846691256456974e-02 -4.209163617688155973e-02 -1.049683805600989429e-02 4.311822633197893301e-02 3.660628997297944720e-02 -4.637334604736532279e-02 -3.361799936572771458e-02 7.689347438004925754e-03 -8.422672400078062838e-02 -3.250481444900021194e-02 7.199912199765254837e-03 1.292565142691244895e-01 1.017007652823157943e-01 -1.707757714129270674e-02
1.562330450878798571e-01 -6.613381813716785740e-02 1.480645468251305386e-01 -7.485176119090174163e-02 -1.179269986744704707e-01 -1.666191714326132334e-01 -2.164615529960664531e-01 2.843132281414159079e-01 -3.736080596905957951e-02 4.690386751751857847e-02 -2.005177810205592548e-01 -1.017737846181321903e-01 3.205523131305469675e-02 -1.484129827543501090e-01 2.095139174593400322e-01 -6.803684601033173351e-02 9.118994042395234256e-02 -2.744750553477102728e-01 1.241579648567792959e-01 1.574884120211793859e-01 2.226503016609772401e-01
1.898543354659260607e-01 1.543742401927456209e-01 -8.292744262185629267e-02 4.328529662920951870e-02 -1.564457267589619283e-01 -2.152584308833228530e-02 -2.356490804100477565e-01 -1.319236226429190972e-01 8.816673423288419464e-02 -2.298086134081541165e-01 2.335677722289434752e-02 1.764668573088019887e-01 1.382597983752845150e-01 -7.730963317213515595e-02 -3.306505787415478514e-02 2.270785644237685030e-01 2.414675387670615347e-01 -1.093591052136324987e-01 -1.330203010759867244e-01 -5.351962503075276267e-02 -1.775614274371030768e-02
-1.430097575922076869e-01 1.687852231809184866e-01 -1.918137219250440062e-01 5.605930952134103445e-02 -6.511514698046183547e-02 5.661816455067374826e-02 -2.973625033607482301e-02 -3.693857937301146810e-02 1.625409386831332959e-01 1.381471840475113344e-01 -1.375922370953068519e-01 -2.675274198109839005e-02 -1.427917794481755598e-01 -1.344898923423926418e-01 -1.067167308542940202e-01 -1.391702260799528544e-02 -1.854989377727487079e-02 1.328041741263837061e-01 1.352482649935334846e-01 2.239005263875291363e-01 -2.668008259975434074e-02
-1.147181073977452809e-01 1.612732818757069142e-01 2.365831108436877439e-01 -1.015918533434009563e-01 8.542100151791830187e-02 1.986578448399405616e-01 2.476841581925444957e-01 1.852459412007652073e-01 -6.650359422439011681e-02 -7.037577874949241252e-02 2.853955598176576708e-02 -1.135796228238194344e-01 4.156414860870941141e-02 2.052686658346970089e-02 -2.701221773358392780e-02 4.462766970067900095e-03 -2.982258284516082769e-01 -6.346974366535436396e-02 -7.025334280683128048e-03 -1.827808701300850935e-01 -1.646757772364804417e-01
-1.109326719004755518e-01 2.498469703505987183e-02 -8.025457497650435867e-02 2.144058530045653624e-02 2.662017589114441807e-02 6.567071099747606722e-02 -4.349895531957365113e-02 -2.051209816569049826e-01 1.701602492652354651e-02 5.574152114433732902e-02 1.602311622562316643e-02 -4.970960978522934864e-02 3.284913661282169023e-02 1.053530176248218542e-02 2.399867889120132526e-03 2.082922834023049827e-02 9.355849227397940171e-02 -8.019991331877701288e-03 2.357120724427062483e-02 3.339914704654847050e-02 5.289752085842417545e-02
-5.060209118834846365e-02 3.560659355917219354e-02 1.742280433350177071e-01 -2.472439852949471356e-02 -1.109019729261921938e-01 -8.580214188205281811e-02 -5.332967191349522601e-02 8.711206762894475875e-03 1.555995766386389888e-02 1.212695873266340651e-01 1.241961714529142141e-01 -3.174423064895787183e-02 7.182932633084572471e-02 3.444399203559993933e-02 1.845632618329494934e-01 -8.416085233234345264e-02 3.963916351273315264e-02 -8.834727711179357623e-02 1.971810030620204518e-02 -1.316952058191892538e-01 -1.684576646110942932e-01
-6.680904130519950412e-02 4.889163895788343345e-02 8.680353522408679190e-02 1.158774693310665321e-01 -3.888171645880687116e-02 3.119067209257522788e-02 -1.310790151846204510e-01 9.041264445198020361e-02 2.058121970879217902e-02 -7.959004759850778210e-03 -2.720215028201448670e-01 -1.842149287478648742e-02 1.914825638104964423e-01 1.592352196533502184e-01 5.926753231118900810e-03 -5.903253346282220199e-05 -6.209461473690245509e-02 3.800599864968504105e-02 -1.014538879363619528e-01 7.445827953057287951e-02 -1.640867374535391332e-01
2.569992142938133939e-01 1.294819486129407116e-01 -1.466212836572725053e-02 -2.863679511136349443e-02 -2.668836155261803192e-02 -1.028220234636370994e-01 -5.172545767443627318e-02 2.359774103108840809e-02 1.301965096625917473e-01 -6.385654045691128988e-02 5.498664519378486729e-03 9.221231396951666548e-02 -1.567380097904973735e-01 -1.043174800299836169e-01 -2.560556707776903348e-02 1.423964465934175576e-02 -1.412553909161178706e-02 -2.497686545418323079e-01 2.971794408005325183e-02 -1.344697348919418958e-02 1.704494983947898168e-01
2.236912899949679845e-01 2.059523736438622632e-01 5.682842938458443349e-02 -4.849383784388657664e-02 -1.408656116446473094e-01 4.467821759300823897e-02 -4.210438884961569244e-04 -9.829724148019274022e-02 2.879841466944158858e-03 -2.800423169051022287e-01 -1.585057976261985135e-01 -1.648576570891442106e-01 -2.209558931155648220e-01 4.824423512835648853e-02 -9.424991339326607709e-02 2.947463542558226846e-01 3.093338692016417424e-01 1.919151262421072979e-01 3.147544750225911986e-02 -1.658618272228219170e-01 -3.719409562630132671e-02
-3.515531349499995822e-02 -2.207821893716297931e-02 2.611294861755794269e-02 9.429218233273162220e-02 1.716803884239706257e-01 4.495419982915367652e-03 -3.074679680611958153e-03 3.563718968932060721e-02 7.940734499276440317e-02 -5.577921351979748393e-02 -1.714063088043217831e-01 1.187078941911659524e-01 -9.365526860496985184e-02 -3.563456716387931184e-02 -6.334247404835045836e-02 4.208582548325674050e-02 1.421341940492882802e-02 -8.068549190195596632e-02 5.128651890645835598e-02 7.588097387144040161e-03 -8.469569325616471689e-02
-1.521964642130557710e-02 2.021494546436505280e-01 -1.589024160326434343e-01 2.273421025195847007e-03 8.939212210084503812e-03 1.129164838416447242e-01 3.213704382240952645e-02 -3.279329224754239797e-02 1.359181402665475824e-01 5.296894611014879573e-02 4.313144180332035421e-02 -7.913917891087536571e-02 -5.042360519213813508e-02 -5.431296468777752073e-02 -2.737397197827988113e-02 5.571581011059917321e-02 -1.711795889088186806e-01 1.091285286630686580e-01 -7.745196945490963325e-02 4.065685765015711675e-03 -9.254758584946230771e-02
-6.831457659677137029e-02 1.802322896218234299e-02 -4.443062033810972478e-02 1.392838688490755442e-02 -1.115542104300619036e-01 7.962172359207321526e-02 -7.013769457707702548e-02 -6.603678469584002564e-02 3.558551051150690009e-02 5.524776645242965994e-02 8.998944083665004479e-02 -2.716746095529495864e-01 6.447422233143691728e-02 -1.338510759981342280e-01 2.672760687451596340e-01 1.243982087560287046e-02 7.786571140982415096e-02 -5.195233183614182682e-02 -7.637925370528599392e-03 1.255636384933121463e-01 -1.442584396567353142e-02
1.107966605320006709e-01 -8.722329356089604524e-02 6.020567651022710326e-02 -1.029080011604575073e-01 -3.675505401418845824e-02 4.127109424616183520e-02 9.489582598283622175e-03 -8.074483296782364317e-02 -6.519032604311222889e-02 -1.933510874763837151e-02 2.372041351525993325e-01 -5.151874096318144469e-02 -1.900035108836748907e-02 -1.204162381168644436e-01 2.766954602213380493e-02 5.978165014181732045e-02 -1.381769060025126727e-01 -3.332859596997095331e-02 -3.882443227563824734e-02 2.261122409317533888e-01 2.089134619774190085e-02
-5.282768969079133098e-02 1.842277842647339556e-02 9.059848380383965505e-02 -7.831951115530273733e-02 1.717083620286777301e-01 -1.880496265857769245e-01 1.190351442285852990e-01 -1.438508169278504834e-01 -5.872400105796424415e-03 1.800903647155887438e-02 3.688916276616671652e-02 1.606164163857642935e-01 4.245961249174215468e-02 -6.393382782432821543e-02 -6.384749017303545382e-02 -6.038945897938748780e-02 -2.020100494187222415e-02 7.078247588116268543e-03 1.203286663359522633e-02 9.653978948005435563e-04 -5.236309131114272623e-04
5.597826834299834270e-02 3.308238711089430545e-02 -9.117816477050028068e-02 5.779567847381412299e-02 1.017466337665046822e-01 -8.404777520596300178e-02 1.360771887212518412e-02 -2.477371229220450694e-02 1.188261135242940220e-01 -7.319561066369170699e-02 2.697380544917911752e-02 9.528915337696262922e-02 -1.547161455193957202e-02 1.095013386522720178e-01 -3.811928146433538750e-02 -1.095608339843421181e-01 -1.022910906169440387e-01 7.064769864230723007e-02 7.084634208896826990e-02 -1.442393620697015877e-01 -7.141769268069773913e-02
-2.292426621335096754e-02 -8.904260630820845512e-02 -2.040394213116754063e-01 1.092439712045530226e-01 1.080959221260765629e-01 -2.371219626887721699e-01 1.677526680659938846e-02 7.544146946072023685e-02 2.661479714288639831e-01 -9.082134704428204697e-02 -1.917935130525258089e-02 7.437394733991171958e-02 -3.440306006988878146e-02 -5.278007285630825079e-02 -5.769334855953624219e-02 3.085411466094267058e-02 2.545608312761535319e-02 3.518045888599587862e-02 -8.724679344573271766e-03 -4.799139282257539746e-02 1.231524063272797648e-01
-8.044992741084690258e-02 5.174792911792343297e-02 -1.678272300638345566e-02 4.801206449370087892e-02 -2.897803195113639319e-02 1.022937645644527993e-01 8.481159859625636566e-02 -8.284156776917082909e-02 8.480357675373004223e-02 -3.849558815412713799e-03 1.872457454049195405e-02 -4.591764368539012070e-02 -1.082887548791127835e-01 4.087689267688831424e-02 -2.092862719666223337e-02 -8.471569644041301861e-02 3.152872076416459585e-02 -1.408782614732465022e-01 1.444803258778956656e-01 -3.105851737916106789e-02 3.740991404349946342e-02
5.436176422981255779e-02 3.082732376378750916e-02 -1.428710722762240384e-02 -1.014529623391473984e-01 3.478080657756987132e-02 8.351483689863836712e-02 -3.225197214321911393e-02 -3.106931601333109277e-02 8.054546961221792367e-03 1.204609753155688467e-01 -5.143759694070380861e-02 -4.398931615502789383e-02 -2.461173277965408163e-02 7.027648273719562695e-03 -2.802338126843839997e-02 -6.439420959444375203e-02 1.054690772311159125e-01 4.962332355600407481e-03 4.788813731108292754e-02 -9.559789147009049859e-02 -1.023191156437186326e-02
-6.989241131521495287e-02 3.042335200169348983e-02 1.093616763170063289e-01 1.983030325743538949e-02 -2.009193873675493500e-02 1.090880080738973051e-01 5.851147365308459469e-02 1.601267754592547443e-02 -1.565729963759658616e-01 9.023544400745677841e-04 -3.061181387899422277e-02 1.633267707183064937e-02 6.609586865137032953e-03 5.986145719054056756e-03 -1.627266751908577891e-01 -4.154260276243683381e-02 3.240279306712717799e-02 6.807155590587825322e-02 2.558124443985273014e-02 -3.412121571805103865e-02 1.644580562027856893e-02
-1.663334190036472593e-01 9.082628356275977699e-02 -2.954747992636922935e-02 -1.187566937332009687e-01 3.967392483034714451e-02 6.297357213627530204e-02 1.201333653236771881e-01 -8.035304823572150812e-02 -1.567646978435175975e-01 5.838209573131415003e-02 1.277410030964622190e-01 1.010858087773664205e-01 2.390377946567376344e-01 -1.032413190018390409e-01 -8.790926394103024122e-02 -2.402145886709333711e-02 6.584832281853930658e-02 2.326653149447339627e-02 -1.084416326857198937e-01 -1.404952184926153425e-01 8.689552930280193543e-02
1.162232313127773420e-01 -3.808729693836510662e-03 1.048761293710464004e-01 3.818695290513422769e-02 7.182377274755827323e-02 3.345925944342829916e-02 7.509904991339538816e-02 5.739900864530174396e-02 -2.304603366913491116e-02 8.447334423639707435e-02 -7.915141736293472563e-02 -8.195253164457262651e-02 -1.963102217713763586e-01 4.110834340259925980e-03 -1.323809705110535508e-02 -6.553120292841278782e-02 -1.960157790130069144e-03 9.673447342751971545e-02 -5.214115366791489264e-02 -4.841336230828612724e-02 -1.168331998771815344e-01
-1.992989751772353824e-01 2.162565332130383239e-02 -7.300555470229920518e-02 2.664446767582023812e-01 -2.290760546348863738e-02 -8.607899829334537262e-03 1.536980914274994336e-01 1.456324372997027349e-02 -2.086455530058673249e-02 -7.188306239135848485e-02 6.780585808322807384e-02 -1.133690494575038815e-01 -6.477936087984142999e-02 -5.510512163725032886e-02 1.656855009534455858e-01 6.613788048049848434e-02 -4.465651748053323100e-02 1.307357728842159783e-01 -1.503191987956975229e-01 1.867448944677000885e-02 -8.057426597000466595e-02
2.872292707438634310e-02 -1.333701768230956264e-01 1.219981866007061322e-01 -1.838369765519138818e-02 -7.517227493748167289e-02 1.859679070281328173e-01 1.967392875023988089e-02 7.455217622578466652e-02 -8.795189283496811228e-02 -4.909341915066053191e-02 2.291686143563437944e-02 -1.614030711740171292e-02 1.474688735954847729e-01 3.436166530557033943e-02 -1.344841330708352878e-01 -2.132121411301699243e-01 3.285304468994989374e-02 -7.042714939490126586e-03 8.482352851591086484e-02 4.385870410363802707e-02 -6.234709708821122021e-02
1.249833918839093026e-02 6.983111621078316733e-02 7.219719980157136840e-02 -1.457183121523882297e-01 7.224687351875348773e-02 -1.314610297239020807e-02 1.202223255004112173e-01 -8.957924700439139076e-02 3.968112391979383008e-02 -1.271607564870593510e-01 2.885325116219834007e-01 -3.144122097414687733e-01 -1.017581008875519111e-02 6.118536973978605520e-02 6.461064507645160326e-02 -8.912570436925019990e-02 -3.606337578456439430e-01 7.127885309851166029e-02 2.394599698307182944e-01 -4.158281481920331896e-02 7.979054223959798631e-02
-1.306758661756060591e-01 1.587074749748406677e-01 5.551552115777888541e-02 1.429305161862266527e-01 1.378163344653686728e-01 -7.627255291527262893e-02 6.147549304448749613e-02 4.480512725553981168e-02 3.284065197168809652e-02 1.432465562129361658e-01 -2.220907781447673257e-01 -3.756731699204450547e-02 -2.164592904250974836e-01 -3.720587127975340941e-02 4.323927387881820739e-02 -1.191997976886444849e-01 -2.095455934529054653e-01 -3.101629986176300535e-02 1.186823888456976922e-01 1.275132547596095622e-01 1.326072276079493656e-02
-1.043497730883587334e-02 9.245070667433690978e-03 9.122855839662706579e-02 1.949172493855101662e-01 8.451782432476410284e-03 -4.015446405091341320e-03 1.742560169397248254e-02 4.648596037513847562e-02 -2.247976357767211275e-01 -2.368916946706131968e-02 -1.219708300608087215e-01 1.631599575314133244e-01 -1.411899306242205276e-01 -3.803705757844073887e-02 -3.040900524486759432e-02 8.001016588978936486e-03 1.446458535131019685e-01 1.534285369497885229e-02 -4.502979026834388193e-02 -4.882072792683357643e-02 -1.050933361840664104e-02
-7.977172176290164840e-02 -2.150642611565322659e-01 -5.431517583667901106e-02 1.288581989344528833e-01 6.999571824877488802e-03 5.658360892132964504e-02 -1.022595688895810428e-01 4.194868282929737485e-02 -9.520425554355921305e-02 2.130755126968853497e-01 1.561276812716208724e-02 1.423410650267455391e-01 -8.698906604354136873e-02 1.425350804873337374e-01 1.786793431840383653e-02 -2.443466603250610270e-01 4.251319428605248446e-03 -4.947507373546982529e-02 1.714333568118143469e-01 3.716889881323792721e-03 -1.779810315077098859e-02
2.689744367897677069e-02 -7.402941948782032489e-02 1.531728150082287410e-01 7.809983608304385538e-03 -2.503028784008438645e-01 1.952676907753613245e-01 1.095484926881478138e-01 1.493486072720818791e-01 -1.434833034115971795e-01 -3.555954236743135571e-02 -5.062805933242401496e-02 -1.995370593496507694e-01 2.389691461966567468e-02 3.194575887360434074e-01 -1.182283319898817381e-01 -1.512976064735695736e-01 1.002028918787978978e-01 2.151242192872096504e-02 1.870431424590628111e-02 -1.940487820879024938e-01 9.129581846088610786e-02
4.117395796069905217e-02 2.322035447787965459e-02 1.261919133137379134e-01 1.244816667715427788e-01 -1.587749407273696123e-01 1.707976257916045126e-01 -6.457012448728026432e-02 7.306818678048536408e-02 1.237547644256974388e-01 -6.315447496965700958e-02 -1.051836847566223060e-01 -1.037922550327804172e-01 -1.498385567309963029e-01 1.420645685699253591e-01 -7.045178056522242993e-02 8.100312601275722058e-02 1.526923272097299444e-01 -3.212717592766082264e-01 3.090440544293451830e-02 -1.270868115540284005e-01 7.477154276563865998e-02
-2.897787768493396716e-03 2.162204863437374447e-01 -5.354024527981077891e-02 -1.170779689183688438e-01 -2.184098322886094956e-01 8.265768245587550023e-02 6.984957673300717929e-02 2.154531148307882449e-01 -6.756504854123643322e-02 -1.498750663989044940e-01 -2.093155311230163740e-01 -4.268072738189035431e-02 1.412694291405389158e-01 4.046885857146366450e-02 1.308528095097920840e-01 1.750604637633244587e-01 2.901803831963297581e-02 -2.308002365573676162e-02 -1.163285951290363440e-01 -7.343518607606390469e-02 -2.664449852906072488e-02
-3.515504610024908216e-01 1.772631794457403542e-02 -1.118342550095379785e-02 3.139279681320441551e-01 1.194268775386199410e-01 -4.705119174083825464e-05 -7.105516710498963051e-02 -8.438464117000042675e-02 2.961242599759183070e-03 -8.643514753268639883e-02 -4.887538958456091182e-02 -3.160513395643441137e-02 7.720216105110963567e-02 -2.991381073507057634e-02 1.636660020974478047e-01 7.133166356180983825e-03 -1.675253825277485051e-02 -1.504769102766474187e-01 1.107774801008319931e-01 4.277323568128026804e-02 2.668527622856944892e-02
5.656360573708135719e-02 -9.876466807355255284e-02 3.131151395114459279e-02 7.925385012134757157e-02 -2.480389704581311208e-02 2.859221217886152161e-02 8.479529780086636492e-02 8.367398819747759540e-04 -2.232859298370520884e-02 -1.004167048353644814e-01 3.699627493271990392e-02 -6.311066336816717470e-02 1.895679659721503929e-02 1.087941823803375944e-02 3.488776447792062835e-02 -2.836976031495893474e-02 -4.513556546114268209e-02 3.796774063148265071e-02 -1.107830851061869376e-01 1.199916975277799114e-01 -4.731997488753700992e-02
-9.191134060857772403e-02 1.253760507911585165e-01 -1.931344463061059336e-01 1.050940560930110762e-01 2.084730319694842737e-01 -1.978601343071803020e-01 8.144638423440316022e-02 -5.977522238338277283e-02 2.768127025351840853e-02 -1.841351731212090836e-01 1.221576978540176994e-01 1.109731924896469046e-01 1.912847945389824778e-01 -1.858292217121491618e-01 -1.840493496905910853e-02 -2.166401418364117398e-02 -2.594222735353653858e-02 8.289376116765929947e-02 -8.011480979710369765e-02 -1.844601605876594608e-01 1.878512916715207315e-01
-2.452924664121530762e-01 -8.758257954635312315e-02 -1.991850752977753214e-01 -8.444814742333368873e-02 -7.532237595244506423e-02 1.100351511347437694e-01 1.245155024919421954e-01 1.036754240954741862e-01 5.570552569710390811e-02 -8.802429510597478213e-04 8.738229059353284922e-02 -1.569709003340976627e-01 3.278126976816643223e-01 1.509309671324633555e-02 -5.969798643803333332e-02 -1.490102500680876574e-01 7.092239532676575253e-02 7.270093037456944185e-02 2.730290668102760068e-02 -1.141681998081534588e-01 1.774123548634891911e-01
8.844996698054380380e-02 4.915538274196951281e-03 1.224780573343952073e-01 -1.063957543091067909e-01 -2.006582661089045816e-01 2.661740938391419786e-01 1.328980193995280001e-01 -3.079235675790360088e-02 -8.041676017732468651e-02 -1.282009220679704853e-01 -3.469770851652813348e-02 -1.331575979961484857e-01 -6.882000409799618468e-02 1.920519089415943237e-01 -1.541822816148565034e-01 4.399394414110077006e-02 1.041700015404615071e-01 4.611577291137640422e-02 3.807474995390088685e-02 -3.498911737291646867e-02 -6.701128429658388674e-02
-7.009804816305277575e-02 -5.405328324702208392e-02 -3.723487332581005421e-02 -6.433774816435474525e-03 9.223406550405915949e-02 -3.459954378971582395e-02 6.402505057203121408e-02 5.626612907673082115e-02 -1.094451857545878856e-02 -1.050311154824200427e-01 1.400704722152608939e-01 -1.566408735050345974e-02 4.214449806224722372e-02 -2.163087266115268081e-01 -1.517640046255798736e-01 -4.749722675412790251e-02 -1.522322539720192547e-01 8.991066222927630858e-02 1.228907194258927194e-01 1.340235970345173000e-01 1.602963654377916602e-01
-4.707376602846035513e-02 -1.662727923860926882e-01 -1.554442305727930240e-01 -1.917780864322829112e-02 2.076910565893717586e-01 7.078612684795350385e-02 1.373200086700871736e-01 -4.254790418159900417e-02 1.355033184482160591e-01 3.508856765141568634e-02 -4.099932861954944802e-02 3.672229815720603335e-02 1.274141130135152122e-02 -2.026682518824192078e-02 -6.610964976545398442e-02 -7.875798712467335649e-02 1.284169461734385176e-01 -7.663806097089434499e-02 -4.014042582649237495e-02 -6.602120380939470456e-02 5.518030069990071534e-02
-2.022471051497880951e-02 -6.711567109356082750e-02 -1.213347390861265751e-01 -1.121424274599236021e-01 7.621927965336715294e-02 8.399882139772554823e-02 -5.522313528210849587e-02 3.758541755979616806e-03 -6.012257844918535155e-02 4.306479880387103359e-02 4.540619980227057588e-03 -9.624149006662419126e-02 7.891698415731016047e-02 -4.042134458111554945e-03 1.000665719779181562e-01 -5.507745656494806435e-02 -2.315432854324005283e-03 1.386088513693138069e-01 1.206859468607777847e-01 -1.104525440564491090e-02 -4.497538572095392123e-02
-7.393824816218481054e-03 -1.418657708570618750e-02 3.078916858972007009e-02 -5.582837301630484694e-02 -2.861723415689549910e-01 1.730655960776478763e-01 2.240048103403711501e-03 2.886927427842396823e-02 -1.143786189082666022e-01 -8.933247250257250749e-03 -3.307076572364465311e-02 -2.184836229554380088e-02 1.451213019489880698e-02 -3.230869068364550234e-02 1.130240073847377236e-01 6.039305852411083059e-02 2.976256300800245724e-01 -1.353872588419219869e-01 -4.989791739632765122e-03 3.924352212557030012e-02 -4.526448058430582871e-02
-1.294438962830082307e-01 1.913223840703076883e-01 1.696315275674438738e-01 -3.119025557382866798e-01 9.136271857067279623e-02 -2.294636227574554654e-01 -4.384448075977407377e-01 -1.070117906774731703e-01 1.731283309999689934e-02 8.631209452521554359e-02 2.481922082192105847e-02 -3.868137608391910426e-02 3.730195855503966595e-01 1.233946042650932440e-01 8.865997470411711434e-02 3.010953855050571004e-01 -3.858799360938209438e-02 1.394463625823007258e-01 1.193642968825012612e-01 -2.852990920190720536e-01 -1.469056991124840506e-01
-1.168988144352813355e-02 -3.690145264029355554e-02 -3.390565441119028356e-03 -2.780837017769964281e-01 1.828169684214534796e-01 -2.281468578755891860e-02 3.043240228556932242e-02 -9.987260793939746473e-02 -8.365794451242497543e-02 -4.228292626789349751e-02 2.841938261007358885e-02 1.033307419771803820e-01 8.506423521376753338e-02 9.399244310141210978e-02 -1.712509113164083219e-02 2.373148468638758557e-01 -1.651840329514164540e-01 -1.906977087946052848e-02 -2.075497487479468356e-02 -3.270649179764236088e-03 4.272731577502390798e-02
-1.103210064078446462e-01 8.012386008097953372e-02 -1.264378650624771727e-01 1.683601169490917260e-01 2.291193520157014663e-01 1.366443227034482566e-01 -7.655933378558808788e-02 1.661721079779740484e-01 1.243386105798236357e-01 3.961422381000713477e-02 -8.895472599489141763e-02 -1.183607438136332762e-01 -1.056799591298363400e-01 -1.422169321558577060e-01 1.109669704194822665e-01 1.099906196243092549e-01 -8.710836524008645776e-02 -6.471179228317754106e-02 -2.540466106013902770e-02 -1.571352966838194809e-01 -6.243945112139868969e-02
2.384682952594373295e-02 2.387248913761442007e-02 5.232930701281077179e-02 -9.896505987050778497e-02 4.505596410068932883e-02 5.114690799326013920e-02 3.089412102943925320e-02 -3.189844542931937615e-02 -3.338264056288857418e-02 -7.651619067097545357e-02 8.051816449438799206e-02 -6.364817823949721863e-03 1.293422862776750226e-01 -7.150475024093515264e-02 -1.593569871091341308e-02 3.904477583477429839e-04 -1.288040514974003181e-01 -7.564196410181042718e-02 -8.992434049922502434e-03 8.276052659082813734e-02 2.784890619349122964e-02
3.762218433804174339e-02 -8.936270867824859521e-02 -6.047265988456418384e-02 1.526685187924884182e-02 9.820036230506734576e-02 2.320981295404700787e-02 -4.585994812568168488e-02 -3.986680900545084422e-02 -1.552545859879403134e-01 5.748524345245954736e-02 5.865776943505474073e-02 8.109049210539950869e-02 -4.765365268339088328e-02 2.648010217933891020e-02 4.648585753100351742e-02 9.459706377079876022e-03 -1.018064376309796640e-02 -1.606425387960423029e-02 -2.632038523775744043e-02 -4.392812389473107343e-02 8.100538858372619000e-02
1.453707503983157068e-01 -1.757736364171536281e-01 2.754774257090262801e-01 -5.908930342531606289e-02 9.440577367978683675e-04 2.314826073927784417e-02 -2.808598249338408737e-01 -3.289793615485672035e-02 -4.906056044954316270e-02 3.417347082302048533e-01 2.403493144877213300e-02 2.387243771554694444e-02 -2.602625101179285340e-03 6.779804192897168069e-02 -7.390148138393923261e-02 -1.179889622657794360e-02 -5.285628036030816379e-02 4.236396744623618232e-02 -1.327548089416064336e-01 1.687507703957093486e-01 -2.419000497766048974e-01
-1.243488435712514356e-01 2.113293221295242663e-01 -2.164130105643688184e-01 -5.718303596190117688e-02 5.787409712671552631e-02 -2.892321602720663090e-02 1.242056331133298691e-01 -3.712184762149708939e-02 -8.345061073636043936e-02 -6.870630990680602623e-02 8.313611337167523332e-03 8.325824078193150291e-02 7.212407762162002453e-03 -4.869042440784856346e-02 9.596586778495107273e-02 1.464707198437018021e-01 -2.168506637806598136e-01 8.245765061339258017e-02 -2.765057127923504013e-02 2.514585379453068009e-02 6.710507814766070167e-02
-2.205949616239484823e-01 -2.612354156345806505e-02 3.052151672850579242e-02 -2.036997785559942903e-02 4.648662886201566924e-02 -6.214850506361764559e-02 2.175656362068506267e-01 1.308234475092631133e-01 5.483217330308599174e-02 -1.700588449481721387e-01 -1.213392642280645001e-01 3.499333398244952598e-02 1.115777103148985899e-01 6.165763000748863271e-02 1.485717226766495314e-01 -3.750375931664375745e-02 1.501207096152388787e-01 -1.590646012334637482e-01 1.193841972226145770e-01 -2.416256102024837427e-01 -4.770569181567692330e-02