 Set GAUSS_MDEF to "14GB".
 Entering Gaussian System, Link 0=g16
 Initial command:
 /home/sekinelabo/g16/l1.exe "/home/sekinelabo/g16temp/Gau-149463.inp" -scrdir="/home/sekinelabo/g16temp/"
 Entering Link 1 = /home/sekinelabo/g16/l1.exe PID=    149465.
  
 Copyright (c) 1988-2017, Gaussian, Inc.  All Rights Reserved.
  
 This is part of the Gaussian(R) 16 program.  It is based on
 the Gaussian(R) 09 system (copyright 2009, Gaussian, Inc.),
 the Gaussian(R) 03 system (copyright 2003, Gaussian, Inc.),
 the Gaussian(R) 98 system (copyright 1998, Gaussian, Inc.),
 the Gaussian(R) 94 system (copyright 1995, Gaussian, Inc.),
 the Gaussian 92(TM) system (copyright 1992, Gaussian, Inc.),
 the Gaussian 90(TM) system (copyright 1990, Gaussian, Inc.),
 the Gaussian 88(TM) system (copyright 1988, Gaussian, Inc.),
 the Gaussian 86(TM) system (copyright 1986, Carnegie Mellon
 University), and the Gaussian 82(TM) system (copyright 1983,
 Carnegie Mellon University). Gaussian is a federally registered
 trademark of Gaussian, Inc.
  
 This software contains proprietary and confidential information,
 including trade secrets, belonging to Gaussian, Inc.
  
 This software is provided under written license and may be
 used, copied, transmitted, or stored only in accord with that
 written license.
  
 The following legend is applicable only to US Government
 contracts under FAR:
  
                    RESTRICTED RIGHTS LEGEND
  
 Use, reproduction and disclosure by the US Government is
 subject to restrictions as set forth in subparagraphs (a)
 and (c) of the Commercial Computer Software - Restricted
 Rights clause in FAR 52.227-19.
  
 Gaussian, Inc.
 340 Quinnipiac St., Bldg. 40, Wallingford CT 06492
  
  
 ---------------------------------------------------------------
 Warning -- This program may not be used in any manner that
 competes with the business of Gaussian, Inc. or will provide
 assistance to any competitor of Gaussian, Inc.  The licensee
 of this program is prohibited from giving any competitor of
 Gaussian, Inc. access to this program.  By using this program,
 the user acknowledges that Gaussian, Inc. is engaged in the
 business of creating and licensing software in the field of
 computational chemistry and represents and warrants to the
 licensee that it is not a competitor of Gaussian, Inc. and that
 it will not use this program in any manner prohibited above.
 ---------------------------------------------------------------
  

 Cite this work as:
 Gaussian 16, Revision B.01,
 M. J. Frisch, G. W. Trucks, H. B. Schlegel, G. E. Scuseria, 
 M. A. Robb, J. R. Cheeseman, G. Scalmani, V. Barone, 
 G. A. Petersson, H. Nakatsuji, X. Li, M. Caricato, A. V. Marenich, 
 J. Bloino, B. G. Janesko, R. Gomperts, B. Mennucci, H. P. Hratchian, 
 J. V. Ortiz, A. F. Izmaylov, J. L. Sonnenberg, D. Williams-Young, 
 F. Ding, F. Lipparini, F. Egidi, J. Goings, B. Peng, A. Petrone, 
 T. Henderson, D. Ranasinghe, V. G. Zakrzewski, J. Gao, N. Rega, 
 G. Zheng, W. Liang, M. Hada, M. Ehara, K. Toyota, R. Fukuda, 
 J. Hasegawa, M. Ishida, T. Nakajima, Y. Honda, O. Kitao, H. Nakai, 
 T. Vreven, K. Throssell, J. A. Montgomery, Jr., J. E. Peralta, 
 F. Ogliaro, M. J. Bearpark, J. J. Heyd, E. N. Brothers, K. N. Kudin, 
 V. N. Staroverov, T. A. Keith, R. Kobayashi, J. Normand, 
 K. Raghavachari, A. P. Rendell, J. C. Burant, S. S. Iyengar, 
 J. Tomasi, M. Cossi, J. M. Millam, M. Klene, C. Adamo, R. Cammi, 
 J. W. Ochterski, R. L. Martin, K. Morokuma, O. Farkas, 
 J. B. Foresman, and D. J. Fox, Gaussian, Inc., Wallingford CT, 2016.
 
 ******************************************
 Gaussian 16:  ES64L-G16RevB.01 20-Dec-2017
                 5-Dec-2023 
 ******************************************
 %nproc=15
 Will use up to   15 processors via shared memory.
 -------------------------
 #P B3LYP/6-311+g(d) force
 -------------------------
 1/10=7,30=1,38=1/1,3;
 2/12=2,17=6,18=5,40=1/2;
 3/5=4,6=6,7=11,11=2,25=1,30=1,71=1,74=-5/1,2,3;
 4//1;
 5/5=2,38=5/2;
 6/7=2,8=2,9=2,10=2,28=1/1;
 7/29=1/1,2,3,16;
 1/10=7,30=1/3;
 99//99;
 Leave Link    1 at Tue Dec  5 13:32:50 2023, MaxMem=           0 cpu:               0.3 elap:               0.0
 (Enter /home/sekinelabo/g16/l101.exe)
 -----
 DPGEN
 -----
 Symbolic Z-matrix:
 Charge =  0 Multiplicity = 2
 Na                    15.318    14.4104   12.596 
 Na                    13.7414   11.6392   14.7017 
 Na                    11.3942   13.8385   9.59667 
 Na                    9.87129   13.0935   12.7887 
 Na                    12.7995   12.2202   11.7402 
 Na                    12.8792   8.59509   12.8384 
 Na                    12.3772   14.5838   14.1192 
 
 ITRead=  0  0  0  0  0  0  0
 MicOpt= -1 -1 -1 -1 -1 -1 -1
 NAtoms=      7 NQM=        7 NQMF=       0 NMMI=      0 NMMIF=      0
                NMic=       0 NMicF=      0.
                    Isotopes and Nuclear Properties:
 (Nuclear quadrupole moments (NQMom) in fm**2, nuclear magnetic moments (NMagM)
  in nuclear magnetons)

  Atom         1           2           3           4           5           6           7
 IAtWgt=          23          23          23          23          23          23          23
 AtmWgt=  22.9897697  22.9897697  22.9897697  22.9897697  22.9897697  22.9897697  22.9897697
 NucSpn=           3           3           3           3           3           3           3
 AtZEff=  -0.0000000  -0.0000000  -0.0000000  -0.0000000  -0.0000000  -0.0000000  -0.0000000
 NQMom=   10.4000000  10.4000000  10.4000000  10.4000000  10.4000000  10.4000000  10.4000000
 NMagM=    2.2175200   2.2175200   2.2175200   2.2175200   2.2175200   2.2175200   2.2175200
 AtZNuc=  11.0000000  11.0000000  11.0000000  11.0000000  11.0000000  11.0000000  11.0000000
 Leave Link  101 at Tue Dec  5 13:32:50 2023, MaxMem=  1879048192 cpu:               2.4 elap:               0.2
 (Enter /home/sekinelabo/g16/l103.exe)

 GradGradGradGradGradGradGradGradGradGradGradGradGradGradGradGradGradGrad
 Berny optimization.
 Initialization pass.
 Trust Radius=3.00D-01 FncErr=1.00D-07 GrdErr=1.00D-07 EigMax=2.50D+02 EigMin=1.00D-04
 Number of steps in this run=      2 maximum allowed number of steps=      2.
 GradGradGradGradGradGradGradGradGradGradGradGradGradGradGradGradGradGrad

 Leave Link  103 at Tue Dec  5 13:32:50 2023, MaxMem=  1879048192 cpu:               0.2 elap:               0.0
 (Enter /home/sekinelabo/g16/l202.exe)
                          Input orientation:                          
 ---------------------------------------------------------------------
 Center     Atomic      Atomic             Coordinates (Angstroms)
 Number     Number       Type             X           Y           Z
 ---------------------------------------------------------------------
      1         11           0       15.318000   14.410400   12.596000
      2         11           0       13.741400   11.639200   14.701700
      3         11           0       11.394200   13.838500    9.596670
      4         11           0        9.871290   13.093500   12.788700
      5         11           0       12.799500   12.220200   11.740200
      6         11           0       12.879200    8.595090   12.838400
      7         11           0       12.377200   14.583800   14.119200
 ---------------------------------------------------------------------
                    Distance matrix (angstroms):
                    1          2          3          4          5
     1  Na   0.000000
     2  Na   3.820889   0.000000
     3  Na   4.971846   6.033871   0.000000
     4  Na   5.606961   4.555470   3.614324   0.000000
     5  Na   3.445608   3.161522   3.031251   3.230545   0.000000
     6  Na   6.310652   3.671768   6.340929   5.411625   3.788643
     7  Na   3.316400   3.297123   4.687754   3.204810   3.380027
                    6          7
     6  Na   0.000000
     7  Na   6.144681   0.000000
 Stoichiometry    Na7(2)
 Framework group  C1[X(Na7)]
 Deg. of freedom    15
 Full point group                 C1      NOp   1
 Largest Abelian subgroup         C1      NOp   1
 Largest concise Abelian subgroup C1      NOp   1
                         Standard orientation:                         
 ---------------------------------------------------------------------
 Center     Atomic      Atomic             Coordinates (Angstroms)
 Number     Number       Type             X           Y           Z
 ---------------------------------------------------------------------
      1         11           0       -0.925735    2.729907   -1.457415
      2         11           0        1.942881    1.485592    0.738470
      3         11           0       -2.533229   -1.973895   -1.360099
      4         11           0       -1.047363   -1.739278    1.926311
      5         11           0        0.071031   -0.510903   -0.844377
      6         11           0        3.736730   -1.432265   -0.584443
      7         11           0       -1.244316    1.440842    1.581553
 ---------------------------------------------------------------------
 Rotational constants (GHZ):           0.6711284           0.5572554           0.4520261
 Leave Link  202 at Tue Dec  5 13:32:50 2023, MaxMem=  1879048192 cpu:               0.0 elap:               0.0
 (Enter /home/sekinelabo/g16/l301.exe)
 Standard basis: 6-311+G(d) (5D, 7F)
 Ernie: Thresh=  0.10000D-02 Tol=  0.10000D-05 Strict=F.
 There are   217 symmetry adapted cartesian basis functions of A   symmetry.
 There are   210 symmetry adapted basis functions of A   symmetry.
   210 basis functions,   350 primitive gaussians,   217 cartesian basis functions
    39 alpha electrons       38 beta electrons
       nuclear repulsion energy       331.3654408726 Hartrees.
 IExCor=  402 DFT=T Ex+Corr=B3LYP ExCW=0 ScaHFX=  0.200000
 ScaDFX=  0.800000  0.720000  1.000000  0.810000 ScalE2=  1.000000  1.000000
 IRadAn=      5 IRanWt=     -1 IRanGd=            0 ICorTp=0 IEmpDi=  4
 NAtoms=    7 NActive=    7 NUniq=    7 SFac= 1.00D+00 NAtFMM=   60 NAOKFM=F Big=F
 Integral buffers will be    131072 words long.
 Raffenetti 2 integral format.
 Two-electron integral symmetry is turned on.
 Leave Link  301 at Tue Dec  5 13:32:50 2023, MaxMem=  1879048192 cpu:               0.5 elap:               0.0
 (Enter /home/sekinelabo/g16/l302.exe)
 NPDir=0 NMtPBC=     1 NCelOv=     1 NCel=       1 NClECP=     1 NCelD=      1
         NCelK=      1 NCelE2=     1 NClLst=     1 CellRange=     0.0.
 One-electron integrals computed using PRISM.
 One-electron integral symmetry used in STVInt
 NBasis=   210 RedAO= T EigKep=  5.05D-06  NBF=   210
 NBsUse=   210 1.00D-06 EigRej= -1.00D+00 NBFU=   210
 Precomputing XC quadrature grid using
 IXCGrd= 4 IRadAn=           5 IRanWt=          -1 IRanGd=           0 AccXCQ= 0.00D+00.
 Generated NRdTot=       0 NPtTot=           0 NUsed=           0 NTot=          32
 NSgBfM=   211   211   211   211   211 MxSgAt=     7 MxSgA2=     7.
 Leave Link  302 at Tue Dec  5 13:32:51 2023, MaxMem=  1879048192 cpu:               1.9 elap:               0.1
 (Enter /home/sekinelabo/g16/l303.exe)
 DipDrv:  MaxL=1.
 Leave Link  303 at Tue Dec  5 13:32:51 2023, MaxMem=  1879048192 cpu:               0.5 elap:               0.0
 (Enter /home/sekinelabo/g16/l401.exe)
 ExpMin= 7.60D-03 ExpMax= 3.62D+04 ExpMxC= 1.21D+03 IAcc=3 IRadAn=         5 AccDes= 0.00D+00
 Harris functional with IExCor=  402 and IRadAn=       5 diagonalized for initial guess.
 HarFok:  IExCor=  402 AccDes= 0.00D+00 IRadAn=         5 IDoV= 1 UseB2=F ITyADJ=14
 ICtDFT=  3500011 ScaDFX=  1.000000  1.000000  1.000000  1.000000
 FoFCou: FMM=F IPFlag=           0 FMFlag=      100000 FMFlg1=           0
         NFxFlg=           0 DoJE=T BraDBF=F KetDBF=T FulRan=T
         wScrn=  0.000000 ICntrl=       500 IOpCl=  0 I1Cent=   200000004 NGrid=           0
         NMat0=    1 NMatS0=      1 NMatT0=    0 NMatD0=    1 NMtDS0=    0 NMtDT0=    0
 Petite list used in FoFCou.
 Harris En= -1135.89464989283    
 JPrj=0 DoOrth=F DoCkMO=F.
 Initial guess <Sx>= 0.0000 <Sy>= 0.0000 <Sz>= 0.5000 <S**2>= 0.7500 S= 0.5000
 Leave Link  401 at Tue Dec  5 13:32:51 2023, MaxMem=  1879048192 cpu:               4.4 elap:               0.3
 (Enter /home/sekinelabo/g16/l502.exe)
 Keep R1 and R2 ints in memory in canonical form, NReq=506573335.
 FoFCou: FMM=F IPFlag=           0 FMFlag=           0 FMFlg1=           0
         NFxFlg=           0 DoJE=F BraDBF=F KetDBF=F FulRan=T
         wScrn=  0.000000 ICntrl=       600 IOpCl=  0 I1Cent=           0 NGrid=           0
         NMat0=    1 NMatS0=  22155 NMatT0=    0 NMatD0=    1 NMtDS0=    0 NMtDT0=    0
 Symmetry not used in FoFCou.
 Two-electron integral symmetry not used.
 UHF open shell SCF:
 Using DIIS extrapolation, IDIIS=  1040.
 NGot=  1879048192 LenX=  1388082565 LenY=  1388035035
 Requested convergence on RMS density matrix=1.00D-08 within 128 cycles.
 Requested convergence on MAX density matrix=1.00D-06.
 Requested convergence on             energy=1.00D-06.
 No special actions if energy rises.

 Cycle   1  Pass 1  IDiag  1:
 E= -1136.08519977243    
 DIIS: error= 1.14D-02 at cycle   1 NSaved=   1.
 NSaved= 1 IEnMin= 1 EnMin= -1136.08519977243     IErMin= 1 ErrMin= 1.14D-02
 ErrMax= 1.14D-02  0.00D+00 EMaxC= 1.00D-01 BMatC= 1.94D-01 BMatP= 1.94D-01
 IDIUse=3 WtCom= 8.86D-01 WtEn= 1.14D-01
 Coeff-Com:  0.100D+01
 Coeff-En:   0.100D+01
 Coeff:      0.100D+01
 Gap=     0.054 Goal=   None    Shift=    0.000
 Gap=     0.038 Goal=   None    Shift=    0.000
 GapD=    0.038 DampG=0.250 DampE=0.500 DampFc=0.2500 IDamp=-1.
 Damping current iteration by 2.50D-01
 RMSDP=2.72D-02 MaxDP=2.45D+00              OVMax= 2.43D-01

 Cycle   2  Pass 1  IDiag  1:
 E= -1136.09869438802     Delta-E=       -0.013494615594 Rises=F Damp=T
 DIIS: error= 7.95D-03 at cycle   2 NSaved=   2.
 NSaved= 2 IEnMin= 2 EnMin= -1136.09869438802     IErMin= 2 ErrMin= 7.95D-03
 ErrMax= 7.95D-03  0.00D+00 EMaxC= 1.00D-01 BMatC= 7.34D-02 BMatP= 1.94D-01
 IDIUse=3 WtCom= 9.20D-01 WtEn= 7.95D-02
 Coeff-Com: -0.124D+01 0.224D+01
 Coeff-En:   0.000D+00 0.100D+01
 Coeff:     -0.114D+01 0.214D+01
 Gap=     0.063 Goal=   None    Shift=    0.000
 Gap=     0.037 Goal=   None    Shift=    0.000
 RMSDP=9.06D-03 MaxDP=7.71D-01 DE=-1.35D-02 OVMax= 1.94D-01

 Cycle   3  Pass 1  IDiag  1:
 E= -1136.11978396090     Delta-E=       -0.021089572879 Rises=F Damp=F
 DIIS: error= 4.24D-03 at cycle   3 NSaved=   3.
 NSaved= 3 IEnMin= 3 EnMin= -1136.11978396090     IErMin= 3 ErrMin= 4.24D-03
 ErrMax= 4.24D-03  0.00D+00 EMaxC= 1.00D-01 BMatC= 4.78D-03 BMatP= 7.34D-02
 IDIUse=3 WtCom= 9.58D-01 WtEn= 4.24D-02
 Coeff-Com: -0.316D+00 0.555D+00 0.760D+00
 Coeff-En:   0.000D+00 0.000D+00 0.100D+01
 Coeff:     -0.302D+00 0.532D+00 0.771D+00
 Gap=     0.061 Goal=   None    Shift=    0.000
 Gap=     0.040 Goal=   None    Shift=    0.000
 RMSDP=7.66D-03 MaxDP=6.08D-01 DE=-2.11D-02 OVMax= 1.02D-01

 Cycle   4  Pass 1  IDiag  1:
 E= -1136.12013413431     Delta-E=       -0.000350173407 Rises=F Damp=F
 DIIS: error= 3.73D-03 at cycle   4 NSaved=   4.
 NSaved= 4 IEnMin= 4 EnMin= -1136.12013413431     IErMin= 4 ErrMin= 3.73D-03
 ErrMax= 3.73D-03  0.00D+00 EMaxC= 1.00D-01 BMatC= 4.14D-03 BMatP= 4.78D-03
 IDIUse=3 WtCom= 9.63D-01 WtEn= 3.73D-02
 Coeff-Com: -0.117D-01 0.169D-01 0.481D+00 0.514D+00
 Coeff-En:   0.000D+00 0.000D+00 0.482D+00 0.518D+00
 Coeff:     -0.113D-01 0.162D-01 0.481D+00 0.514D+00
 Gap=     0.062 Goal=   None    Shift=    0.000
 Gap=     0.039 Goal=   None    Shift=    0.000
 RMSDP=3.25D-03 MaxDP=2.52D-01 DE=-3.50D-04 OVMax= 5.85D-02

 Cycle   5  Pass 1  IDiag  1:
 E= -1136.12388176103     Delta-E=       -0.003747626722 Rises=F Damp=F
 DIIS: error= 5.22D-04 at cycle   5 NSaved=   5.
 NSaved= 5 IEnMin= 5 EnMin= -1136.12388176103     IErMin= 5 ErrMin= 5.22D-04
 ErrMax= 5.22D-04  0.00D+00 EMaxC= 1.00D-01 BMatC= 1.08D-04 BMatP= 4.14D-03
 IDIUse=3 WtCom= 9.95D-01 WtEn= 5.22D-03
 Coeff-Com: -0.502D-02 0.539D-02 0.259D+00 0.292D+00 0.449D+00
 Coeff-En:   0.000D+00 0.000D+00 0.000D+00 0.000D+00 0.100D+01
 Coeff:     -0.499D-02 0.536D-02 0.258D+00 0.290D+00 0.451D+00
 Gap=     0.062 Goal=   None    Shift=    0.000
 Gap=     0.039 Goal=   None    Shift=    0.000
 RMSDP=3.52D-04 MaxDP=1.94D-02 DE=-3.75D-03 OVMax= 1.12D-02

 Cycle   6  Pass 1  IDiag  1:
 E= -1136.12400800052     Delta-E=       -0.000126239487 Rises=F Damp=F
 DIIS: error= 1.11D-04 at cycle   6 NSaved=   6.
 NSaved= 6 IEnMin= 6 EnMin= -1136.12400800052     IErMin= 6 ErrMin= 1.11D-04
 ErrMax= 1.11D-04  0.00D+00 EMaxC= 1.00D-01 BMatC= 5.18D-06 BMatP= 1.08D-04
 IDIUse=3 WtCom= 9.99D-01 WtEn= 1.11D-03
 Coeff-Com: -0.167D-02 0.172D-02-0.487D-01-0.507D-01 0.117D+00 0.983D+00
 Coeff-En:   0.000D+00 0.000D+00 0.000D+00 0.000D+00 0.000D+00 0.100D+01
 Coeff:     -0.167D-02 0.172D-02-0.486D-01-0.507D-01 0.117D+00 0.983D+00
 Gap=     0.062 Goal=   None    Shift=    0.000
 Gap=     0.039 Goal=   None    Shift=    0.000
 RMSDP=3.15D-04 MaxDP=4.73D-02 DE=-1.26D-04 OVMax= 4.10D-03

 Cycle   7  Pass 1  IDiag  1:
 E= -1136.12401893276     Delta-E=       -0.000010932248 Rises=F Damp=F
 DIIS: error= 3.01D-05 at cycle   7 NSaved=   7.
 NSaved= 7 IEnMin= 7 EnMin= -1136.12401893276     IErMin= 7 ErrMin= 3.01D-05
 ErrMax= 3.01D-05  0.00D+00 EMaxC= 1.00D-01 BMatC= 2.91D-07 BMatP= 5.18D-06
 IDIUse=1 WtCom= 1.00D+00 WtEn= 0.00D+00
 Coeff-Com:  0.878D-03-0.114D-02-0.200D-01-0.210D-01-0.353D-01-0.316D-01
 Coeff-Com:  0.111D+01
 Coeff:      0.878D-03-0.114D-02-0.200D-01-0.210D-01-0.353D-01-0.316D-01
 Coeff:      0.111D+01
 Gap=     0.062 Goal=   None    Shift=    0.000
 Gap=     0.039 Goal=   None    Shift=    0.000
 RMSDP=7.92D-05 MaxDP=1.13D-02 DE=-1.09D-05 OVMax= 2.33D-03

 Cycle   8  Pass 1  IDiag  1:
 E= -1136.12402050973     Delta-E=       -0.000001576963 Rises=F Damp=F
 DIIS: error= 1.37D-05 at cycle   8 NSaved=   8.
 NSaved= 8 IEnMin= 8 EnMin= -1136.12402050973     IErMin= 8 ErrMin= 1.37D-05
 ErrMax= 1.37D-05  0.00D+00 EMaxC= 1.00D-01 BMatC= 6.19D-08 BMatP= 2.91D-07
 IDIUse=1 WtCom= 1.00D+00 WtEn= 0.00D+00
 Coeff-Com:  0.714D-03-0.898D-03 0.203D-02 0.195D-02-0.224D-01-0.111D+00
 Coeff-Com:  0.972D-01 0.103D+01
 Coeff:      0.714D-03-0.898D-03 0.203D-02 0.195D-02-0.224D-01-0.111D+00
 Coeff:      0.972D-01 0.103D+01
 Gap=     0.062 Goal=   None    Shift=    0.000
 Gap=     0.039 Goal=   None    Shift=    0.000
 RMSDP=2.85D-05 MaxDP=2.21D-03 DE=-1.58D-06 OVMax= 1.34D-03

 Cycle   9  Pass 1  IDiag  1:
 E= -1136.12402082056     Delta-E=       -0.000000310833 Rises=F Damp=F
 DIIS: error= 8.54D-06 at cycle   9 NSaved=   9.
 NSaved= 9 IEnMin= 9 EnMin= -1136.12402082056     IErMin= 9 ErrMin= 8.54D-06
 ErrMax= 8.54D-06  0.00D+00 EMaxC= 1.00D-01 BMatC= 2.94D-08 BMatP= 6.19D-08
 IDIUse=1 WtCom= 1.00D+00 WtEn= 0.00D+00
 Coeff-Com:  0.199D-03-0.237D-03 0.330D-02 0.316D-02-0.530D-02-0.418D-01
 Coeff-Com: -0.132D+00 0.510D+00 0.662D+00
 Coeff:      0.199D-03-0.237D-03 0.330D-02 0.316D-02-0.530D-02-0.418D-01
 Coeff:     -0.132D+00 0.510D+00 0.662D+00
 Gap=     0.062 Goal=   None    Shift=    0.000
 Gap=     0.039 Goal=   None    Shift=    0.000
 RMSDP=1.63D-05 MaxDP=1.60D-03 DE=-3.11D-07 OVMax= 5.43D-04

 Cycle  10  Pass 1  IDiag  1:
 E= -1136.12402089843     Delta-E=       -0.000000077867 Rises=F Damp=F
 DIIS: error= 4.34D-06 at cycle  10 NSaved=  10.
 NSaved=10 IEnMin=10 EnMin= -1136.12402089843     IErMin=10 ErrMin= 4.34D-06
 ErrMax= 4.34D-06  0.00D+00 EMaxC= 1.00D-01 BMatC= 7.20D-09 BMatP= 2.94D-08
 IDIUse=1 WtCom= 1.00D+00 WtEn= 0.00D+00
 Coeff-Com: -0.176D-03 0.235D-03 0.984D-03 0.872D-03 0.439D-02 0.121D-01
 Coeff-Com: -0.595D-01-0.157D+00 0.277D+00 0.921D+00
 Coeff:     -0.176D-03 0.235D-03 0.984D-03 0.872D-03 0.439D-02 0.121D-01
 Coeff:     -0.595D-01-0.157D+00 0.277D+00 0.921D+00
 Gap=     0.062 Goal=   None    Shift=    0.000
 Gap=     0.039 Goal=   None    Shift=    0.000
 RMSDP=1.42D-05 MaxDP=1.80D-03 DE=-7.79D-08 OVMax= 4.91D-04

 Cycle  11  Pass 1  IDiag  1:
 E= -1136.12402092990     Delta-E=       -0.000000031476 Rises=F Damp=F
 DIIS: error= 1.65D-06 at cycle  11 NSaved=  11.
 NSaved=11 IEnMin=11 EnMin= -1136.12402092990     IErMin=11 ErrMin= 1.65D-06
 ErrMax= 1.65D-06  0.00D+00 EMaxC= 1.00D-01 BMatC= 1.82D-09 BMatP= 7.20D-09
 IDIUse=1 WtCom= 1.00D+00 WtEn= 0.00D+00
 Coeff-Com: -0.151D-03 0.195D-03-0.167D-03-0.180D-03 0.387D-02 0.186D-01
 Coeff-Com: -0.947D-02-0.199D+00-0.140D-01 0.451D+00 0.750D+00
 Coeff:     -0.151D-03 0.195D-03-0.167D-03-0.180D-03 0.387D-02 0.186D-01
 Coeff:     -0.947D-02-0.199D+00-0.140D-01 0.451D+00 0.750D+00
 Gap=     0.062 Goal=   None    Shift=    0.000
 Gap=     0.039 Goal=   None    Shift=    0.000
 RMSDP=7.11D-06 MaxDP=9.39D-04 DE=-3.15D-08 OVMax= 2.40D-04

 Cycle  12  Pass 1  IDiag  1:
 E= -1136.12402093677     Delta-E=       -0.000000006866 Rises=F Damp=F
 DIIS: error= 7.20D-07 at cycle  12 NSaved=  12.
 NSaved=12 IEnMin=12 EnMin= -1136.12402093677     IErMin=12 ErrMin= 7.20D-07
 ErrMax= 7.20D-07  0.00D+00 EMaxC= 1.00D-01 BMatC= 2.49D-10 BMatP= 1.82D-09
 IDIUse=1 WtCom= 1.00D+00 WtEn= 0.00D+00
 Coeff-Com: -0.934D-05 0.100D-04-0.140D-03-0.827D-04 0.347D-03 0.225D-02
 Coeff-Com:  0.989D-02-0.329D-01-0.566D-01-0.265D-01 0.136D+00 0.968D+00
 Coeff:     -0.934D-05 0.100D-04-0.140D-03-0.827D-04 0.347D-03 0.225D-02
 Coeff:      0.989D-02-0.329D-01-0.566D-01-0.265D-01 0.136D+00 0.968D+00
 Gap=     0.062 Goal=   None    Shift=    0.000
 Gap=     0.039 Goal=   None    Shift=    0.000
 RMSDP=3.11D-06 MaxDP=4.26D-04 DE=-6.87D-09 OVMax= 1.25D-04

 Cycle  13  Pass 1  IDiag  1:
 E= -1136.12402093833     Delta-E=       -0.000000001566 Rises=F Damp=F
 DIIS: error= 4.86D-07 at cycle  13 NSaved=  13.
 NSaved=13 IEnMin=13 EnMin= -1136.12402093833     IErMin=13 ErrMin= 4.86D-07
 ErrMax= 4.86D-07  0.00D+00 EMaxC= 1.00D-01 BMatC= 1.35D-10 BMatP= 2.49D-10
 IDIUse=1 WtCom= 1.00D+00 WtEn= 0.00D+00
 Coeff-Com:  0.265D-04-0.357D-04-0.591D-04-0.554D-05-0.612D-03-0.257D-02
 Coeff-Com:  0.750D-02 0.259D-01-0.276D-01-0.119D+00-0.941D-01 0.525D+00
 Coeff-Com:  0.685D+00
 Coeff:      0.265D-04-0.357D-04-0.591D-04-0.554D-05-0.612D-03-0.257D-02
 Coeff:      0.750D-02 0.259D-01-0.276D-01-0.119D+00-0.941D-01 0.525D+00
 Coeff:      0.685D+00
 Gap=     0.062 Goal=   None    Shift=    0.000
 Gap=     0.039 Goal=   None    Shift=    0.000
 RMSDP=1.03D-06 MaxDP=4.45D-05 DE=-1.57D-09 OVMax= 6.14D-05

 Cycle  14  Pass 1  IDiag  1:
 E= -1136.12402093880     Delta-E=       -0.000000000467 Rises=F Damp=F
 DIIS: error= 2.81D-07 at cycle  14 NSaved=  14.
 NSaved=14 IEnMin=14 EnMin= -1136.12402093880     IErMin=14 ErrMin= 2.81D-07
 ErrMax= 2.81D-07  0.00D+00 EMaxC= 1.00D-01 BMatC= 3.34D-11 BMatP= 1.35D-10
 IDIUse=1 WtCom= 1.00D+00 WtEn= 0.00D+00
 Coeff-Com:  0.117D-04-0.149D-04-0.138D-04-0.415D-05-0.416D-03-0.170D-02
 Coeff-Com:  0.757D-04 0.214D-01 0.112D-01-0.413D-01-0.809D-01-0.169D+00
 Coeff-Com:  0.303D+00 0.957D+00
 Coeff:      0.117D-04-0.149D-04-0.138D-04-0.415D-05-0.416D-03-0.170D-02
 Coeff:      0.757D-04 0.214D-01 0.112D-01-0.413D-01-0.809D-01-0.169D+00
 Coeff:      0.303D+00 0.957D+00
 Gap=     0.062 Goal=   None    Shift=    0.000
 Gap=     0.039 Goal=   None    Shift=    0.000
 RMSDP=8.05D-07 MaxDP=4.84D-05 DE=-4.67D-10 OVMax= 4.26D-05

 Cycle  15  Pass 1  IDiag  1:
 E= -1136.12402093897     Delta-E=       -0.000000000173 Rises=F Damp=F
 DIIS: error= 8.58D-08 at cycle  15 NSaved=  15.
 NSaved=15 IEnMin=15 EnMin= -1136.12402093897     IErMin=15 ErrMin= 8.58D-08
 ErrMax= 8.58D-08  0.00D+00 EMaxC= 1.00D-01 BMatC= 3.28D-12 BMatP= 3.34D-11
 IDIUse=1 WtCom= 1.00D+00 WtEn= 0.00D+00
 Coeff-Com: -0.472D-05 0.646D-05 0.231D-04 0.503D-05 0.106D-03 0.474D-03
 Coeff-Com: -0.126D-02-0.626D-02 0.574D-02 0.274D-01 0.122D-01-0.915D-01
 Coeff-Com: -0.145D+00-0.433D-01 0.124D+01
 Coeff:     -0.472D-05 0.646D-05 0.231D-04 0.503D-05 0.106D-03 0.474D-03
 Coeff:     -0.126D-02-0.626D-02 0.574D-02 0.274D-01 0.122D-01-0.915D-01
 Coeff:     -0.145D+00-0.433D-01 0.124D+01
 Gap=     0.062 Goal=   None    Shift=    0.000
 Gap=     0.039 Goal=   None    Shift=    0.000
 RMSDP=4.08D-07 MaxDP=2.43D-05 DE=-1.73D-10 OVMax= 1.72D-05

 Cycle  16  Pass 1  IDiag  1:
 E= -1136.12402093899     Delta-E=       -0.000000000020 Rises=F Damp=F
 DIIS: error= 3.40D-08 at cycle  16 NSaved=  16.
 NSaved=16 IEnMin=16 EnMin= -1136.12402093899     IErMin=16 ErrMin= 3.40D-08
 ErrMax= 3.40D-08  0.00D+00 EMaxC= 1.00D-01 BMatC= 4.13D-13 BMatP= 3.28D-12
 IDIUse=1 WtCom= 1.00D+00 WtEn= 0.00D+00
 Coeff-Com: -0.121D-05 0.151D-05 0.848D-05 0.665D-05 0.596D-04 0.160D-03
 Coeff-Com:  0.118D-03-0.269D-02-0.230D-02 0.481D-02 0.124D-01 0.239D-01
 Coeff-Com: -0.272D-01-0.151D+00 0.149D-02 0.114D+01
 Coeff:     -0.121D-05 0.151D-05 0.848D-05 0.665D-05 0.596D-04 0.160D-03
 Coeff:      0.118D-03-0.269D-02-0.230D-02 0.481D-02 0.124D-01 0.239D-01
 Coeff:     -0.272D-01-0.151D+00 0.149D-02 0.114D+01
 Gap=     0.062 Goal=   None    Shift=    0.000
 Gap=     0.039 Goal=   None    Shift=    0.000
 RMSDP=1.46D-07 MaxDP=1.05D-05 DE=-2.05D-11 OVMax= 3.77D-06

 Cycle  17  Pass 1  IDiag  1:
 E= -1136.12402093899     Delta-E=        0.000000000000 Rises=F Damp=F
 DIIS: error= 1.52D-08 at cycle  17 NSaved=  17.
 NSaved=17 IEnMin=16 EnMin= -1136.12402093899     IErMin=17 ErrMin= 1.52D-08
 ErrMax= 1.52D-08  0.00D+00 EMaxC= 1.00D-01 BMatC= 7.06D-14 BMatP= 4.13D-13
 IDIUse=1 WtCom= 1.00D+00 WtEn= 0.00D+00
 Coeff-Com: -0.252D-07-0.210D-07-0.268D-05 0.119D-06 0.108D-05 0.121D-04
 Coeff-Com:  0.169D-03-0.905D-05-0.105D-02-0.214D-02 0.175D-02 0.162D-01
 Coeff-Com:  0.105D-01-0.252D-01-0.153D+00 0.237D+00 0.915D+00
 Coeff:     -0.252D-07-0.210D-07-0.268D-05 0.119D-06 0.108D-05 0.121D-04
 Coeff:      0.169D-03-0.905D-05-0.105D-02-0.214D-02 0.175D-02 0.162D-01
 Coeff:      0.105D-01-0.252D-01-0.153D+00 0.237D+00 0.915D+00
 Gap=     0.062 Goal=   None    Shift=    0.000
 Gap=     0.039 Goal=   None    Shift=    0.000
 RMSDP=3.95D-08 MaxDP=2.37D-06 DE= 0.00D+00 OVMax= 1.17D-06

 Cycle  18  Pass 1  IDiag  1:
 E= -1136.12402093900     Delta-E=       -0.000000000009 Rises=F Damp=F
 DIIS: error= 6.26D-09 at cycle  18 NSaved=  18.
 NSaved=18 IEnMin=18 EnMin= -1136.12402093900     IErMin=18 ErrMin= 6.26D-09
 ErrMax= 6.26D-09  0.00D+00 EMaxC= 1.00D-01 BMatC= 1.07D-14 BMatP= 7.06D-14
 IDIUse=1 WtCom= 1.00D+00 WtEn= 0.00D+00
 Coeff-Com:  0.284D-06-0.369D-06-0.154D-05-0.899D-06-0.937D-05-0.375D-04
 Coeff-Com:  0.817D-05 0.522D-03 0.191D-03-0.124D-02-0.227D-02-0.480D-03
 Coeff-Com:  0.521D-02 0.210D-01-0.217D-01-0.166D+00 0.113D+00 0.105D+01
 Coeff:      0.284D-06-0.369D-06-0.154D-05-0.899D-06-0.937D-05-0.375D-04
 Coeff:      0.817D-05 0.522D-03 0.191D-03-0.124D-02-0.227D-02-0.480D-03
 Coeff:      0.521D-02 0.210D-01-0.217D-01-0.166D+00 0.113D+00 0.105D+01
 Gap=     0.062 Goal=   None    Shift=    0.000
 Gap=     0.039 Goal=   None    Shift=    0.000
 RMSDP=1.89D-08 MaxDP=1.10D-06 DE=-9.09D-12 OVMax= 5.14D-07

 Cycle  19  Pass 1  IDiag  1:
 E= -1136.12402093901     Delta-E=       -0.000000000005 Rises=F Damp=F
 DIIS: error= 2.75D-09 at cycle  19 NSaved=  19.
 NSaved=19 IEnMin=19 EnMin= -1136.12402093901     IErMin=19 ErrMin= 2.75D-09
 ErrMax= 2.75D-09  0.00D+00 EMaxC= 1.00D-01 BMatC= 1.90D-15 BMatP= 1.07D-14
 IDIUse=1 WtCom= 1.00D+00 WtEn= 0.00D+00
 Large coefficients: NSaved= 19 BigCof=    0.00 CofMax=   10.00 Det=-2.59D-15
 Inversion failed.  Reducing to 18 matrices.
 Large coefficients: NSaved= 18 BigCof=    0.00 CofMax=   10.00 Det=-2.85D-15
 Inversion failed.  Reducing to 17 matrices.
 Large coefficients: NSaved= 17 BigCof=    0.00 CofMax=   10.00 Det=-2.90D-15
 Inversion failed.  Reducing to 16 matrices.
 Large coefficients: NSaved= 16 BigCof=    0.00 CofMax=   10.00 Det=-3.01D-15
 Inversion failed.  Reducing to 15 matrices.
 Coeff-Com:  0.210D-06 0.215D-05-0.536D-05-0.122D-05 0.450D-05-0.172D-04
 Coeff-Com:  0.519D-04-0.888D-03 0.143D-03 0.248D-02 0.556D-02-0.165D-01
 Coeff-Com: -0.837D-01-0.123D-01 0.111D+01
 Coeff:      0.210D-06 0.215D-05-0.536D-05-0.122D-05 0.450D-05-0.172D-04
 Coeff:      0.519D-04-0.888D-03 0.143D-03 0.248D-02 0.556D-02-0.165D-01
 Coeff:     -0.837D-01-0.123D-01 0.111D+01
 Gap=     0.062 Goal=   None    Shift=    0.000
 Gap=     0.039 Goal=   None    Shift=    0.000
 RMSDP=6.14D-09 MaxDP=3.75D-07 DE=-4.55D-12 OVMax= 3.27D-07

 SCF Done:  E(UB3LYP) =  -1136.12402094     A.U. after   19 cycles
            NFock= 19  Conv=0.61D-08     -V/T= 2.0028
 <Sx>= 0.0000 <Sy>= 0.0000 <Sz>= 0.5000 <S**2>= 0.7668 S= 0.5084
 <L.S>= 0.000000000000E+00
 KE= 1.132944756228D+03 PE=-3.392207533912D+03 EE= 7.917733158727D+02
 Annihilation of the first spin contaminant:
 S**2 before annihilation     0.7668,   after     0.7502
 Leave Link  502 at Tue Dec  5 13:33:07 2023, MaxMem=  1879048192 cpu:             179.7 elap:              16.1
 (Enter /home/sekinelabo/g16/l601.exe)
 Copying SCF densities to generalized density rwf, IOpCl= 1 IROHF=0.

 **********************************************************************

            Population analysis using the SCF Density.

 **********************************************************************

 Orbital symmetries:
 Alpha Orbitals:
       Occupied  (A) (A) (A) (A) (A) (A) (A) (A) (A) (A) (A) (A)
                 (A) (A) (A) (A) (A) (A) (A) (A) (A) (A) (A) (A)
                 (A) (A) (A) (A) (A) (A) (A) (A) (A) (A) (A) (A)
                 (A) (A) (A)
       Virtual   (A) (A) (A) (A) (A) (A) (A) (A) (A) (A) (A) (A)
                 (A) (A) (A) (A) (A) (A) (A) (A) (A) (A) (A) (A)
                 (A) (A) (A) (A) (A) (A) (A) (A) (A) (A) (A) (A)
                 (A) (A) (A) (A) (A) (A) (A) (A) (A) (A) (A) (A)
                 (A) (A) (A) (A) (A) (A) (A) (A) (A) (A) (A) (A)
                 (A) (A) (A) (A) (A) (A) (A) (A) (A) (A) (A) (A)
                 (A) (A) (A) (A) (A) (A) (A) (A) (A) (A) (A) (A)
                 (A) (A) (A) (A) (A) (A) (A) (A) (A) (A) (A) (A)
                 (A) (A) (A) (A) (A) (A) (A) (A) (A) (A) (A) (A)
                 (A) (A) (A) (A) (A) (A) (A) (A) (A) (A) (A) (A)
                 (A) (A) (A) (A) (A) (A) (A) (A) (A) (A) (A) (A)
                 (A) (A) (A) (A) (A) (A) (A) (A) (A) (A) (A) (A)
                 (A) (A) (A) (A) (A) (A) (A) (A) (A) (A) (A) (A)
                 (A) (A) (A) (A) (A) (A) (A) (A) (A) (A) (A) (A)
                 (A) (A) (A)
 Beta  Orbitals:
       Occupied  (A) (A) (A) (A) (A) (A) (A) (A) (A) (A) (A) (A)
                 (A) (A) (A) (A) (A) (A) (A) (A) (A) (A) (A) (A)
                 (A) (A) (A) (A) (A) (A) (A) (A) (A) (A) (A) (A)
                 (A) (A)
       Virtual   (A) (A) (A) (A) (A) (A) (A) (A) (A) (A) (A) (A)
                 (A) (A) (A) (A) (A) (A) (A) (A) (A) (A) (A) (A)
                 (A) (A) (A) (A) (A) (A) (A) (A) (A) (A) (A) (A)
                 (A) (A) (A) (A) (A) (A) (A) (A) (A) (A) (A) (A)
                 (A) (A) (A) (A) (A) (A) (A) (A) (A) (A) (A) (A)
                 (A) (A) (A) (A) (A) (A) (A) (A) (A) (A) (A) (A)
                 (A) (A) (A) (A) (A) (A) (A) (A) (A) (A) (A) (A)
                 (A) (A) (A) (A) (A) (A) (A) (A) (A) (A) (A) (A)
                 (A) (A) (A) (A) (A) (A) (A) (A) (A) (A) (A) (A)
                 (A) (A) (A) (A) (A) (A) (A) (A) (A) (A) (A) (A)
                 (A) (A) (A) (A) (A) (A) (A) (A) (A) (A) (A) (A)
                 (A) (A) (A) (A) (A) (A) (A) (A) (A) (A) (A) (A)
                 (A) (A) (A) (A) (A) (A) (A) (A) (A) (A) (A) (A)
                 (A) (A) (A) (A) (A) (A) (A) (A) (A) (A) (A) (A)
                 (A) (A) (A) (A)
 The electronic state is 2-A.
 Alpha  occ. eigenvalues --  -38.44200 -38.44179 -38.43898 -38.43808 -38.43597
 Alpha  occ. eigenvalues --  -38.43397 -38.42858  -2.20076  -2.20016  -2.19736
 Alpha  occ. eigenvalues --   -2.19676  -2.19546  -2.19156  -2.18910  -1.13785
 Alpha  occ. eigenvalues --   -1.13735  -1.13726  -1.13676  -1.13645  -1.13611
 Alpha  occ. eigenvalues --   -1.13424  -1.13405  -1.13399  -1.13364  -1.13352
 Alpha  occ. eigenvalues --   -1.13266  -1.13220  -1.13186  -1.13141  -1.12831
 Alpha  occ. eigenvalues --   -1.12824  -1.12781  -1.12641  -1.12563  -1.12513
 Alpha  occ. eigenvalues --   -0.18479  -0.12735  -0.11814  -0.11743
 Alpha virt. eigenvalues --   -0.05523  -0.05175  -0.04499  -0.03153  -0.03005
 Alpha virt. eigenvalues --   -0.02628  -0.01337  -0.01304  -0.00874   0.00177
 Alpha virt. eigenvalues --    0.00216   0.00370   0.00506   0.00665   0.00845
 Alpha virt. eigenvalues --    0.00883   0.00972   0.01040   0.01147   0.01245
 Alpha virt. eigenvalues --    0.01330   0.01440   0.01560   0.01661   0.01845
 Alpha virt. eigenvalues --    0.02433   0.02546   0.02616   0.02652   0.02721
 Alpha virt. eigenvalues --    0.02751   0.02777   0.02971   0.03043   0.03067
 Alpha virt. eigenvalues --    0.03146   0.03240   0.03346   0.03447   0.03602
 Alpha virt. eigenvalues --    0.03872   0.04032   0.04242   0.04524   0.04776
 Alpha virt. eigenvalues --    0.04960   0.05162   0.05561   0.05687   0.05773
 Alpha virt. eigenvalues --    0.05973   0.06009   0.06617   0.07170   0.07297
 Alpha virt. eigenvalues --    0.07741   0.08156   0.08457   0.08625   0.08926
 Alpha virt. eigenvalues --    0.08995   0.09466   0.09804   0.10933   0.11371
 Alpha virt. eigenvalues --    0.11519   0.12159   0.12491   0.12639   0.13108
 Alpha virt. eigenvalues --    0.13461   0.13858   0.14298   0.14365   0.14597
 Alpha virt. eigenvalues --    0.15053   0.15266   0.15708   0.17548   0.18853
 Alpha virt. eigenvalues --    0.25115   0.25779   0.27587   0.28411   0.29599
 Alpha virt. eigenvalues --    0.31195   0.31847   0.32741   0.33244   0.33493
 Alpha virt. eigenvalues --    0.34370   0.35588   0.35931   0.36780   0.37495
 Alpha virt. eigenvalues --    0.37932   0.38811   0.39931   0.40736   0.41218
 Alpha virt. eigenvalues --    0.42406   0.43470   0.43885   0.44044   0.44471
 Alpha virt. eigenvalues --    0.44616   0.45163   0.45585   0.45706   0.46173
 Alpha virt. eigenvalues --    0.46562   0.47008   0.47677   0.47838   0.48522
 Alpha virt. eigenvalues --    0.48946   0.49179   0.50247   0.50878   0.51372
 Alpha virt. eigenvalues --    0.52256   0.53337   0.54361   0.55276   0.56083
 Alpha virt. eigenvalues --    0.56737   0.58945   0.60007   0.60595   0.60917
 Alpha virt. eigenvalues --    0.62734   0.64154   0.65478   0.68599   0.70182
 Alpha virt. eigenvalues --    0.75931   2.05904   2.10828   2.12363   2.17798
 Alpha virt. eigenvalues --    2.19875   2.24295   2.31157   4.42912   4.43670
 Alpha virt. eigenvalues --    4.43965   4.45184   4.45318   4.45928   4.46356
 Alpha virt. eigenvalues --    4.46733   4.46865   4.47577   4.47894   4.48155
 Alpha virt. eigenvalues --    4.49127   4.50855   4.51919   4.54461   4.55512
 Alpha virt. eigenvalues --    4.59499   4.60796   4.63162   4.68557  96.25941
 Alpha virt. eigenvalues --   96.31811  96.33726  96.40591  96.42608  96.48975
 Alpha virt. eigenvalues --   96.57222
  Beta  occ. eigenvalues --  -38.44148 -38.44141 -38.43862 -38.43801 -38.43548
  Beta  occ. eigenvalues --  -38.43400 -38.42827  -2.19984  -2.19946  -2.19670
  Beta  occ. eigenvalues --   -2.19665  -2.19461  -2.19162  -2.18858  -1.13717
  Beta  occ. eigenvalues --   -1.13676  -1.13659  -1.13609  -1.13598  -1.13562
  Beta  occ. eigenvalues --   -1.13414  -1.13356  -1.13352  -1.13335  -1.13309
  Beta  occ. eigenvalues --   -1.13256  -1.13170  -1.13129  -1.13061  -1.12833
  Beta  occ. eigenvalues --   -1.12828  -1.12785  -1.12569  -1.12530  -1.12474
  Beta  occ. eigenvalues --   -0.17683  -0.12523  -0.11674
  Beta virt. eigenvalues --   -0.07736  -0.05281  -0.04840  -0.04163  -0.02935
  Beta virt. eigenvalues --   -0.02317  -0.02022  -0.01235  -0.01188  -0.00467
  Beta virt. eigenvalues --    0.00206   0.00312   0.00463   0.00646   0.00774
  Beta virt. eigenvalues --    0.00885   0.00915   0.01036   0.01153   0.01224
  Beta virt. eigenvalues --    0.01342   0.01460   0.01500   0.01592   0.01698
  Beta virt. eigenvalues --    0.02011   0.02455   0.02602   0.02664   0.02742
  Beta virt. eigenvalues --    0.02753   0.02778   0.02811   0.02989   0.03099
  Beta virt. eigenvalues --    0.03128   0.03238   0.03275   0.03375   0.03501
  Beta virt. eigenvalues --    0.03664   0.03928   0.04170   0.04379   0.04686
  Beta virt. eigenvalues --    0.04915   0.05058   0.05315   0.05661   0.05792
  Beta virt. eigenvalues --    0.05830   0.06009   0.06180   0.06686   0.07297
  Beta virt. eigenvalues --    0.07370   0.07952   0.08319   0.08545   0.08795
  Beta virt. eigenvalues --    0.09040   0.09079   0.09674   0.09900   0.11268
  Beta virt. eigenvalues --    0.11627   0.11775   0.12369   0.12723   0.12864
  Beta virt. eigenvalues --    0.13339   0.13690   0.13960   0.14462   0.14505
  Beta virt. eigenvalues --    0.14824   0.15298   0.15459   0.15888   0.17826
  Beta virt. eigenvalues --    0.19124   0.25327   0.26044   0.27872   0.28794
  Beta virt. eigenvalues --    0.29932   0.31584   0.32186   0.33152   0.33586
  Beta virt. eigenvalues --    0.33690   0.34505   0.35842   0.36104   0.36966
  Beta virt. eigenvalues --    0.37672   0.38302   0.39075   0.40276   0.41054
  Beta virt. eigenvalues --    0.41389   0.42546   0.43612   0.44009   0.44139
  Beta virt. eigenvalues --    0.44624   0.44778   0.45264   0.45657   0.45840
  Beta virt. eigenvalues --    0.46381   0.46746   0.47275   0.47752   0.47982
  Beta virt. eigenvalues --    0.48711   0.49065   0.49356   0.50418   0.51022
  Beta virt. eigenvalues --    0.51592   0.52336   0.53495   0.54519   0.55396
  Beta virt. eigenvalues --    0.56256   0.56835   0.59121   0.60178   0.60703
  Beta virt. eigenvalues --    0.61075   0.62914   0.64420   0.65576   0.68750
  Beta virt. eigenvalues --    0.70268   0.76118   2.06011   2.10892   2.12485
  Beta virt. eigenvalues --    2.17970   2.19957   2.24446   2.31268   4.43022
  Beta virt. eigenvalues --    4.43730   4.44019   4.45233   4.45367   4.45988
  Beta virt. eigenvalues --    4.46374   4.46764   4.46888   4.47612   4.47928
  Beta virt. eigenvalues --    4.48223   4.49145   4.50902   4.51959   4.54497
  Beta virt. eigenvalues --    4.55585   4.59539   4.60840   4.63243   4.68605
  Beta virt. eigenvalues --   96.25976  96.31829  96.33771  96.40646  96.42637
  Beta virt. eigenvalues --   96.49032  96.57261
          Condensed to atoms (all electrons):
               1          2          3          4          5          6
     1  Na  10.778264  -0.031480   0.438907   0.195775  -0.017410  -0.076546
     2  Na  -0.031480  11.132269  -0.682660  -0.008485   0.076211   0.090679
     3  Na   0.438907  -0.682660  12.441379   0.414263  -0.577521  -0.235671
     4  Na   0.195775  -0.008485   0.414263  10.980564  -0.703089  -0.032094
     5  Na  -0.017410   0.076211  -0.577521  -0.703089  14.005894   0.036760
     6  Na  -0.076546   0.090679  -0.235671  -0.032094   0.036760  10.640709
     7  Na  -0.190438   0.053142  -0.619951   0.203588  -1.077629   0.308560
               7
     1  Na  -0.190438
     2  Na   0.053142
     3  Na  -0.619951
     4  Na   0.203588
     5  Na  -1.077629
     6  Na   0.308560
     7  Na  11.891098
          Atomic-Atomic Spin Densities.
               1          2          3          4          5          6
     1  Na   0.110910   0.032603  -0.039184  -0.034710   0.249802  -0.023816
     2  Na   0.032603  -0.010655   0.089941   0.135045  -0.167199   0.039651
     3  Na  -0.039184   0.089941  -0.098424  -0.110717   0.403327  -0.071144
     4  Na  -0.034710   0.135045  -0.110717   0.297013  -0.433679   0.048786
     5  Na   0.249802  -0.167199   0.403327  -0.433679   1.330875  -0.228278
     6  Na  -0.023816   0.039651  -0.071144   0.048786  -0.228278   0.006089
     7  Na  -0.119818   0.027259  -0.086001   0.362836  -0.903531   0.130514
               7
     1  Na  -0.119818
     2  Na   0.027259
     3  Na  -0.086001
     4  Na   0.362836
     5  Na  -0.903531
     6  Na   0.130514
     7  Na   0.760817
 Mulliken charges and spin densities:
               1          2
     1  Na  -0.097072   0.175788
     2  Na   0.370324   0.146645
     3  Na  -0.178746   0.087798
     4  Na  -0.050521   0.264574
     5  Na  -0.743217   0.251318
     6  Na   0.267602  -0.098199
     7  Na   0.431631   0.172076
 Sum of Mulliken charges =  -0.00000   1.00000
 Mulliken charges and spin densities with hydrogens summed into heavy atoms:
               1          2
     1  Na  -0.097072   0.175788
     2  Na   0.370324   0.146645
     3  Na  -0.178746   0.087798
     4  Na  -0.050521   0.264574
     5  Na  -0.743217   0.251318
     6  Na   0.267602  -0.098199
     7  Na   0.431631   0.172076
 Electronic spatial extent (au):  <R**2>=           2516.3984
 Charge=             -0.0000 electrons
 Dipole moment (field-independent basis, Debye):
    X=             -0.8529    Y=              0.0955    Z=              0.0845  Tot=              0.8624
 Quadrupole moment (field-independent basis, Debye-Ang):
   XX=            -63.8118   YY=            -64.0193   ZZ=            -64.6395
   XY=              0.6385   XZ=              2.1749   YZ=             -1.3151
 Traceless Quadrupole moment (field-independent basis, Debye-Ang):
   XX=              0.3450   YY=              0.1376   ZZ=             -0.4826
   XY=              0.6385   XZ=              2.1749   YZ=             -1.3151
 Octapole moment (field-independent basis, Debye-Ang**2):
  XXX=              1.6337  YYY=              5.6081  ZZZ=              5.5600  XYY=             -2.5935
  XXY=            -17.9686  XXZ=            -12.3112  XZZ=            -14.4585  YZZ=              1.1317
  YYZ=             -4.2700  XYZ=              4.2610
 Hexadecapole moment (field-independent basis, Debye-Ang**3):
 XXXX=          -1817.6015 YYYY=          -1517.5516 ZZZZ=           -970.1064 XXXY=            -28.7454
 XXXZ=             14.7293 YYYX=             13.6938 YYYZ=            -58.0889 ZZZX=              9.2406
 ZZZY=            -33.4137 XXYY=           -491.4613 XXZZ=           -464.6971 YYZZ=           -340.1388
 XXYZ=             64.5609 YYXZ=             27.3771 ZZXY=             13.5347
 N-N= 3.313654408726D+02 E-N=-3.392207534120D+03  KE= 1.132944756228D+03
                          Isotropic Fermi Contact Couplings
        Atom                 a.u.       MegaHertz       Gauss      10(-4) cm-1
     1  Na(23)             0.14945     176.80261      63.08757      58.97500
     2  Na(23)             0.00478       5.65014       2.01611       1.88468
     3  Na(23)             0.15048     178.02051      63.52214      59.38125
     4  Na(23)             0.18608     220.14137      78.55191      73.43126
     5  Na(23)             0.06652      78.69220      28.07934      26.24889
     6  Na(23)            -0.01613     -19.08132      -6.80869      -6.36484
     7  Na(23)             0.15124     178.91817      63.84245      59.68068
 --------------------------------------------------------
       Center         ----  Spin Dipole Couplings  ----
                      3XX-RR        3YY-RR        3ZZ-RR
 --------------------------------------------------------
     1   Atom       -0.002257      0.007637     -0.005380
     2   Atom       -0.008561     -0.009002      0.017563
     3   Atom        0.001081      0.001728     -0.002808
     4   Atom       -0.012529      0.022357     -0.009828
     5   Atom       -0.016057     -0.022776      0.038833
     6   Atom        0.001201     -0.001627      0.000426
     7   Atom       -0.014979      0.006477      0.008502
 --------------------------------------------------------
                        XY            XZ            YZ
 --------------------------------------------------------
     1   Atom       -0.000250     -0.001117      0.009333
     2   Atom        0.006918     -0.011236     -0.005740
     3   Atom        0.006049     -0.011873     -0.007696
     4   Atom        0.005038      0.000024      0.020838
     5   Atom       -0.001323      0.028869     -0.002801
     6   Atom       -0.001228      0.000945     -0.000509
     7   Atom       -0.014279      0.015727     -0.031533
 --------------------------------------------------------


 ---------------------------------------------------------------------------------
              Anisotropic Spin Dipole Couplings in Principal Axis System
 ---------------------------------------------------------------------------------

       Atom             a.u.   MegaHertz   Gauss  10(-4) cm-1        Axes

              Baa    -0.0103    -1.461    -0.521    -0.487  0.1079 -0.4568  0.8830
     1 Na(23) Bbb    -0.0022    -0.311    -0.111    -0.104  0.9929  0.0941 -0.0726
              Bcc     0.0125     1.771     0.632     0.591 -0.0499  0.8846  0.4637
 
              Baa    -0.0163    -2.299    -0.820    -0.767  0.7735 -0.6152  0.1525
     2 Na(23) Bbb    -0.0073    -1.037    -0.370    -0.346  0.5181  0.7523  0.4071
              Bcc     0.0236     3.336     1.190     1.113 -0.3651 -0.2359  0.9006
 
              Baa    -0.0132    -1.869    -0.667    -0.623  0.5851  0.1712  0.7927
     3 Na(23) Bbb    -0.0039    -0.556    -0.199    -0.186 -0.5188  0.8303  0.2037
              Bcc     0.0172     2.425     0.865     0.809  0.6233  0.5304 -0.5746
 
              Baa    -0.0207    -2.921    -1.042    -0.974  0.2722 -0.4449  0.8532
     4 Na(23) Bbb    -0.0124    -1.745    -0.623    -0.582  0.9571  0.0338 -0.2878
              Bcc     0.0330     4.666     1.665     1.557  0.0992  0.8949  0.4350
 
              Baa    -0.0284    -4.017    -1.433    -1.340  0.9191  0.0201 -0.3935
     5 Na(23) Bbb    -0.0229    -3.234    -1.154    -1.079 -0.0021  0.9989  0.0463
              Bcc     0.0514     7.251     2.587     2.419  0.3940 -0.0417  0.9181
 
              Baa    -0.0021    -0.296    -0.106    -0.099  0.3318  0.9411  0.0656
     6 Na(23) Bbb    -0.0002    -0.025    -0.009    -0.008 -0.4913  0.1130  0.8636
              Bcc     0.0023     0.321     0.115     0.107  0.8053 -0.3188  0.4998
 
              Baa    -0.0243    -3.428    -1.223    -1.143 -0.2978  0.6125  0.7322
     7 Na(23) Bbb    -0.0221    -3.122    -1.114    -1.042  0.8969  0.4423 -0.0052
              Bcc     0.0464     6.550     2.337     2.185  0.3270 -0.6551  0.6811
 

 ---------------------------------------------------------------------------------

 No NMR shielding tensors so no spin-rotation constants.
 Leave Link  601 at Tue Dec  5 13:33:07 2023, MaxMem=  1879048192 cpu:               2.2 elap:               0.2
 (Enter /home/sekinelabo/g16/l701.exe)
 ... and contract with generalized density number  0.
 Compute integral first derivatives.
 Leave Link  701 at Tue Dec  5 13:33:08 2023, MaxMem=  1879048192 cpu:               1.5 elap:               0.1
 (Enter /home/sekinelabo/g16/l702.exe)
 L702 exits ... SP integral derivatives will be done elsewhere.
 Leave Link  702 at Tue Dec  5 13:33:08 2023, MaxMem=  1879048192 cpu:               0.4 elap:               0.0
 (Enter /home/sekinelabo/g16/l703.exe)
 Integral derivatives from FoFJK, PRISM(SPDF).
 Compute integral first derivatives, UseDBF=F ICtDFT=           0.
 Calling FoFJK, ICntrl=      2127 FMM=F ISym2X=0 I1Cent= 0 IOpClX= 1 NMat=1 NMatS=1 NMatT=0.
 FoFJK:  IHMeth= 1 ICntrl=    2127 DoSepK=F KAlg= 0 I1Cent=           0 FoldK=F
 IRaf=         0 NMat=       1 IRICut=       1 DoRegI=T DoRafI=F ISym2E= 0 IDoP0=0 IntGTp=1.
 FoFCou: FMM=F IPFlag=           0 FMFlag=      100000 FMFlg1=         800
         NFxFlg=           0 DoJE=F BraDBF=F KetDBF=F FulRan=T
         wScrn=  0.000000 ICntrl=      2127 IOpCl=  1 I1Cent=           0 NGrid=           0
         NMat0=    1 NMatS0=      1 NMatT0=    0 NMatD0=    1 NMtDS0=    0 NMtDT0=    0
 Symmetry not used in FoFCou.
 Leave Link  703 at Tue Dec  5 13:33:10 2023, MaxMem=  1879048192 cpu:              32.8 elap:               2.2
 (Enter /home/sekinelabo/g16/l716.exe)
 Dipole        =-3.35548742D-01 3.75751738D-02 3.32344330D-02
 ***** Axes restored to original set *****
 -------------------------------------------------------------------
 Center     Atomic                   Forces (Hartrees/Bohr)
 Number     Number              X              Y              Z
 -------------------------------------------------------------------
      1       11           0.000447927    0.000034318    0.001243431
      2       11           0.001639963   -0.004324254    0.000458723
      3       11          -0.002917663    0.002533478   -0.000601786
      4       11          -0.003461887   -0.001322634   -0.002371673
      5       11           0.002904562   -0.007011772   -0.001037140
      6       11           0.000169882    0.004939782    0.001132599
      7       11           0.001217215    0.005151081    0.001175845
 -------------------------------------------------------------------
 Cartesian Forces:  Max     0.007011772 RMS     0.002860131
 Z-matrix is all fixed cartesians, so copy forces.
 Force constants in Cartesian coordinates: 
                1             2             3             4             5 
      1  0.552185D-01
      2  0.959417D-02  0.456302D-01
      3 -0.783359D-02 -0.116004D-02  0.397139D-01
      4 -0.443087D-02 -0.134323D-01  0.138793D-01  0.576764D-01
      5  0.311587D-02 -0.117620D-01  0.978535D-02 -0.377791D-02  0.781655D-01
      6 -0.414947D-02  0.178709D-02 -0.149944D-01  0.138955D-01 -0.536060D-02
      7 -0.109062D-02  0.270636D-02 -0.368741D-02  0.411449D-02 -0.652348D-03
      8 -0.216984D-02  0.361909D-02 -0.292763D-02 -0.120460D-02  0.579552D-02
      9 -0.936746D-03  0.100955D-02  0.175079D-03 -0.358199D-02  0.480497D-02
     10 -0.325423D-02 -0.757516D-03 -0.155172D-02 -0.406500D-02 -0.488356D-03
     11 -0.331274D-02  0.538015D-02  0.274364D-02  0.605942D-02  0.309264D-02
     12  0.883106D-03  0.322295D-02  0.618776D-02 -0.728325D-02  0.127637D-02
     13 -0.231670D-01 -0.801266D-02 -0.155941D-01 -0.277922D-01  0.497506D-03
     14  0.406416D-02 -0.281240D-01 -0.883963D-02  0.470740D-02 -0.326028D-01
     15  0.643776D-02  0.622365D-02 -0.192185D-01  0.287091D-02 -0.114466D-01
     16  0.285380D-02 -0.521592D-02  0.315031D-03 -0.747247D-02 -0.516716D-02
     17  0.105695D-03 -0.181514D-02 -0.114159D-02  0.190999D-02 -0.124608D-01
     18  0.102486D-02  0.985182D-03  0.555373D-02 -0.630127D-02 -0.148102D-01
     19 -0.261297D-01  0.151179D-01  0.144725D-01 -0.180304D-01  0.647239D-02
     20 -0.113973D-01 -0.129282D-01  0.153989D-02  0.573803D-02 -0.302280D-01
     21  0.457407D-02 -0.120684D-01 -0.174176D-01 -0.134792D-01  0.157507D-01
                6             7             8             9            10 
      6  0.899152D-01
      7 -0.145687D-02  0.322817D-01
      8  0.155548D-02 -0.241725D-02  0.334147D-01
      9  0.208048D-02  0.209444D-02 -0.666886D-02  0.493967D-01
     10 -0.490185D-03 -0.895524D-02 -0.734632D-03 -0.290000D-02  0.717122D-01
     11  0.214709D-02 -0.717668D-02 -0.259831D-02  0.615360D-02  0.619549D-02
     12  0.186062D-02  0.165963D-01  0.261549D-02 -0.151363D-01 -0.859062D-02
     13 -0.399053D-02 -0.333684D-01  0.403504D-02  0.660942D-02 -0.312607D-01
     14  0.607075D-02  0.644345D-02 -0.453538D-01 -0.904101D-02 -0.654383D-02
     15 -0.448233D-01 -0.109495D-01  0.767586D-02 -0.331524D-01  0.298313D-02
     16 -0.426585D-02  0.351012D-02  0.339010D-02  0.258180D-03  0.842008D-03
     17  0.719711D-02  0.424055D-03  0.127099D-02  0.681548D-03 -0.738204D-04
     18 -0.199767D-01  0.114504D-02  0.394945D-02  0.223102D-02 -0.266690D-03
     19  0.457416D-03  0.350798D-02 -0.898822D-03 -0.154330D-02 -0.250190D-01
     20 -0.133969D-01  0.672415D-03  0.385180D-02  0.306020D-02  0.240266D-02
     21 -0.140620D-01 -0.374203D-02 -0.619979D-02 -0.559460D-02  0.108161D-01
               11            12            13            14            15 
     11  0.382483D-01
     12  0.213773D-02  0.487907D-01
     13  0.120854D-01  0.121017D-01  0.152917D+00
     14 -0.232022D-01 -0.771273D-03 -0.964221D-02  0.173952D+00
     15 -0.454237D-02 -0.233077D-01 -0.121766D-02  0.100061D-01  0.173554D+00
     16  0.508080D-02 -0.177956D-02 -0.214898D-01 -0.313926D-02 -0.181497D-02
     17 -0.509296D-03  0.246332D-03 -0.272084D-02 -0.152010D-01 -0.738616D-02
     18 -0.204706D-02  0.867362D-03 -0.197350D-02  0.132059D-01 -0.228663D-01
     19 -0.189316D-01 -0.119277D-01 -0.158386D-01  0.411030D-02  0.169029D-02
     20 -0.204112D-01 -0.872759D-02  0.375781D-02 -0.294681D-01 -0.530501D-03
     21 -0.659262D-02 -0.192625D-01  0.406467D-02 -0.106309D-01 -0.301856D-01
               16            17            18            19            20 
     16  0.179218D-01
     17  0.228500D-02  0.312055D-01
     18  0.527922D-02  0.152282D-02  0.277830D-01
     19  0.383454D-02 -0.193008D-02  0.109232D-02  0.776752D-01
     20  0.276645D-02 -0.249013D-02 -0.280612D-02 -0.394005D-02  0.916739D-01
     21  0.200794D-02 -0.112007D-02  0.640786D-02 -0.424158D-02  0.208610D-01
               21 
     21  0.801143D-01
 Leave Link  716 at Tue Dec  5 13:33:10 2023, MaxMem=  1879048192 cpu:               0.4 elap:               0.0
 (Enter /home/sekinelabo/g16/l103.exe)

 GradGradGradGradGradGradGradGradGradGradGradGradGradGradGradGradGradGrad
 Berny optimization.
 Search for a local minimum.
 Step number   1 out of a maximum of    2
 All quantities printed in internal units (Hartrees-Bohrs-Radians)
 Second derivative matrix not updated -- first step.
 ITU=  0
     Eigenvalues ---    0.02738   0.02892   0.03664   0.03955   0.04716
     Eigenvalues ---    0.06330   0.07175   0.08365   0.08871   0.11386
     Eigenvalues ---    0.11884   0.13520   0.18066   0.20366   0.22237
 Angle between quadratic step and forces=  35.43 degrees.
 Linear search not attempted -- first point.
 B after Tr=    -0.000000    0.000000    0.000000
         Rot=    1.000000   -0.000000   -0.000000   -0.000000 Ang=   0.00 deg.
 Variable       Old X    -DE/DX   Delta X   Delta X   Delta X     New X
                                 (Linear)    (Quad)   (Total)
    X1       28.94682   0.00045   0.00000   0.04088   0.04088  28.98770
    Y1       27.23171   0.00003   0.00000  -0.01911  -0.01911  27.21260
    Z1       23.80299   0.00124   0.00000   0.03629   0.03629  23.83928
    X2       25.96748   0.00164   0.00000   0.02990   0.02990  25.99738
    Y2       21.99490  -0.00432   0.00000  -0.05270  -0.05270  21.94220
    Z2       27.78219   0.00046   0.00000   0.00661   0.00661  27.78880
    X3       21.53192  -0.00292   0.00000  -0.06247  -0.06247  21.46944
    Y3       26.15097   0.00253   0.00000   0.01700   0.01700  26.16798
    Z3       18.13508  -0.00060   0.00000  -0.02849  -0.02849  18.10659
    X4       18.65403  -0.00346   0.00000  -0.04518  -0.04518  18.60886
    Y4       24.74313  -0.00132   0.00000  -0.03649  -0.03649  24.70664
    Z4       24.16714  -0.00237   0.00000  -0.04113  -0.04113  24.12601
    X5       24.18755   0.00290   0.00000   0.01857   0.01857  24.20612
    Y5       23.09283  -0.00701   0.00000  -0.04219  -0.04219  23.05064
    Z5       22.18576  -0.00104   0.00000  -0.00850  -0.00850  22.17726
    X6       24.33816   0.00017   0.00000  -0.00199  -0.00199  24.33617
    Y6       16.24237   0.00494   0.00000   0.11547   0.11547  16.35784
    Z6       24.26106   0.00113   0.00000   0.02577   0.02577  24.28683
    X7       23.38952   0.00122   0.00000   0.02029   0.02029  23.40981
    Y7       27.55939   0.00515   0.00000   0.01803   0.01803  27.57742
    Z7       26.68142   0.00118   0.00000   0.00945   0.00945  26.69087
         Item               Value     Threshold  Converged?
 Maximum Force            0.007012     0.000450     NO 
 RMS     Force            0.002860     0.000300     NO 
 Maximum Displacement     0.115471     0.001800     NO 
 RMS     Displacement     0.040333     0.001200     NO 
 Predicted change in Energy=-9.870039D-04
 GradGradGradGradGradGradGradGradGradGradGradGradGradGradGradGradGradGrad

 Leave Link  103 at Tue Dec  5 13:33:10 2023, MaxMem=  1879048192 cpu:               0.2 elap:               0.0
 (Enter /home/sekinelabo/g16/l9999.exe)
 1\1\GINC-SEKINELABO-XA7R-R37\Force\UB3LYP\6-311+G(d)\Na7(2)\SEKINELABO
 \05-Dec-2023\0\\#P B3LYP/6-311+g(d) force\\DPGEN\\0,2\Na,15.318,14.410
 4,12.596\Na,13.7414,11.6392,14.7017\Na,11.3942,13.8385,9.59667\Na,9.87
 129,13.0935,12.7887\Na,12.7995,12.2202,11.7402\Na,12.8792,8.59509,12.8
 384\Na,12.3772,14.5838,14.1192\\Version=ES64L-G16RevB.01\State=2-A\HF=
 -1136.1240209\S2=0.766775\S2-1=0.\S2A=0.750152\RMSD=6.145e-09\RMSF=2.8
 60e-03\Dipole=-0.0775784,0.3200693,-0.0815268\Quadrupole=0.4984072,-0.
 6903774,0.1919702,0.8736671,0.130453,-1.6544203\PG=C01 [X(Na7)]\\@


 The cat could very well be man's best friend
 but would never stoop to admitting it.
                               -- Doug Larson
 Job cpu time:       0 days  0 hours  3 minutes 48.5 seconds.
 Elapsed time:       0 days  0 hours  0 minutes 19.4 seconds.
 File lengths (MBytes):  RWF=     32 Int=      0 D2E=      0 Chk=      4 Scr=      1
 Normal termination of Gaussian 16 at Tue Dec  5 13:33:10 2023.
