 Set GAUSS_MDEF to "14GB".
 Entering Gaussian System, Link 0=g16
 Initial command:
 /home/sekinelabo/g16/l1.exe "/home/sekinelabo/g16temp/Gau-622112.inp" -scrdir="/home/sekinelabo/g16temp/"
 Entering Link 1 = /home/sekinelabo/g16/l1.exe PID=    622114.
  
 Copyright (c) 1988-2017, Gaussian, Inc.  All Rights Reserved.
  
 This is part of the Gaussian(R) 16 program.  It is based on
 the Gaussian(R) 09 system (copyright 2009, Gaussian, Inc.),
 the Gaussian(R) 03 system (copyright 2003, Gaussian, Inc.),
 the Gaussian(R) 98 system (copyright 1998, Gaussian, Inc.),
 the Gaussian(R) 94 system (copyright 1995, Gaussian, Inc.),
 the Gaussian 92(TM) system (copyright 1992, Gaussian, Inc.),
 the Gaussian 90(TM) system (copyright 1990, Gaussian, Inc.),
 the Gaussian 88(TM) system (copyright 1988, Gaussian, Inc.),
 the Gaussian 86(TM) system (copyright 1986, Carnegie Mellon
 University), and the Gaussian 82(TM) system (copyright 1983,
 Carnegie Mellon University). Gaussian is a federally registered
 trademark of Gaussian, Inc.
  
 This software contains proprietary and confidential information,
 including trade secrets, belonging to Gaussian, Inc.
  
 This software is provided under written license and may be
 used, copied, transmitted, or stored only in accord with that
 written license.
  
 The following legend is applicable only to US Government
 contracts under FAR:
  
                    RESTRICTED RIGHTS LEGEND
  
 Use, reproduction and disclosure by the US Government is
 subject to restrictions as set forth in subparagraphs (a)
 and (c) of the Commercial Computer Software - Restricted
 Rights clause in FAR 52.227-19.
  
 Gaussian, Inc.
 340 Quinnipiac St., Bldg. 40, Wallingford CT 06492
  
  
 ---------------------------------------------------------------
 Warning -- This program may not be used in any manner that
 competes with the business of Gaussian, Inc. or will provide
 assistance to any competitor of Gaussian, Inc.  The licensee
 of this program is prohibited from giving any competitor of
 Gaussian, Inc. access to this program.  By using this program,
 the user acknowledges that Gaussian, Inc. is engaged in the
 business of creating and licensing software in the field of
 computational chemistry and represents and warrants to the
 licensee that it is not a competitor of Gaussian, Inc. and that
 it will not use this program in any manner prohibited above.
 ---------------------------------------------------------------
  

 Cite this work as:
 Gaussian 16, Revision B.01,
 M. J. Frisch, G. W. Trucks, H. B. Schlegel, G. E. Scuseria, 
 M. A. Robb, J. R. Cheeseman, G. Scalmani, V. Barone, 
 G. A. Petersson, H. Nakatsuji, X. Li, M. Caricato, A. V. Marenich, 
 J. Bloino, B. G. Janesko, R. Gomperts, B. Mennucci, H. P. Hratchian, 
 J. V. Ortiz, A. F. Izmaylov, J. L. Sonnenberg, D. Williams-Young, 
 F. Ding, F. Lipparini, F. Egidi, J. Goings, B. Peng, A. Petrone, 
 T. Henderson, D. Ranasinghe, V. G. Zakrzewski, J. Gao, N. Rega, 
 G. Zheng, W. Liang, M. Hada, M. Ehara, K. Toyota, R. Fukuda, 
 J. Hasegawa, M. Ishida, T. Nakajima, Y. Honda, O. Kitao, H. Nakai, 
 T. Vreven, K. Throssell, J. A. Montgomery, Jr., J. E. Peralta, 
 F. Ogliaro, M. J. Bearpark, J. J. Heyd, E. N. Brothers, K. N. Kudin, 
 V. N. Staroverov, T. A. Keith, R. Kobayashi, J. Normand, 
 K. Raghavachari, A. P. Rendell, J. C. Burant, S. S. Iyengar, 
 J. Tomasi, M. Cossi, J. M. Millam, M. Klene, C. Adamo, R. Cammi, 
 J. W. Ochterski, R. L. Martin, K. Morokuma, O. Farkas, 
 J. B. Foresman, and D. J. Fox, Gaussian, Inc., Wallingford CT, 2016.
 
 ******************************************
 Gaussian 16:  ES64L-G16RevB.01 20-Dec-2017
                 7-Dec-2023 
 ******************************************
 %nproc=15
 Will use up to   15 processors via shared memory.
 -------------------------
 #P B3LYP/6-311+g(d) force
 -------------------------
 1/10=7,30=1,38=1/1,3;
 2/12=2,17=6,18=5,40=1/2;
 3/5=4,6=6,7=11,11=2,25=1,30=1,71=1,74=-5/1,2,3;
 4//1;
 5/5=2,38=5/2;
 6/7=2,8=2,9=2,10=2,28=1/1;
 7/29=1/1,2,3,16;
 1/10=7,30=1/3;
 99//99;
 Leave Link    1 at Thu Dec  7 04:00:48 2023, MaxMem=           0 cpu:               0.3 elap:               0.0
 (Enter /home/sekinelabo/g16/l101.exe)
 -----
 DPGEN
 -----
 Symbolic Z-matrix:
 Charge =  0 Multiplicity = 2
 Na                    13.6926   14.7218   11.8871 
 Na                    10.646    12.2822   10.0353 
 Na                    9.8689    10.9636   13.3921 
 Na                    12.5968   8.58771   12.234 
 Na                    12.4374   11.7339   12.82 
 Na                    10.899    14.7015   13.7401 
 Na                    13.9171   11.067    9.94915 
 
 ITRead=  0  0  0  0  0  0  0
 MicOpt= -1 -1 -1 -1 -1 -1 -1
 NAtoms=      7 NQM=        7 NQMF=       0 NMMI=      0 NMMIF=      0
                NMic=       0 NMicF=      0.
                    Isotopes and Nuclear Properties:
 (Nuclear quadrupole moments (NQMom) in fm**2, nuclear magnetic moments (NMagM)
  in nuclear magnetons)

  Atom         1           2           3           4           5           6           7
 IAtWgt=          23          23          23          23          23          23          23
 AtmWgt=  22.9897697  22.9897697  22.9897697  22.9897697  22.9897697  22.9897697  22.9897697
 NucSpn=           3           3           3           3           3           3           3
 AtZEff=  -0.0000000  -0.0000000  -0.0000000  -0.0000000  -0.0000000  -0.0000000  -0.0000000
 NQMom=   10.4000000  10.4000000  10.4000000  10.4000000  10.4000000  10.4000000  10.4000000
 NMagM=    2.2175200   2.2175200   2.2175200   2.2175200   2.2175200   2.2175200   2.2175200
 AtZNuc=  11.0000000  11.0000000  11.0000000  11.0000000  11.0000000  11.0000000  11.0000000
 Leave Link  101 at Thu Dec  7 04:00:48 2023, MaxMem=  1879048192 cpu:               2.5 elap:               0.2
 (Enter /home/sekinelabo/g16/l103.exe)

 GradGradGradGradGradGradGradGradGradGradGradGradGradGradGradGradGradGrad
 Berny optimization.
 Initialization pass.
 Trust Radius=3.00D-01 FncErr=1.00D-07 GrdErr=1.00D-07 EigMax=2.50D+02 EigMin=1.00D-04
 Number of steps in this run=      2 maximum allowed number of steps=      2.
 GradGradGradGradGradGradGradGradGradGradGradGradGradGradGradGradGradGrad

 Leave Link  103 at Thu Dec  7 04:00:48 2023, MaxMem=  1879048192 cpu:               0.2 elap:               0.0
 (Enter /home/sekinelabo/g16/l202.exe)
                          Input orientation:                          
 ---------------------------------------------------------------------
 Center     Atomic      Atomic             Coordinates (Angstroms)
 Number     Number       Type             X           Y           Z
 ---------------------------------------------------------------------
      1         11           0       13.692600   14.721800   11.887100
      2         11           0       10.646000   12.282200   10.035300
      3         11           0        9.868900   10.963600   13.392100
      4         11           0       12.596800    8.587710   12.234000
      5         11           0       12.437400   11.733900   12.820000
      6         11           0       10.899000   14.701500   13.740100
      7         11           0       13.917100   11.067000    9.949150
 ---------------------------------------------------------------------
                    Distance matrix (angstroms):
                    1          2          3          4          5
     1  Na   0.000000
     2  Na   4.320021   0.000000
     3  Na   5.568642   3.689268   0.000000
     4  Na   6.240847   4.721140   3.798353   0.000000
     5  Na   3.372444   3.356233   2.741870   3.204265   0.000000
     6  Na   3.352346   4.431993   3.892828   6.521448   3.466974
     7  Na   4.142899   3.490591   5.315310   3.620858   3.297885
                    6          7
     6  Na   0.000000
     7  Na   6.057212   0.000000
 Stoichiometry    Na7(2)
 Framework group  C1[X(Na7)]
 Deg. of freedom    15
 Full point group                 C1      NOp   1
 Largest Abelian subgroup         C1      NOp   1
 Largest concise Abelian subgroup C1      NOp   1
                         Standard orientation:                         
 ---------------------------------------------------------------------
 Center     Atomic      Atomic             Coordinates (Angstroms)
 Number     Number       Type             X           Y           Z
 ---------------------------------------------------------------------
      1         11           0        2.349730    2.038454   -0.733858
      2         11           0       -0.054547    0.281793    2.396027
      3         11           0       -0.371901   -2.715308    0.268265
      4         11           0       -3.300358   -0.605726   -0.915495
      5         11           0       -0.115249   -0.255880   -0.916302
      6         11           0        3.164150   -1.181136   -0.276498
      7         11           0       -1.671825    2.437802    0.177861
 ---------------------------------------------------------------------
 Rotational constants (GHZ):           0.7989315           0.5860153           0.4509015
 Leave Link  202 at Thu Dec  7 04:00:48 2023, MaxMem=  1879048192 cpu:               0.0 elap:               0.0
 (Enter /home/sekinelabo/g16/l301.exe)
 Standard basis: 6-311+G(d) (5D, 7F)
 Ernie: Thresh=  0.10000D-02 Tol=  0.10000D-05 Strict=F.
 There are   217 symmetry adapted cartesian basis functions of A   symmetry.
 There are   210 symmetry adapted basis functions of A   symmetry.
   210 basis functions,   350 primitive gaussians,   217 cartesian basis functions
    39 alpha electrons       38 beta electrons
       nuclear repulsion energy       337.5548925224 Hartrees.
 IExCor=  402 DFT=T Ex+Corr=B3LYP ExCW=0 ScaHFX=  0.200000
 ScaDFX=  0.800000  0.720000  1.000000  0.810000 ScalE2=  1.000000  1.000000
 IRadAn=      5 IRanWt=     -1 IRanGd=            0 ICorTp=0 IEmpDi=  4
 NAtoms=    7 NActive=    7 NUniq=    7 SFac= 1.00D+00 NAtFMM=   60 NAOKFM=F Big=F
 Integral buffers will be    131072 words long.
 Raffenetti 2 integral format.
 Two-electron integral symmetry is turned on.
 Leave Link  301 at Thu Dec  7 04:00:48 2023, MaxMem=  1879048192 cpu:               0.5 elap:               0.0
 (Enter /home/sekinelabo/g16/l302.exe)
 NPDir=0 NMtPBC=     1 NCelOv=     1 NCel=       1 NClECP=     1 NCelD=      1
         NCelK=      1 NCelE2=     1 NClLst=     1 CellRange=     0.0.
 One-electron integrals computed using PRISM.
 One-electron integral symmetry used in STVInt
 NBasis=   210 RedAO= T EigKep=  3.11D-06  NBF=   210
 NBsUse=   210 1.00D-06 EigRej= -1.00D+00 NBFU=   210
 Precomputing XC quadrature grid using
 IXCGrd= 4 IRadAn=           5 IRanWt=          -1 IRanGd=           0 AccXCQ= 0.00D+00.
 Generated NRdTot=       0 NPtTot=           0 NUsed=           0 NTot=          32
 NSgBfM=   211   211   211   211   211 MxSgAt=     7 MxSgA2=     7.
 Leave Link  302 at Thu Dec  7 04:00:48 2023, MaxMem=  1879048192 cpu:               2.0 elap:               0.1
 (Enter /home/sekinelabo/g16/l303.exe)
 DipDrv:  MaxL=1.
 Leave Link  303 at Thu Dec  7 04:00:48 2023, MaxMem=  1879048192 cpu:               0.5 elap:               0.0
 (Enter /home/sekinelabo/g16/l401.exe)
 ExpMin= 7.60D-03 ExpMax= 3.62D+04 ExpMxC= 1.21D+03 IAcc=3 IRadAn=         5 AccDes= 0.00D+00
 Harris functional with IExCor=  402 and IRadAn=       5 diagonalized for initial guess.
 HarFok:  IExCor=  402 AccDes= 0.00D+00 IRadAn=         5 IDoV= 1 UseB2=F ITyADJ=14
 ICtDFT=  3500011 ScaDFX=  1.000000  1.000000  1.000000  1.000000
 FoFCou: FMM=F IPFlag=           0 FMFlag=      100000 FMFlg1=           0
         NFxFlg=           0 DoJE=T BraDBF=F KetDBF=T FulRan=T
         wScrn=  0.000000 ICntrl=       500 IOpCl=  0 I1Cent=   200000004 NGrid=           0
         NMat0=    1 NMatS0=      1 NMatT0=    0 NMatD0=    1 NMtDS0=    0 NMtDT0=    0
 Petite list used in FoFCou.
 Harris En= -1135.89743314372    
 JPrj=0 DoOrth=F DoCkMO=F.
 Initial guess <Sx>= 0.0000 <Sy>= 0.0000 <Sz>= 0.5000 <S**2>= 0.7500 S= 0.5000
 Leave Link  401 at Thu Dec  7 04:00:48 2023, MaxMem=  1879048192 cpu:               4.3 elap:               0.3
 (Enter /home/sekinelabo/g16/l502.exe)
 Keep R1 and R2 ints in memory in canonical form, NReq=506573335.
 FoFCou: FMM=F IPFlag=           0 FMFlag=           0 FMFlg1=           0
         NFxFlg=           0 DoJE=F BraDBF=F KetDBF=F FulRan=T
         wScrn=  0.000000 ICntrl=       600 IOpCl=  0 I1Cent=           0 NGrid=           0
         NMat0=    1 NMatS0=  22155 NMatT0=    0 NMatD0=    1 NMtDS0=    0 NMtDT0=    0
 Symmetry not used in FoFCou.
 Two-electron integral symmetry not used.
 UHF open shell SCF:
 Using DIIS extrapolation, IDIIS=  1040.
 NGot=  1879048192 LenX=  1388082565 LenY=  1388035035
 Requested convergence on RMS density matrix=1.00D-08 within 128 cycles.
 Requested convergence on MAX density matrix=1.00D-06.
 Requested convergence on             energy=1.00D-06.
 No special actions if energy rises.

 Cycle   1  Pass 1  IDiag  1:
 E= -1136.08554903632    
 DIIS: error= 1.12D-02 at cycle   1 NSaved=   1.
 NSaved= 1 IEnMin= 1 EnMin= -1136.08554903632     IErMin= 1 ErrMin= 1.12D-02
 ErrMax= 1.12D-02  0.00D+00 EMaxC= 1.00D-01 BMatC= 1.97D-01 BMatP= 1.97D-01
 IDIUse=3 WtCom= 8.88D-01 WtEn= 1.12D-01
 Coeff-Com:  0.100D+01
 Coeff-En:   0.100D+01
 Coeff:      0.100D+01
 Gap=     0.042 Goal=   None    Shift=    0.000
 Gap=     0.042 Goal=   None    Shift=    0.000
 GapD=    0.042 DampG=0.250 DampE=0.500 DampFc=0.2500 IDamp=-1.
 Damping current iteration by 2.50D-01
 RMSDP=5.65D-02 MaxDP=3.78D+00              OVMax= 2.60D-01

 Cycle   2  Pass 1  IDiag  1:
 E= -1136.09991783187     Delta-E=       -0.014368795546 Rises=F Damp=T
 DIIS: error= 7.66D-03 at cycle   2 NSaved=   2.
 NSaved= 2 IEnMin= 2 EnMin= -1136.09991783187     IErMin= 2 ErrMin= 7.66D-03
 ErrMax= 7.66D-03  0.00D+00 EMaxC= 1.00D-01 BMatC= 7.41D-02 BMatP= 1.97D-01
 IDIUse=3 WtCom= 9.23D-01 WtEn= 7.66D-02
 Coeff-Com: -0.124D+01 0.224D+01
 Coeff-En:   0.000D+00 0.100D+01
 Coeff:     -0.115D+01 0.215D+01
 Gap=     0.055 Goal=   None    Shift=    0.000
 Gap=     0.047 Goal=   None    Shift=    0.000
 RMSDP=2.18D-02 MaxDP=1.75D+00 DE=-1.44D-02 OVMax= 1.79D-01

 Cycle   3  Pass 1  IDiag  1:
 E= -1136.12306007868     Delta-E=       -0.023142246809 Rises=F Damp=F
 DIIS: error= 3.47D-03 at cycle   3 NSaved=   3.
 NSaved= 3 IEnMin= 3 EnMin= -1136.12306007868     IErMin= 3 ErrMin= 3.47D-03
 ErrMax= 3.47D-03  0.00D+00 EMaxC= 1.00D-01 BMatC= 4.05D-03 BMatP= 7.41D-02
 IDIUse=3 WtCom= 9.65D-01 WtEn= 3.47D-02
 Coeff-Com: -0.280D+00 0.495D+00 0.785D+00
 Coeff-En:   0.000D+00 0.000D+00 0.100D+01
 Coeff:     -0.270D+00 0.478D+00 0.792D+00
 Gap=     0.051 Goal=   None    Shift=    0.000
 Gap=     0.044 Goal=   None    Shift=    0.000
 RMSDP=1.28D-02 MaxDP=8.71D-01 DE=-2.31D-02 OVMax= 8.65D-02

 Cycle   4  Pass 1  IDiag  1:
 E= -1136.12323702821     Delta-E=       -0.000176949527 Rises=F Damp=F
 DIIS: error= 3.34D-03 at cycle   4 NSaved=   4.
 NSaved= 4 IEnMin= 4 EnMin= -1136.12323702821     IErMin= 4 ErrMin= 3.34D-03
 ErrMax= 3.34D-03  0.00D+00 EMaxC= 1.00D-01 BMatC= 3.42D-03 BMatP= 4.05D-03
 IDIUse=3 WtCom= 9.67D-01 WtEn= 3.34D-02
 Coeff-Com: -0.101D-01 0.150D-01 0.478D+00 0.517D+00
 Coeff-En:   0.000D+00 0.000D+00 0.488D+00 0.512D+00
 Coeff:     -0.975D-02 0.145D-01 0.478D+00 0.517D+00
 Gap=     0.053 Goal=   None    Shift=    0.000
 Gap=     0.045 Goal=   None    Shift=    0.000
 RMSDP=4.69D-03 MaxDP=3.25D-01 DE=-1.77D-04 OVMax= 5.81D-02

 Cycle   5  Pass 1  IDiag  1:
 E= -1136.12603099079     Delta-E=       -0.002793962583 Rises=F Damp=F
 DIIS: error= 8.98D-04 at cycle   5 NSaved=   5.
 NSaved= 5 IEnMin= 5 EnMin= -1136.12603099079     IErMin= 5 ErrMin= 8.98D-04
 ErrMax= 8.98D-04  0.00D+00 EMaxC= 1.00D-01 BMatC= 1.62D-04 BMatP= 3.42D-03
 IDIUse=3 WtCom= 9.91D-01 WtEn= 8.98D-03
 Coeff-Com: -0.482D-02 0.559D-02 0.290D+00 0.331D+00 0.379D+00
 Coeff-En:   0.000D+00 0.000D+00 0.000D+00 0.000D+00 0.100D+01
 Coeff:     -0.478D-02 0.554D-02 0.287D+00 0.328D+00 0.384D+00
 Gap=     0.053 Goal=   None    Shift=    0.000
 Gap=     0.045 Goal=   None    Shift=    0.000
 RMSDP=7.03D-04 MaxDP=3.57D-02 DE=-2.79D-03 OVMax= 1.63D-02

 Cycle   6  Pass 1  IDiag  1:
 E= -1136.12623780757     Delta-E=       -0.000206816784 Rises=F Damp=F
 DIIS: error= 9.69D-05 at cycle   6 NSaved=   6.
 NSaved= 6 IEnMin= 6 EnMin= -1136.12623780757     IErMin= 6 ErrMin= 9.69D-05
 ErrMax= 9.69D-05  0.00D+00 EMaxC= 1.00D-01 BMatC= 3.27D-06 BMatP= 1.62D-04
 IDIUse=1 WtCom= 1.00D+00 WtEn= 0.00D+00
 Coeff-Com: -0.278D-02 0.338D-02-0.166D-01-0.131D-01 0.875D-01 0.942D+00
 Coeff:     -0.278D-02 0.338D-02-0.166D-01-0.131D-01 0.875D-01 0.942D+00
 Gap=     0.053 Goal=   None    Shift=    0.000
 Gap=     0.046 Goal=   None    Shift=    0.000
 RMSDP=3.06D-04 MaxDP=2.41D-02 DE=-2.07D-04 OVMax= 3.61D-03

 Cycle   7  Pass 1  IDiag  1:
 E= -1136.12624116619     Delta-E=       -0.000003358619 Rises=F Damp=F
 DIIS: error= 9.06D-05 at cycle   7 NSaved=   7.
 NSaved= 7 IEnMin= 7 EnMin= -1136.12624116619     IErMin= 7 ErrMin= 9.06D-05
 ErrMax= 9.06D-05  0.00D+00 EMaxC= 1.00D-01 BMatC= 2.16D-06 BMatP= 3.27D-06
 IDIUse=1 WtCom= 1.00D+00 WtEn= 0.00D+00
 Coeff-Com: -0.135D-02 0.164D-02-0.360D-01-0.367D-01 0.242D-01 0.607D+00
 Coeff-Com:  0.441D+00
 Coeff:     -0.135D-02 0.164D-02-0.360D-01-0.367D-01 0.242D-01 0.607D+00
 Coeff:      0.441D+00
 Gap=     0.053 Goal=   None    Shift=    0.000
 Gap=     0.046 Goal=   None    Shift=    0.000
 RMSDP=9.85D-05 MaxDP=6.26D-03 DE=-3.36D-06 OVMax= 2.31D-03

 Cycle   8  Pass 1  IDiag  1:
 E= -1136.12624413800     Delta-E=       -0.000002971812 Rises=F Damp=F
 DIIS: error= 2.11D-05 at cycle   8 NSaved=   8.
 NSaved= 8 IEnMin= 8 EnMin= -1136.12624413800     IErMin= 8 ErrMin= 2.11D-05
 ErrMax= 2.11D-05  0.00D+00 EMaxC= 1.00D-01 BMatC= 1.68D-07 BMatP= 2.16D-06
 IDIUse=1 WtCom= 1.00D+00 WtEn= 0.00D+00
 Coeff-Com:  0.793D-03-0.105D-02-0.737D-02-0.815D-02-0.196D-01-0.977D-01
 Coeff-Com:  0.163D+00 0.970D+00
 Coeff:      0.793D-03-0.105D-02-0.737D-02-0.815D-02-0.196D-01-0.977D-01
 Coeff:      0.163D+00 0.970D+00
 Gap=     0.053 Goal=   None    Shift=    0.000
 Gap=     0.046 Goal=   None    Shift=    0.000
 RMSDP=5.91D-05 MaxDP=5.05D-03 DE=-2.97D-06 OVMax= 1.15D-03

 Cycle   9  Pass 1  IDiag  1:
 E= -1136.12624464089     Delta-E=       -0.000000502889 Rises=F Damp=F
 DIIS: error= 1.10D-05 at cycle   9 NSaved=   9.
 NSaved= 9 IEnMin= 9 EnMin= -1136.12624464089     IErMin= 9 ErrMin= 1.10D-05
 ErrMax= 1.10D-05  0.00D+00 EMaxC= 1.00D-01 BMatC= 2.82D-08 BMatP= 1.68D-07
 IDIUse=1 WtCom= 1.00D+00 WtEn= 0.00D+00
 Coeff-Com:  0.610D-03-0.780D-03 0.121D-02 0.360D-03-0.126D-01-0.104D+00
 Coeff-Com:  0.859D-03 0.317D+00 0.797D+00
 Coeff:      0.610D-03-0.780D-03 0.121D-02 0.360D-03-0.126D-01-0.104D+00
 Coeff:      0.859D-03 0.317D+00 0.797D+00
 Gap=     0.053 Goal=   None    Shift=    0.000
 Gap=     0.046 Goal=   None    Shift=    0.000
 RMSDP=2.88D-05 MaxDP=1.98D-03 DE=-5.03D-07 OVMax= 5.67D-04

 Cycle  10  Pass 1  IDiag  1:
 E= -1136.12624473242     Delta-E=       -0.000000091527 Rises=F Damp=F
 DIIS: error= 5.95D-06 at cycle  10 NSaved=  10.
 NSaved=10 IEnMin=10 EnMin= -1136.12624473242     IErMin=10 ErrMin= 5.95D-06
 ErrMax= 5.95D-06  0.00D+00 EMaxC= 1.00D-01 BMatC= 9.63D-09 BMatP= 2.82D-08
 IDIUse=1 WtCom= 1.00D+00 WtEn= 0.00D+00
 Coeff-Com:  0.141D-03-0.172D-03 0.302D-02 0.267D-02-0.158D-02-0.318D-01
 Coeff-Com: -0.377D-01-0.722D-01 0.378D+00 0.760D+00
 Coeff:      0.141D-03-0.172D-03 0.302D-02 0.267D-02-0.158D-02-0.318D-01
 Coeff:     -0.377D-01-0.722D-01 0.378D+00 0.760D+00
 Gap=     0.053 Goal=   None    Shift=    0.000
 Gap=     0.046 Goal=   None    Shift=    0.000
 RMSDP=1.53D-05 MaxDP=7.94D-04 DE=-9.15D-08 OVMax= 4.25D-04

 Cycle  11  Pass 1  IDiag  1:
 E= -1136.12624476600     Delta-E=       -0.000000033579 Rises=F Damp=F
 DIIS: error= 3.05D-06 at cycle  11 NSaved=  11.
 NSaved=11 IEnMin=11 EnMin= -1136.12624476600     IErMin=11 ErrMin= 3.05D-06
 ErrMax= 3.05D-06  0.00D+00 EMaxC= 1.00D-01 BMatC= 1.97D-09 BMatP= 9.63D-09
 IDIUse=1 WtCom= 1.00D+00 WtEn= 0.00D+00
 Coeff-Com: -0.203D-03 0.267D-03 0.194D-03 0.396D-03 0.383D-02 0.229D-01
 Coeff-Com: -0.582D-02-0.112D+00-0.186D+00 0.182D+00 0.109D+01
 Coeff:     -0.203D-03 0.267D-03 0.194D-03 0.396D-03 0.383D-02 0.229D-01
 Coeff:     -0.582D-02-0.112D+00-0.186D+00 0.182D+00 0.109D+01
 Gap=     0.053 Goal=   None    Shift=    0.000
 Gap=     0.046 Goal=   None    Shift=    0.000
 RMSDP=1.25D-05 MaxDP=6.95D-04 DE=-3.36D-08 OVMax= 3.27D-04

 Cycle  12  Pass 1  IDiag  1:
 E= -1136.12624477932     Delta-E=       -0.000000013323 Rises=F Damp=F
 DIIS: error= 1.10D-06 at cycle  12 NSaved=  12.
 NSaved=12 IEnMin=12 EnMin= -1136.12624477932     IErMin=12 ErrMin= 1.10D-06
 ErrMax= 1.10D-06  0.00D+00 EMaxC= 1.00D-01 BMatC= 4.53D-10 BMatP= 1.97D-09
 IDIUse=1 WtCom= 1.00D+00 WtEn= 0.00D+00
 Coeff-Com: -0.108D-03 0.139D-03-0.259D-03-0.976D-04 0.193D-02 0.141D-01
 Coeff-Com:  0.252D-02-0.364D-01-0.127D+00-0.547D-01 0.411D+00 0.788D+00
 Coeff:     -0.108D-03 0.139D-03-0.259D-03-0.976D-04 0.193D-02 0.141D-01
 Coeff:      0.252D-02-0.364D-01-0.127D+00-0.547D-01 0.411D+00 0.788D+00
 Gap=     0.053 Goal=   None    Shift=    0.000
 Gap=     0.046 Goal=   None    Shift=    0.000
 RMSDP=4.53D-06 MaxDP=2.25D-04 DE=-1.33D-08 OVMax= 1.34D-04

 Cycle  13  Pass 1  IDiag  1:
 E= -1136.12624478147     Delta-E=       -0.000000002149 Rises=F Damp=F
 DIIS: error= 5.71D-07 at cycle  13 NSaved=  13.
 NSaved=13 IEnMin=13 EnMin= -1136.12624478147     IErMin=13 ErrMin= 5.71D-07
 ErrMax= 5.71D-07  0.00D+00 EMaxC= 1.00D-01 BMatC= 8.83D-11 BMatP= 4.53D-10
 IDIUse=1 WtCom= 1.00D+00 WtEn= 0.00D+00
 Coeff-Com:  0.332D-04-0.446D-04-0.113D-03-0.105D-03-0.641D-03-0.328D-02
 Coeff-Com:  0.267D-02 0.230D-01 0.186D-01-0.518D-01-0.220D+00 0.907D-01
 Coeff-Com:  0.114D+01
 Coeff:      0.332D-04-0.446D-04-0.113D-03-0.105D-03-0.641D-03-0.328D-02
 Coeff:      0.267D-02 0.230D-01 0.186D-01-0.518D-01-0.220D+00 0.907D-01
 Coeff:      0.114D+01
 Gap=     0.053 Goal=   None    Shift=    0.000
 Gap=     0.046 Goal=   None    Shift=    0.000
 RMSDP=3.28D-06 MaxDP=1.76D-04 DE=-2.15D-09 OVMax= 9.42D-05

 Cycle  14  Pass 1  IDiag  1:
 E= -1136.12624478220     Delta-E=       -0.000000000734 Rises=F Damp=F
 DIIS: error= 2.76D-07 at cycle  14 NSaved=  14.
 NSaved=14 IEnMin=14 EnMin= -1136.12624478220     IErMin=14 ErrMin= 2.76D-07
 ErrMax= 2.76D-07  0.00D+00 EMaxC= 1.00D-01 BMatC= 1.51D-11 BMatP= 8.83D-11
 IDIUse=1 WtCom= 1.00D+00 WtEn= 0.00D+00
 Coeff-Com:  0.169D-04-0.216D-04-0.197D-05-0.324D-04-0.321D-03-0.152D-02
 Coeff-Com: -0.414D-03 0.288D-02 0.266D-01 0.120D-01-0.677D-01-0.132D+00
 Coeff-Com: -0.138D+00 0.130D+01
 Coeff:      0.169D-04-0.216D-04-0.197D-05-0.324D-04-0.321D-03-0.152D-02
 Coeff:     -0.414D-03 0.288D-02 0.266D-01 0.120D-01-0.677D-01-0.132D+00
 Coeff:     -0.138D+00 0.130D+01
 Gap=     0.053 Goal=   None    Shift=    0.000
 Gap=     0.046 Goal=   None    Shift=    0.000
 RMSDP=1.73D-06 MaxDP=1.13D-04 DE=-7.34D-10 OVMax= 4.39D-05

 Cycle  15  Pass 1  IDiag  1:
 E= -1136.12624478237     Delta-E=       -0.000000000161 Rises=F Damp=F
 DIIS: error= 1.25D-07 at cycle  15 NSaved=  15.
 NSaved=15 IEnMin=15 EnMin= -1136.12624478237     IErMin=15 ErrMin= 1.25D-07
 ErrMax= 1.25D-07  0.00D+00 EMaxC= 1.00D-01 BMatC= 2.36D-12 BMatP= 1.51D-11
 IDIUse=1 WtCom= 1.00D+00 WtEn= 0.00D+00
 Coeff-Com: -0.610D-05 0.835D-05 0.242D-04 0.183D-04 0.144D-03 0.484D-03
 Coeff-Com: -0.424D-03-0.418D-02-0.479D-02 0.889D-02 0.467D-01-0.147D-01
 Coeff-Com: -0.195D+00-0.127D+00 0.129D+01
 Coeff:     -0.610D-05 0.835D-05 0.242D-04 0.183D-04 0.144D-03 0.484D-03
 Coeff:     -0.424D-03-0.418D-02-0.479D-02 0.889D-02 0.467D-01-0.147D-01
 Coeff:     -0.195D+00-0.127D+00 0.129D+01
 Gap=     0.053 Goal=   None    Shift=    0.000
 Gap=     0.046 Goal=   None    Shift=    0.000
 RMSDP=7.67D-07 MaxDP=5.04D-05 DE=-1.61D-10 OVMax= 1.63D-05

 Cycle  16  Pass 1  IDiag  1:
 E= -1136.12624478240     Delta-E=       -0.000000000033 Rises=F Damp=F
 DIIS: error= 3.18D-08 at cycle  16 NSaved=  16.
 NSaved=16 IEnMin=16 EnMin= -1136.12624478240     IErMin=16 ErrMin= 3.18D-08
 ErrMax= 3.18D-08  0.00D+00 EMaxC= 1.00D-01 BMatC= 2.79D-13 BMatP= 2.36D-12
 IDIUse=1 WtCom= 1.00D+00 WtEn= 0.00D+00
 Coeff-Com: -0.256D-05 0.334D-05 0.544D-05 0.801D-05 0.463D-04 0.206D-03
 Coeff-Com: -0.393D-04-0.826D-03-0.311D-02 0.132D-02 0.926D-02 0.115D-01
 Coeff-Com: -0.630D-02-0.144D+00 0.158D+00 0.974D+00
 Coeff:     -0.256D-05 0.334D-05 0.544D-05 0.801D-05 0.463D-04 0.206D-03
 Coeff:     -0.393D-04-0.826D-03-0.311D-02 0.132D-02 0.926D-02 0.115D-01
 Coeff:     -0.630D-02-0.144D+00 0.158D+00 0.974D+00
 Gap=     0.053 Goal=   None    Shift=    0.000
 Gap=     0.046 Goal=   None    Shift=    0.000
 RMSDP=1.33D-07 MaxDP=7.58D-06 DE=-3.25D-11 OVMax= 2.64D-06

 Cycle  17  Pass 1  IDiag  1:
 E= -1136.12624478238     Delta-E=        0.000000000013 Rises=F Damp=F
 DIIS: error= 1.57D-08 at cycle  17 NSaved=  17.
 NSaved=17 IEnMin=16 EnMin= -1136.12624478240     IErMin=17 ErrMin= 1.57D-08
 ErrMax= 1.57D-08  0.00D+00 EMaxC= 1.00D-01 BMatC= 6.70D-14 BMatP= 2.79D-13
 IDIUse=1 WtCom= 1.00D+00 WtEn= 0.00D+00
 Coeff-Com:  0.432D-06-0.635D-06-0.444D-05-0.266D-05-0.190D-04-0.274D-04
 Coeff-Com:  0.659D-04 0.636D-03 0.297D-03-0.179D-02-0.651D-02 0.565D-02
 Coeff-Com:  0.336D-01 0.194D-02-0.219D+00 0.173D+00 0.101D+01
 Coeff:      0.432D-06-0.635D-06-0.444D-05-0.266D-05-0.190D-04-0.274D-04
 Coeff:      0.659D-04 0.636D-03 0.297D-03-0.179D-02-0.651D-02 0.565D-02
 Coeff:      0.336D-01 0.194D-02-0.219D+00 0.173D+00 0.101D+01
 Gap=     0.053 Goal=   None    Shift=    0.000
 Gap=     0.046 Goal=   None    Shift=    0.000
 RMSDP=6.09D-08 MaxDP=5.71D-06 DE= 1.34D-11 OVMax= 1.14D-06

 Cycle  18  Pass 1  IDiag  1:
 E= -1136.12624478239     Delta-E=       -0.000000000001 Rises=F Damp=F
 DIIS: error= 8.05D-09 at cycle  18 NSaved=  18.
 NSaved=18 IEnMin=16 EnMin= -1136.12624478240     IErMin=18 ErrMin= 8.05D-09
 ErrMax= 8.05D-09  0.00D+00 EMaxC= 1.00D-01 BMatC= 1.35D-14 BMatP= 6.70D-14
 IDIUse=1 WtCom= 1.00D+00 WtEn= 0.00D+00
 Coeff-Com:  0.761D-06-0.989D-06-0.289D-06-0.121D-05-0.850D-05-0.667D-04
 Coeff-Com: -0.938D-05 0.908D-04 0.880D-03 0.157D-03-0.142D-02-0.488D-02
 Coeff-Com: -0.430D-02 0.374D-01 0.215D-03-0.286D+00-0.142D+00 0.140D+01
 Coeff:      0.761D-06-0.989D-06-0.289D-06-0.121D-05-0.850D-05-0.667D-04
 Coeff:     -0.938D-05 0.908D-04 0.880D-03 0.157D-03-0.142D-02-0.488D-02
 Coeff:     -0.430D-02 0.374D-01 0.215D-03-0.286D+00-0.142D+00 0.140D+01
 Gap=     0.053 Goal=   None    Shift=    0.000
 Gap=     0.046 Goal=   None    Shift=    0.000
 RMSDP=3.79D-08 MaxDP=2.59D-06 DE=-1.36D-12 OVMax= 8.48D-07

 Cycle  19  Pass 1  IDiag  1:
 E= -1136.12624478239     Delta-E=       -0.000000000005 Rises=F Damp=F
 DIIS: error= 2.67D-09 at cycle  19 NSaved=  19.
 NSaved=19 IEnMin=16 EnMin= -1136.12624478240     IErMin=19 ErrMin= 2.67D-09
 ErrMax= 2.67D-09  0.00D+00 EMaxC= 1.00D-01 BMatC= 1.63D-15 BMatP= 1.35D-14
 IDIUse=1 WtCom= 1.00D+00 WtEn= 0.00D+00
 Large coefficients: NSaved= 19 BigCof=    0.00 CofMax=   10.00 Det=-2.09D-15
 Inversion failed.  Reducing to 18 matrices.
 Large coefficients: NSaved= 18 BigCof=    0.00 CofMax=   10.00 Det=-2.80D-15
 Inversion failed.  Reducing to 17 matrices.
 Large coefficients: NSaved= 17 BigCof=    0.00 CofMax=   10.00 Det=-2.90D-15
 Inversion failed.  Reducing to 16 matrices.
 Large coefficients: NSaved= 16 BigCof=    0.00 CofMax=   10.00 Det=-2.90D-15
 Inversion failed.  Reducing to 15 matrices.
 Coeff-Com:  0.697D-06 0.190D-05-0.205D-05-0.871D-05-0.752D-04 0.277D-04
 Coeff-Com:  0.574D-03-0.314D-03-0.252D-02 0.402D-03 0.173D-01-0.129D-01
 Coeff-Com: -0.128D+00-0.180D-01 0.114D+01
 Coeff:      0.697D-06 0.190D-05-0.205D-05-0.871D-05-0.752D-04 0.277D-04
 Coeff:      0.574D-03-0.314D-03-0.252D-02 0.402D-03 0.173D-01-0.129D-01
 Coeff:     -0.128D+00-0.180D-01 0.114D+01
 Gap=     0.053 Goal=   None    Shift=    0.000
 Gap=     0.046 Goal=   None    Shift=    0.000
 RMSDP=1.33D-08 MaxDP=9.73D-07 DE=-5.46D-12 OVMax= 2.44D-07

 Cycle  20  Pass 1  IDiag  1:
 E= -1136.12624478241     Delta-E=       -0.000000000015 Rises=F Damp=F
 DIIS: error= 1.09D-09 at cycle  20 NSaved=  16.
 NSaved=16 IEnMin=16 EnMin= -1136.12624478241     IErMin=16 ErrMin= 1.09D-09
 ErrMax= 1.09D-09  0.00D+00 EMaxC= 1.00D-01 BMatC= 2.46D-16 BMatP= 1.63D-15
 IDIUse=1 WtCom= 1.00D+00 WtEn= 0.00D+00
 Large coefficients: NSaved= 16 BigCof=    0.00 CofMax=   10.00 Det=-3.79D-16
 Inversion failed.  Reducing to 15 matrices.
 Coeff-Com:  0.153D-05 0.225D-05-0.114D-04-0.339D-04 0.492D-04 0.135D-03
 Coeff-Com:  0.457D-04-0.331D-03-0.226D-02 0.390D-02 0.192D-01 0.167D-01
 Coeff-Com: -0.128D+00-0.153D+00 0.124D+01
 Coeff:      0.153D-05 0.225D-05-0.114D-04-0.339D-04 0.492D-04 0.135D-03
 Coeff:      0.457D-04-0.331D-03-0.226D-02 0.390D-02 0.192D-01 0.167D-01
 Coeff:     -0.128D+00-0.153D+00 0.124D+01
 Gap=     0.053 Goal=   None    Shift=    0.000
 Gap=     0.046 Goal=   None    Shift=    0.000
 RMSDP=6.79D-09 MaxDP=4.87D-07 DE=-1.46D-11 OVMax= 8.98D-08

 SCF Done:  E(UB3LYP) =  -1136.12624478     A.U. after   20 cycles
            NFock= 20  Conv=0.68D-08     -V/T= 2.0028
 <Sx>= 0.0000 <Sy>= 0.0000 <Sz>= 0.5000 <S**2>= 0.7609 S= 0.5054
 <L.S>= 0.000000000000E+00
 KE= 1.132943979485D+03 PE=-3.404583707713D+03 EE= 7.979585909230D+02
 Annihilation of the first spin contaminant:
 S**2 before annihilation     0.7609,   after     0.7501
 Leave Link  502 at Thu Dec  7 04:01:05 2023, MaxMem=  1879048192 cpu:             184.1 elap:              16.3
 (Enter /home/sekinelabo/g16/l601.exe)
 Copying SCF densities to generalized density rwf, IOpCl= 1 IROHF=0.

 **********************************************************************

            Population analysis using the SCF Density.

 **********************************************************************

 Orbital symmetries:
 Alpha Orbitals:
       Occupied  (A) (A) (A) (A) (A) (A) (A) (A) (A) (A) (A) (A)
                 (A) (A) (A) (A) (A) (A) (A) (A) (A) (A) (A) (A)
                 (A) (A) (A) (A) (A) (A) (A) (A) (A) (A) (A) (A)
                 (A) (A) (A)
       Virtual   (A) (A) (A) (A) (A) (A) (A) (A) (A) (A) (A) (A)
                 (A) (A) (A) (A) (A) (A) (A) (A) (A) (A) (A) (A)
                 (A) (A) (A) (A) (A) (A) (A) (A) (A) (A) (A) (A)
                 (A) (A) (A) (A) (A) (A) (A) (A) (A) (A) (A) (A)
                 (A) (A) (A) (A) (A) (A) (A) (A) (A) (A) (A) (A)
                 (A) (A) (A) (A) (A) (A) (A) (A) (A) (A) (A) (A)
                 (A) (A) (A) (A) (A) (A) (A) (A) (A) (A) (A) (A)
                 (A) (A) (A) (A) (A) (A) (A) (A) (A) (A) (A) (A)
                 (A) (A) (A) (A) (A) (A) (A) (A) (A) (A) (A) (A)
                 (A) (A) (A) (A) (A) (A) (A) (A) (A) (A) (A) (A)
                 (A) (A) (A) (A) (A) (A) (A) (A) (A) (A) (A) (A)
                 (A) (A) (A) (A) (A) (A) (A) (A) (A) (A) (A) (A)
                 (A) (A) (A) (A) (A) (A) (A) (A) (A) (A) (A) (A)
                 (A) (A) (A) (A) (A) (A) (A) (A) (A) (A) (A) (A)
                 (A) (A) (A)
 Beta  Orbitals:
       Occupied  (A) (A) (A) (A) (A) (A) (A) (A) (A) (A) (A) (A)
                 (A) (A) (A) (A) (A) (A) (A) (A) (A) (A) (A) (A)
                 (A) (A) (A) (A) (A) (A) (A) (A) (A) (A) (A) (A)
                 (A) (A)
       Virtual   (A) (A) (A) (A) (A) (A) (A) (A) (A) (A) (A) (A)
                 (A) (A) (A) (A) (A) (A) (A) (A) (A) (A) (A) (A)
                 (A) (A) (A) (A) (A) (A) (A) (A) (A) (A) (A) (A)
                 (A) (A) (A) (A) (A) (A) (A) (A) (A) (A) (A) (A)
                 (A) (A) (A) (A) (A) (A) (A) (A) (A) (A) (A) (A)
                 (A) (A) (A) (A) (A) (A) (A) (A) (A) (A) (A) (A)
                 (A) (A) (A) (A) (A) (A) (A) (A) (A) (A) (A) (A)
                 (A) (A) (A) (A) (A) (A) (A) (A) (A) (A) (A) (A)
                 (A) (A) (A) (A) (A) (A) (A) (A) (A) (A) (A) (A)
                 (A) (A) (A) (A) (A) (A) (A) (A) (A) (A) (A) (A)
                 (A) (A) (A) (A) (A) (A) (A) (A) (A) (A) (A) (A)
                 (A) (A) (A) (A) (A) (A) (A) (A) (A) (A) (A) (A)
                 (A) (A) (A) (A) (A) (A) (A) (A) (A) (A) (A) (A)
                 (A) (A) (A) (A) (A) (A) (A) (A) (A) (A) (A) (A)
                 (A) (A) (A) (A)
 The electronic state is 2-A.
 Alpha  occ. eigenvalues --  -38.44254 -38.44218 -38.44194 -38.43722 -38.43341
 Alpha  occ. eigenvalues --  -38.43275 -38.42937  -2.20085  -2.20083  -2.20006
 Alpha  occ. eigenvalues --   -2.19543  -2.19179  -2.19177  -2.19057  -1.13770
 Alpha  occ. eigenvalues --   -1.13747  -1.13725  -1.13704  -1.13704  -1.13685
 Alpha  occ. eigenvalues --   -1.13684  -1.13670  -1.13640  -1.13235  -1.13199
 Alpha  occ. eigenvalues --   -1.13172  -1.13162  -1.12880  -1.12850  -1.12815
 Alpha  occ. eigenvalues --   -1.12804  -1.12755  -1.12720  -1.12642  -1.12595
 Alpha  occ. eigenvalues --   -0.18418  -0.13229  -0.11975  -0.11055
 Alpha virt. eigenvalues --   -0.05778  -0.05243  -0.04253  -0.03126  -0.02917
 Alpha virt. eigenvalues --   -0.02556  -0.01881  -0.01060  -0.00461  -0.00213
 Alpha virt. eigenvalues --   -0.00060   0.00288   0.00732   0.00853   0.00877
 Alpha virt. eigenvalues --    0.01002   0.01083   0.01141   0.01226   0.01300
 Alpha virt. eigenvalues --    0.01369   0.01455   0.01590   0.01829   0.01995
 Alpha virt. eigenvalues --    0.02279   0.02323   0.02511   0.02551   0.02913
 Alpha virt. eigenvalues --    0.02930   0.02980   0.03053   0.03132   0.03159
 Alpha virt. eigenvalues --    0.03250   0.03274   0.03439   0.03559   0.03666
 Alpha virt. eigenvalues --    0.03771   0.04080   0.04295   0.04630   0.04645
 Alpha virt. eigenvalues --    0.04725   0.05028   0.05184   0.05615   0.05764
 Alpha virt. eigenvalues --    0.05893   0.06331   0.06767   0.07235   0.07484
 Alpha virt. eigenvalues --    0.07848   0.08135   0.08200   0.08259   0.09198
 Alpha virt. eigenvalues --    0.09487   0.10026   0.10444   0.10813   0.11045
 Alpha virt. eigenvalues --    0.11728   0.12019   0.12184   0.12469   0.12997
 Alpha virt. eigenvalues --    0.13622   0.13806   0.14083   0.14762   0.14859
 Alpha virt. eigenvalues --    0.15173   0.15445   0.17045   0.18050   0.19117
 Alpha virt. eigenvalues --    0.25296   0.26453   0.27566   0.28866   0.29550
 Alpha virt. eigenvalues --    0.30635   0.31038   0.31887   0.32326   0.33096
 Alpha virt. eigenvalues --    0.34853   0.36244   0.36831   0.37506   0.37815
 Alpha virt. eigenvalues --    0.38613   0.39943   0.40871   0.41384   0.41479
 Alpha virt. eigenvalues --    0.42919   0.43285   0.43652   0.43870   0.44305
 Alpha virt. eigenvalues --    0.44795   0.45024   0.45350   0.46146   0.46415
 Alpha virt. eigenvalues --    0.46635   0.47045   0.47733   0.48004   0.48453
 Alpha virt. eigenvalues --    0.48734   0.49370   0.50627   0.51019   0.51589
 Alpha virt. eigenvalues --    0.51827   0.52455   0.54626   0.55137   0.56220
 Alpha virt. eigenvalues --    0.56835   0.58700   0.60635   0.61321   0.61898
 Alpha virt. eigenvalues --    0.62970   0.64376   0.65669   0.66616   0.71325
 Alpha virt. eigenvalues --    0.83523   2.05261   2.12436   2.15372   2.16139
 Alpha virt. eigenvalues --    2.17691   2.20476   2.33547   4.43716   4.44365
 Alpha virt. eigenvalues --    4.44941   4.44974   4.45267   4.45693   4.46349
 Alpha virt. eigenvalues --    4.46798   4.47212   4.48129   4.48653   4.49785
 Alpha virt. eigenvalues --    4.50687   4.51157   4.51803   4.53458   4.55004
 Alpha virt. eigenvalues --    4.58801   4.59291   4.62374   4.79949  96.25564
 Alpha virt. eigenvalues --   96.33895  96.36932  96.38493  96.40184  96.43917
 Alpha virt. eigenvalues --   96.60469
  Beta  occ. eigenvalues --  -38.44219 -38.44191 -38.44101 -38.43708 -38.43337
  Beta  occ. eigenvalues --  -38.43269 -38.42919  -2.20019  -2.20002  -2.19868
  Beta  occ. eigenvalues --   -2.19518  -2.19175  -2.19168  -2.19029  -1.13719
  Beta  occ. eigenvalues --   -1.13682  -1.13675  -1.13669  -1.13659  -1.13631
  Beta  occ. eigenvalues --   -1.13603  -1.13559  -1.13527  -1.13215  -1.13183
  Beta  occ. eigenvalues --   -1.13160  -1.13141  -1.12879  -1.12828  -1.12796
  Beta  occ. eigenvalues --   -1.12787  -1.12747  -1.12675  -1.12623  -1.12582
  Beta  occ. eigenvalues --   -0.17744  -0.12848  -0.11788
  Beta virt. eigenvalues --   -0.07216  -0.05579  -0.05081  -0.04192  -0.02578
  Beta virt. eigenvalues --   -0.02119  -0.01783  -0.01595  -0.01026  -0.00373
  Beta virt. eigenvalues --   -0.00166   0.00087   0.00350   0.00831   0.00861
  Beta virt. eigenvalues --    0.00889   0.01047   0.01197   0.01246   0.01393
  Beta virt. eigenvalues --    0.01413   0.01509   0.01566   0.01705   0.01874
  Beta virt. eigenvalues --    0.02122   0.02297   0.02375   0.02510   0.02560
  Beta virt. eigenvalues --    0.02922   0.03009   0.03058   0.03137   0.03207
  Beta virt. eigenvalues --    0.03241   0.03262   0.03291   0.03532   0.03724
  Beta virt. eigenvalues --    0.03727   0.04024   0.04201   0.04367   0.04698
  Beta virt. eigenvalues --    0.04808   0.04952   0.05083   0.05250   0.05751
  Beta virt. eigenvalues --    0.05944   0.06092   0.06343   0.06847   0.07252
  Beta virt. eigenvalues --    0.07536   0.08057   0.08209   0.08343   0.08376
  Beta virt. eigenvalues --    0.09420   0.09596   0.10338   0.10766   0.11023
  Beta virt. eigenvalues --    0.11243   0.12032   0.12193   0.12470   0.12689
  Beta virt. eigenvalues --    0.13160   0.13743   0.13884   0.14342   0.14950
  Beta virt. eigenvalues --    0.15126   0.15276   0.15536   0.17264   0.18320
  Beta virt. eigenvalues --    0.19605   0.25657   0.26694   0.27766   0.29096
  Beta virt. eigenvalues --    0.29928   0.31076   0.31409   0.32050   0.32569
  Beta virt. eigenvalues --    0.33407   0.35101   0.36571   0.37125   0.37838
  Beta virt. eigenvalues --    0.38322   0.39064   0.40156   0.40980   0.41649
  Beta virt. eigenvalues --    0.41917   0.43038   0.43466   0.43730   0.44064
  Beta virt. eigenvalues --    0.44456   0.45000   0.45098   0.45531   0.46289
  Beta virt. eigenvalues --    0.46525   0.46754   0.47099   0.48094   0.48236
  Beta virt. eigenvalues --    0.48618   0.48888   0.49499   0.50732   0.51179
  Beta virt. eigenvalues --    0.51771   0.52016   0.52581   0.54693   0.55447
  Beta virt. eigenvalues --    0.56360   0.57034   0.58760   0.60898   0.61535
  Beta virt. eigenvalues --    0.62249   0.63007   0.64525   0.65801   0.66712
  Beta virt. eigenvalues --    0.71526   0.83515   2.05390   2.12500   2.15673
  Beta virt. eigenvalues --    2.16216   2.17707   2.20650   2.33620   4.43768
  Beta virt. eigenvalues --    4.44402   4.44996   4.45033   4.45346   4.45763
  Beta virt. eigenvalues --    4.46400   4.46818   4.47251   4.48173   4.48681
  Beta virt. eigenvalues --    4.49890   4.50732   4.51198   4.51840   4.53539
  Beta virt. eigenvalues --    4.55023   4.58836   4.59375   4.62414   4.79956
  Beta virt. eigenvalues --   96.25602  96.33917  96.37038  96.38509  96.40193
  Beta virt. eigenvalues --   96.43969  96.60496
          Condensed to atoms (all electrons):
               1          2          3          4          5          6
     1  Na  11.384703  -0.341651  -0.356678  -1.153328  -0.040820   0.997817
     2  Na  -0.341651  11.636468  -0.154139   0.111672   0.295485  -0.125039
     3  Na  -0.356678  -0.154139  11.608361   0.739196  -0.557776  -0.166422
     4  Na  -1.153328   0.111672   0.739196  13.119486  -0.990333  -1.417953
     5  Na  -0.040820   0.295485  -0.557776  -0.990333  13.437380  -0.083087
     6  Na   0.997817  -0.125039  -0.166422  -1.417953  -0.083087  11.616378
     7  Na   0.223684  -0.127070  -0.280203   0.121691   0.068559  -0.139050
               7
     1  Na   0.223684
     2  Na  -0.127070
     3  Na  -0.280203
     4  Na   0.121691
     5  Na   0.068559
     6  Na  -0.139050
     7  Na  10.948110
          Atomic-Atomic Spin Densities.
               1          2          3          4          5          6
     1  Na   0.205187  -0.167597   0.103637  -0.045429  -0.203703   0.183301
     2  Na  -0.167597   0.920478  -0.018115  -0.044265  -0.040205  -0.111359
     3  Na   0.103637  -0.018115  -0.077118   0.017305   0.127601   0.068028
     4  Na  -0.045429  -0.044265   0.017305   0.406602  -0.043431  -0.126249
     5  Na  -0.203703  -0.040205   0.127601  -0.043431   0.049135  -0.235940
     6  Na   0.183301  -0.111359   0.068028  -0.126249  -0.235940   0.219013
     7  Na   0.061194   0.018585   0.081364   0.031209  -0.092195   0.072385
               7
     1  Na   0.061194
     2  Na   0.018585
     3  Na   0.081364
     4  Na   0.031209
     5  Na  -0.092195
     6  Na   0.072385
     7  Na   0.004460
 Mulliken charges and spin densities:
               1          2
     1  Na   0.286273   0.136589
     2  Na  -0.295727   0.557522
     3  Na   0.167660   0.302702
     4  Na   0.469568   0.195742
     5  Na  -1.129409  -0.438737
     6  Na   0.317356   0.069180
     7  Na   0.184278   0.177002
 Sum of Mulliken charges =  -0.00000   1.00000
 Mulliken charges and spin densities with hydrogens summed into heavy atoms:
               1          2
     1  Na   0.286273   0.136589
     2  Na  -0.295727   0.557522
     3  Na   0.167660   0.302702
     4  Na   0.469568   0.195742
     5  Na  -1.129409  -0.438737
     6  Na   0.317356   0.069180
     7  Na   0.184278   0.177002
 Electronic spatial extent (au):  <R**2>=           2377.5589
 Charge=             -0.0000 electrons
 Dipole moment (field-independent basis, Debye):
    X=              0.0651    Y=              0.0061    Z=              0.4248  Tot=              0.4298
 Quadrupole moment (field-independent basis, Debye-Ang):
   XX=            -54.7224   YY=            -65.5178   ZZ=            -71.8482
   XY=             -0.9403   XZ=              1.1811   YZ=             -1.0655
 Traceless Quadrupole moment (field-independent basis, Debye-Ang):
   XX=              9.3071   YY=             -1.4883   ZZ=             -7.8188
   XY=             -0.9403   XZ=              1.1811   YZ=             -1.0655
 Octapole moment (field-independent basis, Debye-Ang**2):
  XXX=             -6.4185  YYY=              5.0983  ZZZ=             11.7092  XYY=              5.1435
  XXY=            -10.8545  XXZ=             -9.2664  XZZ=              0.1234  YZZ=              1.0551
  YYZ=             -1.2074  XYZ=             -4.0900
 Hexadecapole moment (field-independent basis, Debye-Ang**3):
 XXXX=          -1657.5674 YYYY=          -1354.2613 ZZZZ=           -783.5569 XXXY=            -27.1189
 XXXZ=             47.5600 YYYX=             -7.7711 YYYZ=            -30.4180 ZZZX=             10.6544
 ZZZY=              1.0410 XXYY=           -495.6393 XXZZ=           -472.7809 YYZZ=           -401.2513
 XXYZ=              6.5498 YYXZ=            -23.3810 ZZXY=              7.8230
 N-N= 3.375548925224D+02 E-N=-3.404583707622D+03  KE= 1.132943979485D+03
                          Isotropic Fermi Contact Couplings
        Atom                 a.u.       MegaHertz       Gauss      10(-4) cm-1
     1  Na(23)             0.04846      57.32491      20.45495      19.12153
     2  Na(23)             0.48922     578.75898     206.51560     193.05322
     3  Na(23)            -0.00831      -9.83323      -3.50874      -3.28001
     4  Na(23)             0.14597     172.68341      61.61774      57.60099
     5  Na(23)             0.02573      30.44033      10.86187      10.15380
     6  Na(23)            -0.00421      -4.98001      -1.77699      -1.66115
     7  Na(23)            -0.02082     -24.62732      -8.78764      -8.21479
 --------------------------------------------------------
       Center         ----  Spin Dipole Couplings  ----
                      3XX-RR        3YY-RR        3ZZ-RR
 --------------------------------------------------------
     1   Atom       -0.005820     -0.001178      0.006997
     2   Atom       -0.004253      0.011699     -0.007446
     3   Atom       -0.014299     -0.008503      0.022802
     4   Atom       -0.002412     -0.003338      0.005749
     5   Atom       -0.015059     -0.025891      0.040950
     6   Atom       -0.005783     -0.003556      0.009339
     7   Atom       -0.011296     -0.014263      0.025559
 --------------------------------------------------------
                        XY            XZ            YZ
 --------------------------------------------------------
     1   Atom       -0.000605     -0.002952      0.008229
     2   Atom       -0.003528     -0.001140      0.000584
     3   Atom        0.003811      0.011292      0.011984
     4   Atom        0.000738     -0.006948     -0.002312
     5   Atom        0.000888      0.012819     -0.004280
     6   Atom        0.000262     -0.003734     -0.010162
     7   Atom       -0.001894      0.015469     -0.001914
 --------------------------------------------------------


 ---------------------------------------------------------------------------------
              Anisotropic Spin Dipole Couplings in Principal Axis System
 ---------------------------------------------------------------------------------

       Atom             a.u.   MegaHertz   Gauss  10(-4) cm-1        Axes

              Baa    -0.0073    -1.030    -0.368    -0.344  0.6955 -0.5512  0.4610
     1 Na(23) Bbb    -0.0052    -0.740    -0.264    -0.247  0.7021  0.6577 -0.2729
              Bcc     0.0125     1.770     0.632     0.590 -0.1527  0.5135  0.8444
 
              Baa    -0.0078    -1.105    -0.394    -0.369  0.3320  0.0318  0.9427
     2 Na(23) Bbb    -0.0046    -0.657    -0.234    -0.219  0.9199  0.2104 -0.3311
              Bcc     0.0125     1.762     0.629     0.588 -0.2088  0.9771  0.0406
 
              Baa    -0.0175    -2.471    -0.882    -0.824  0.9658 -0.0805 -0.2467
     3 Na(23) Bbb    -0.0126    -1.774    -0.633    -0.592 -0.0028  0.9474 -0.3201
              Bcc     0.0301     4.245     1.515     1.416  0.2594  0.3099  0.9147
 
              Baa    -0.0065    -0.915    -0.327    -0.305  0.8406  0.1786  0.5113
     4 Na(23) Bbb    -0.0037    -0.517    -0.185    -0.173 -0.2418  0.9685  0.0594
              Bcc     0.0101     1.433     0.511     0.478 -0.4846 -0.1735  0.8573
 
              Baa    -0.0265    -3.740    -1.335    -1.248 -0.1851  0.9779  0.0973
     5 Na(23) Bbb    -0.0175    -2.470    -0.881    -0.824  0.9598  0.2012 -0.1958
              Bcc     0.0440     6.210     2.216     2.071  0.2110 -0.0571  0.9758
 
              Baa    -0.0098    -1.388    -0.495    -0.463  0.4007  0.7749  0.4888
     6 Na(23) Bbb    -0.0056    -0.797    -0.284    -0.266  0.9024 -0.4261 -0.0642
              Bcc     0.0155     2.185     0.780     0.729 -0.1586 -0.4668  0.8700
 
              Baa    -0.0174    -2.451    -0.874    -0.817  0.8846  0.3543 -0.3031
     7 Na(23) Bbb    -0.0140    -1.973    -0.704    -0.658 -0.3161  0.9336  0.1689
              Bcc     0.0313     4.423     1.578     1.475  0.3428 -0.0536  0.9379
 

 ---------------------------------------------------------------------------------

 No NMR shielding tensors so no spin-rotation constants.
 Leave Link  601 at Thu Dec  7 04:01:05 2023, MaxMem=  1879048192 cpu:               2.3 elap:               0.2
 (Enter /home/sekinelabo/g16/l701.exe)
 ... and contract with generalized density number  0.
 Compute integral first derivatives.
 Leave Link  701 at Thu Dec  7 04:01:05 2023, MaxMem=  1879048192 cpu:               1.6 elap:               0.1
 (Enter /home/sekinelabo/g16/l702.exe)
 L702 exits ... SP integral derivatives will be done elsewhere.
 Leave Link  702 at Thu Dec  7 04:01:05 2023, MaxMem=  1879048192 cpu:               0.4 elap:               0.0
 (Enter /home/sekinelabo/g16/l703.exe)
 Integral derivatives from FoFJK, PRISM(SPDF).
 Compute integral first derivatives, UseDBF=F ICtDFT=           0.
 Calling FoFJK, ICntrl=      2127 FMM=F ISym2X=0 I1Cent= 0 IOpClX= 1 NMat=1 NMatS=1 NMatT=0.
 FoFJK:  IHMeth= 1 ICntrl=    2127 DoSepK=F KAlg= 0 I1Cent=           0 FoldK=F
 IRaf=         0 NMat=       1 IRICut=       1 DoRegI=T DoRafI=F ISym2E= 0 IDoP0=0 IntGTp=1.
 FoFCou: FMM=F IPFlag=           0 FMFlag=      100000 FMFlg1=         800
         NFxFlg=           0 DoJE=F BraDBF=F KetDBF=F FulRan=T
         wScrn=  0.000000 ICntrl=      2127 IOpCl=  1 I1Cent=           0 NGrid=           0
         NMat0=    1 NMatS0=      1 NMatT0=    0 NMatD0=    1 NMtDS0=    0 NMtDT0=    0
 Symmetry not used in FoFCou.
 Leave Link  703 at Thu Dec  7 04:01:08 2023, MaxMem=  1879048192 cpu:              32.9 elap:               2.2
 (Enter /home/sekinelabo/g16/l716.exe)
 Dipole        = 2.56002051D-02 2.41824024D-03 1.67132049D-01
 ***** Axes restored to original set *****
 -------------------------------------------------------------------
 Center     Atomic                   Forces (Hartrees/Bohr)
 Number     Number              X              Y              Z
 -------------------------------------------------------------------
      1       11           0.000361894   -0.001372514   -0.002413649
      2       11           0.000393636    0.000696160    0.000695098
      3       11          -0.010709470   -0.003007870    0.002415793
      4       11          -0.001256864    0.000472574   -0.000420601
      5       11           0.010661748    0.004827976    0.001068649
      6       11          -0.000475950   -0.002970972   -0.000772253
      7       11           0.001025005    0.001354646   -0.000573037
 -------------------------------------------------------------------
 Cartesian Forces:  Max     0.010709470 RMS     0.003725760
 Z-matrix is all fixed cartesians, so copy forces.
 Force constants in Cartesian coordinates: 
                1             2             3             4             5 
      1  0.533750D-01
      2  0.110246D-01  0.568266D-01
      3 -0.148030D-01  0.242499D-02  0.402366D-01
      4 -0.324359D-02  0.582805D-04 -0.258890D-02  0.505887D-01
      5 -0.759540D-02 -0.250822D-04 -0.608320D-02 -0.103282D-01  0.492558D-01
      6 -0.198827D-02  0.223693D-04  0.324516D-04  0.737990D-02 -0.691746D-02
      7  0.229691D-02 -0.507474D-02  0.223977D-03 -0.913234D-02  0.675317D-02
      8 -0.681703D-02  0.409651D-02  0.130848D-02 -0.315539D-02 -0.131348D-01
      9  0.397480D-02  0.363623D-02  0.706383D-02  0.175938D-01  0.610781D-02
     10  0.542042D-02 -0.214766D-02 -0.140564D-02  0.201400D-02  0.775239D-02
     11 -0.876753D-03 -0.207015D-02  0.146306D-02  0.133836D-02 -0.459131D-02
     12 -0.184868D-02  0.827906D-03  0.912990D-02 -0.371785D-02  0.105707D-01
     13 -0.284046D-01 -0.351837D-02  0.814560D-02 -0.211031D-01  0.662921D-03
     14  0.100322D-01 -0.292890D-01  0.970163D-02  0.467555D-02 -0.202774D-01
     15 -0.105118D-02 -0.160947D-02 -0.362301D-01 -0.899563D-02 -0.120995D-02
     16 -0.202407D-01  0.797904D-02  0.117536D-01  0.170804D-02 -0.212275D-02
     17 -0.134139D-01 -0.185612D-01  0.332748D-02  0.180395D-03  0.829099D-03
     18  0.866277D-02 -0.113870D-01 -0.117891D-01  0.121804D-02 -0.106574D-01
     19 -0.920352D-02 -0.832110D-02 -0.132563D-02 -0.208318D-01  0.487782D-02
     20  0.764635D-02 -0.109776D-01 -0.121424D-01  0.723097D-02 -0.120562D-01
     21  0.705354D-02  0.608500D-02 -0.844356D-02 -0.108894D-01  0.818947D-02
                6             7             8             9            10 
      6  0.536325D-01
      7 -0.785570D-02  0.105174D+00
      8  0.359697D-02  0.118169D-01  0.754343D-01
      9 -0.154209D-01 -0.240696D-01 -0.779825D-02  0.695300D-01
     10 -0.262020D-02 -0.146710D-01  0.169986D-01  0.490024D-02  0.452975D-01
     11  0.953846D-03 -0.100064D-01 -0.113434D-01  0.771282D-02 -0.412978D-02
     12  0.237804D-02  0.617291D-02 -0.402851D-02 -0.981192D-02 -0.962861D-02
     13 -0.832041D-02 -0.711322D-01 -0.214191D-02 -0.120141D-01 -0.360058D-01
     14  0.472609D-02 -0.102330D-01 -0.485546D-01 -0.432340D-02 -0.131835D-01
     15 -0.242549D-01  0.130326D-01  0.141625D-02 -0.428687D-01 -0.180831D-03
     16 -0.131402D-02 -0.115709D-01 -0.163246D-01  0.143297D-03  0.979310D-02
     17  0.161566D-03  0.845694D-02 -0.146370D-01 -0.586017D-02  0.252617D-02
     18 -0.461617D-02  0.653093D-02  0.653686D-02 -0.108518D-01  0.377847D-03
     19  0.147187D-01 -0.964496D-03 -0.376576D-03  0.947149D-02 -0.118482D-01
     20 -0.254339D-02 -0.171279D-02  0.813895D-02  0.524960D-03 -0.781617D-02
     21 -0.117510D-01  0.596485D-02 -0.103180D-02  0.235952D-02  0.855720D-02
               11            12            13            14            15 
     11  0.700590D-01
     12 -0.576849D-02  0.453887D-01
     13  0.115221D-02  0.442556D-02  0.214166D+00
     14 -0.352579D-01 -0.164078D-01  0.277371D-03  0.190372D+00
     15  0.582162D-02 -0.392570D-01  0.189568D-02 -0.666905D-02  0.210211D+00
     16  0.359445D-02  0.499853D-03 -0.320398D-01  0.880954D-02  0.446030D-02
     17 -0.381115D-03 -0.149924D-02  0.188777D-02 -0.262376D-01 -0.165278D-02
     18 -0.213934D-02  0.626727D-02 -0.594580D-02  0.152516D-01 -0.279273D-01
     19  0.892796D-02  0.409681D-02 -0.254802D-01 -0.378104D-03 -0.916095D-02
     20 -0.164151D-01  0.163054D-01  0.168001D-02 -0.307557D-01  0.390338D-02
     21 -0.804351D-02 -0.140950D-01  0.118135D-01 -0.227904D-02 -0.396733D-01
               16            17            18            19            20 
     16  0.502248D-01
     17 -0.340708D-02  0.550754D-01
     18 -0.154364D-01  0.836288D-02  0.465460D-01
     19  0.212540D-02  0.376975D-02  0.459266D-02  0.662028D-01
     20  0.147138D-02  0.391246D-02 -0.596756D-02 -0.849975D-02  0.581532D-01
     21 -0.106579D-03 -0.283973D-02  0.237107D-02 -0.223931D-01 -0.803894D-04
               21 
     21  0.692322D-01
 Leave Link  716 at Thu Dec  7 04:01:08 2023, MaxMem=  1879048192 cpu:               0.4 elap:               0.0
 (Enter /home/sekinelabo/g16/l103.exe)

 GradGradGradGradGradGradGradGradGradGradGradGradGradGradGradGradGradGrad
 Berny optimization.
 Search for a local minimum.
 Step number   1 out of a maximum of    2
 All quantities printed in internal units (Hartrees-Bohrs-Radians)
 Second derivative matrix not updated -- first step.
 ITU=  0
     Eigenvalues ---    0.03723   0.04233   0.04969   0.05295   0.06626
     Eigenvalues ---    0.07118   0.07778   0.08540   0.08709   0.09842
     Eigenvalues ---    0.11872   0.13229   0.22887   0.25125   0.26443
 Angle between quadratic step and forces=  34.80 degrees.
 Linear search not attempted -- first point.
 B after Tr=    -0.000000    0.000000    0.000000
         Rot=    1.000000   -0.000000   -0.000000   -0.000000 Ang=   0.00 deg.
 Variable       Old X    -DE/DX   Delta X   Delta X   Delta X     New X
                                 (Linear)    (Quad)   (Total)
    X1       25.87526   0.00036   0.00000   0.00560   0.00560  25.88086
    Y1       27.82017  -0.00137   0.00000  -0.02193  -0.02193  27.79824
    Z1       22.46336  -0.00241   0.00000  -0.05011  -0.05011  22.41325
    X2       20.11802   0.00039   0.00000   0.00860   0.00860  20.12662
    Y2       23.20999   0.00070   0.00000   0.02644   0.02644  23.23644
    Z2       18.96397   0.00070   0.00000   0.01426   0.01426  18.97823
    X3       18.64952  -0.01071   0.00000  -0.06852  -0.06852  18.58099
    Y3       20.71820  -0.00301   0.00000  -0.01543  -0.01543  20.70278
    Z3       25.30740   0.00242   0.00000   0.02027   0.02027  25.32768
    X4       23.80450  -0.00126   0.00000  -0.00427  -0.00427  23.80023
    Y4       16.22842   0.00047   0.00000   0.00651   0.00651  16.23493
    Z4       23.11891  -0.00042   0.00000   0.00704   0.00704  23.12595
    X5       23.50328   0.01066   0.00000   0.03374   0.03374  23.53702
    Y5       22.17386   0.00483   0.00000   0.01989   0.01989  22.19375
    Z5       24.22629   0.00107   0.00000   0.00866   0.00866  24.23495
    X6       20.59613  -0.00048   0.00000   0.00040   0.00040  20.59652
    Y6       27.78181  -0.00297   0.00000  -0.04296  -0.04296  27.73884
    Z6       25.96503  -0.00077   0.00000  -0.00128  -0.00128  25.96375
    X7       26.29951   0.00103   0.00000   0.02446   0.02446  26.32397
    Y7       20.91360   0.00135   0.00000   0.02748   0.02748  20.94108
    Z7       18.80117  -0.00057   0.00000   0.00115   0.00115  18.80232
         Item               Value     Threshold  Converged?
 Maximum Force            0.010709     0.000450     NO 
 RMS     Force            0.003726     0.000300     NO 
 Maximum Displacement     0.068525     0.001800     NO 
 RMS     Displacement     0.026064     0.001200     NO 
 Predicted change in Energy=-8.372910D-04
 GradGradGradGradGradGradGradGradGradGradGradGradGradGradGradGradGradGrad

 Leave Link  103 at Thu Dec  7 04:01:08 2023, MaxMem=  1879048192 cpu:               0.2 elap:               0.0
 (Enter /home/sekinelabo/g16/l9999.exe)
 1\1\GINC-SEKINELABO-XA7R-R37\Force\UB3LYP\6-311+G(d)\Na7(2)\SEKINELABO
 \07-Dec-2023\0\\#P B3LYP/6-311+g(d) force\\DPGEN\\0,2\Na,13.6926,14.72
 18,11.8871\Na,10.646,12.2822,10.0353\Na,9.8689,10.9636,13.3921\Na,12.5
 968,8.58771,12.234\Na,12.4374,11.7339,12.82\Na,10.899,14.7015,13.7401\
 Na,13.9171,11.067,9.94915\\Version=ES64L-G16RevB.01\State=2-A\HF=-1136
 .1262448\S2=0.760877\S2-1=0.\S2A=0.750085\RMSD=6.791e-09\RMSF=3.726e-0
 3\Dipole=-0.1116623,0.0427569,-0.119573\Quadrupole=-1.947839,5.9998189
 ,-4.0519799,-1.6498222,-2.7071325,2.2759785\PG=C01 [X(Na7)]\\@


 BETTER TO HUNT IN FIELDS, FOR HEALTH UNBOUGHT
 THAN FEE THE DOCTOR FOR A NAUSEOUS DRAUGHT.
 THE WISE, FOR CURE, ON EXERCISE DEPEND;
 GOD NEVER MADE HIS WORK FOR MAN TO MEND.
     -- JOHN DRYDEN (1631-1700)
 Job cpu time:       0 days  0 hours  3 minutes 53.1 seconds.
 Elapsed time:       0 days  0 hours  0 minutes 19.6 seconds.
 File lengths (MBytes):  RWF=     32 Int=      0 D2E=      0 Chk=      4 Scr=      1
 Normal termination of Gaussian 16 at Thu Dec  7 04:01:08 2023.
