ITEM: TIMESTEP
2490
ITEM: NUMBER OF ATOMS
7
ITEM: BOX BOUNDS xy xz yz ff ff ff
0.0000000000000000e+00 2.4660686060700002e+01 0.0000000000000000e+00
0.0000000000000000e+00 2.4660686060700002e+01 0.0000000000000000e+00
0.0000000000000000e+00 2.4660686060700002e+01 0.0000000000000000e+00
ITEM: ATOMS id type x y z fx fy fz
6 1 11.1573 14.6204 10.9059 0.0804264 -0.0356234 -0.149082
2 1 11.1467 10.6376 15.4748 0.0431253 0.032695 -0.129616
7 1 10.6472 11.157 11.5193 -0.196515 -0.0431799 0.195311
3 1 12.8173 11.674 9.38566 0.172349 0.128415 -0.0211003
5 1 11.7175 13.7081 13.8889 0.104814 -0.082336 0.118184
1 1 13.7746 10.7344 12.8768 -0.0270209 0.0232026 0.0358623
4 1 15.0518 13.7808 12.261 -0.177179 -0.0231729 -0.0495596
