ITEM: TIMESTEP
5240
ITEM: NUMBER OF ATOMS
7
ITEM: BOX BOUNDS xy xz yz ff ff ff
0.0000000000000000e+00 2.4583546484300001e+01 0.0000000000000000e+00
0.0000000000000000e+00 2.4583546484300001e+01 0.0000000000000000e+00
0.0000000000000000e+00 2.4583546484300001e+01 0.0000000000000000e+00
ITEM: ATOMS id type x y z fx fy fz
6 1 12.4867 11.4587 10.4262 -0.104422 0.0170655 0.0202792
5 1 10.2244 14.7053 13.5182 0.00234522 -0.0524742 -0.0518272
2 1 13.705 9.31221 12.9321 -0.0718849 0.0636532 0.00345434
3 1 15.4328 12.0506 11.7304 0.0346253 0.0245755 0.0433016
4 1 11.5275 14.7636 10.3442 0.0212276 -0.0689484 0.0892026
1 1 9.84414 11.1385 12.8845 0.124686 0.0453888 -0.00796374
7 1 12.822 12.6135 14.2068 -0.00657698 -0.0292603 -0.0964468
