 Set GAUSS_MDEF to "14GB".
 Entering Gaussian System, Link 0=g16
 Initial command:
 /home/sekinelabo/g16/l1.exe "/home/sekinelabo/g16temp/Gau-136529.inp" -scrdir="/home/sekinelabo/g16temp/"
 Entering Link 1 = /home/sekinelabo/g16/l1.exe PID=    136531.
  
 Copyright (c) 1988-2017, Gaussian, Inc.  All Rights Reserved.
  
 This is part of the Gaussian(R) 16 program.  It is based on
 the Gaussian(R) 09 system (copyright 2009, Gaussian, Inc.),
 the Gaussian(R) 03 system (copyright 2003, Gaussian, Inc.),
 the Gaussian(R) 98 system (copyright 1998, Gaussian, Inc.),
 the Gaussian(R) 94 system (copyright 1995, Gaussian, Inc.),
 the Gaussian 92(TM) system (copyright 1992, Gaussian, Inc.),
 the Gaussian 90(TM) system (copyright 1990, Gaussian, Inc.),
 the Gaussian 88(TM) system (copyright 1988, Gaussian, Inc.),
 the Gaussian 86(TM) system (copyright 1986, Carnegie Mellon
 University), and the Gaussian 82(TM) system (copyright 1983,
 Carnegie Mellon University). Gaussian is a federally registered
 trademark of Gaussian, Inc.
  
 This software contains proprietary and confidential information,
 including trade secrets, belonging to Gaussian, Inc.
  
 This software is provided under written license and may be
 used, copied, transmitted, or stored only in accord with that
 written license.
  
 The following legend is applicable only to US Government
 contracts under FAR:
  
                    RESTRICTED RIGHTS LEGEND
  
 Use, reproduction and disclosure by the US Government is
 subject to restrictions as set forth in subparagraphs (a)
 and (c) of the Commercial Computer Software - Restricted
 Rights clause in FAR 52.227-19.
  
 Gaussian, Inc.
 340 Quinnipiac St., Bldg. 40, Wallingford CT 06492
  
  
 ---------------------------------------------------------------
 Warning -- This program may not be used in any manner that
 competes with the business of Gaussian, Inc. or will provide
 assistance to any competitor of Gaussian, Inc.  The licensee
 of this program is prohibited from giving any competitor of
 Gaussian, Inc. access to this program.  By using this program,
 the user acknowledges that Gaussian, Inc. is engaged in the
 business of creating and licensing software in the field of
 computational chemistry and represents and warrants to the
 licensee that it is not a competitor of Gaussian, Inc. and that
 it will not use this program in any manner prohibited above.
 ---------------------------------------------------------------
  

 Cite this work as:
 Gaussian 16, Revision B.01,
 M. J. Frisch, G. W. Trucks, H. B. Schlegel, G. E. Scuseria, 
 M. A. Robb, J. R. Cheeseman, G. Scalmani, V. Barone, 
 G. A. Petersson, H. Nakatsuji, X. Li, M. Caricato, A. V. Marenich, 
 J. Bloino, B. G. Janesko, R. Gomperts, B. Mennucci, H. P. Hratchian, 
 J. V. Ortiz, A. F. Izmaylov, J. L. Sonnenberg, D. Williams-Young, 
 F. Ding, F. Lipparini, F. Egidi, J. Goings, B. Peng, A. Petrone, 
 T. Henderson, D. Ranasinghe, V. G. Zakrzewski, J. Gao, N. Rega, 
 G. Zheng, W. Liang, M. Hada, M. Ehara, K. Toyota, R. Fukuda, 
 J. Hasegawa, M. Ishida, T. Nakajima, Y. Honda, O. Kitao, H. Nakai, 
 T. Vreven, K. Throssell, J. A. Montgomery, Jr., J. E. Peralta, 
 F. Ogliaro, M. J. Bearpark, J. J. Heyd, E. N. Brothers, K. N. Kudin, 
 V. N. Staroverov, T. A. Keith, R. Kobayashi, J. Normand, 
 K. Raghavachari, A. P. Rendell, J. C. Burant, S. S. Iyengar, 
 J. Tomasi, M. Cossi, J. M. Millam, M. Klene, C. Adamo, R. Cammi, 
 J. W. Ochterski, R. L. Martin, K. Morokuma, O. Farkas, 
 J. B. Foresman, and D. J. Fox, Gaussian, Inc., Wallingford CT, 2016.
 
 ******************************************
 Gaussian 16:  ES64L-G16RevB.01 20-Dec-2017
                28-Nov-2023 
 ******************************************
 %nproc=15
 Will use up to   15 processors via shared memory.
 -------------------------
 #P B3LYP/6-311+g(d) force
 -------------------------
 1/10=7,30=1,38=1/1,3;
 2/12=2,17=6,18=5,40=1/2;
 3/5=4,6=6,7=11,11=2,25=1,30=1,71=1,74=-5/1,2,3;
 4//1;
 5/5=2,38=5/2;
 6/7=2,8=2,9=2,10=2,28=1/1;
 7/29=1/1,2,3,16;
 1/10=7,30=1/3;
 99//99;
 Leave Link    1 at Tue Nov 28 22:02:43 2023, MaxMem=           0 cpu:               0.3 elap:               0.0
 (Enter /home/sekinelabo/g16/l101.exe)
 -----
 DPGEN
 -----
 Symbolic Z-matrix:
 Charge =  0 Multiplicity = 2
 Na                    14.0377   15.9991   13.5441 
 Na                    16.7744   16.9529   15.6719 
 Na                    18.2281   14.4847   16.8678 
 Na                    16.3974   14.0761   14.0377 
 Na                    13.8249   12.9704   11.6759 
 Na                    15.4245   15.5528   18.3428 
 Na                    12.7385   17.3895   17.2853 
 
 ITRead=  0  0  0  0  0  0  0
 MicOpt= -1 -1 -1 -1 -1 -1 -1
 NAtoms=      7 NQM=        7 NQMF=       0 NMMI=      0 NMMIF=      0
                NMic=       0 NMicF=      0.
                    Isotopes and Nuclear Properties:
 (Nuclear quadrupole moments (NQMom) in fm**2, nuclear magnetic moments (NMagM)
  in nuclear magnetons)

  Atom         1           2           3           4           5           6           7
 IAtWgt=          23          23          23          23          23          23          23
 AtmWgt=  22.9897697  22.9897697  22.9897697  22.9897697  22.9897697  22.9897697  22.9897697
 NucSpn=           3           3           3           3           3           3           3
 AtZEff=  -0.0000000  -0.0000000  -0.0000000  -0.0000000  -0.0000000  -0.0000000  -0.0000000
 NQMom=   10.4000000  10.4000000  10.4000000  10.4000000  10.4000000  10.4000000  10.4000000
 NMagM=    2.2175200   2.2175200   2.2175200   2.2175200   2.2175200   2.2175200   2.2175200
 AtZNuc=  11.0000000  11.0000000  11.0000000  11.0000000  11.0000000  11.0000000  11.0000000
 Leave Link  101 at Tue Nov 28 22:02:43 2023, MaxMem=  1879048192 cpu:               2.3 elap:               0.2
 (Enter /home/sekinelabo/g16/l103.exe)

 GradGradGradGradGradGradGradGradGradGradGradGradGradGradGradGradGradGrad
 Berny optimization.
 Initialization pass.
 Trust Radius=3.00D-01 FncErr=1.00D-07 GrdErr=1.00D-07 EigMax=2.50D+02 EigMin=1.00D-04
 Number of steps in this run=      2 maximum allowed number of steps=      2.
 GradGradGradGradGradGradGradGradGradGradGradGradGradGradGradGradGradGrad

 Leave Link  103 at Tue Nov 28 22:02:43 2023, MaxMem=  1879048192 cpu:               0.2 elap:               0.0
 (Enter /home/sekinelabo/g16/l202.exe)
                          Input orientation:                          
 ---------------------------------------------------------------------
 Center     Atomic      Atomic             Coordinates (Angstroms)
 Number     Number       Type             X           Y           Z
 ---------------------------------------------------------------------
      1         11           0       14.037700   15.999100   13.544100
      2         11           0       16.774400   16.952900   15.671900
      3         11           0       18.228100   14.484700   16.867800
      4         11           0       16.397400   14.076100   14.037700
      5         11           0       13.824900   12.970400   11.675900
      6         11           0       15.424500   15.552800   18.342800
      7         11           0       12.738500   17.389500   17.285300
 ---------------------------------------------------------------------
                    Distance matrix (angstroms):
                    1          2          3          4          5
     1  Na   0.000000
     2  Na   3.595385   0.000000
     3  Na   5.558763   3.104099   0.000000
     4  Na   3.083789   3.329973   3.395274   0.000000
     5  Na   3.564895   6.366151   6.974030   3.663117   0.000000
     6  Na   5.014970   3.303970   3.343148   4.654145   7.326327
     7  Na   4.197346   4.368314   6.224779   5.908729   7.223163
                    6          7
     6  Na   0.000000
     7  Na   3.421457   0.000000
 Stoichiometry    Na7(2)
 Framework group  C1[X(Na7)]
 Deg. of freedom    15
 Full point group                 C1      NOp   1
 Largest Abelian subgroup         C1      NOp   1
 Largest concise Abelian subgroup C1      NOp   1
                         Standard orientation:                         
 ---------------------------------------------------------------------
 Center     Atomic      Atomic             Coordinates (Angstroms)
 Number     Number       Type             X           Y           Z
 ---------------------------------------------------------------------
      1         11           0        1.618761    1.425317    0.857655
      2         11           0       -1.259036   -0.567389    1.678750
      3         11           0       -1.631203   -2.934854   -0.294074
      4         11           0        1.446288   -1.529528   -0.007734
      5         11           0        4.557173    0.244115   -0.779103
      6         11           0       -2.755581    0.082080   -1.194360
      7         11           0       -1.976403    3.280259   -0.261136
 ---------------------------------------------------------------------
 Rotational constants (GHZ):           0.7358323           0.4680438           0.3363438
 Leave Link  202 at Tue Nov 28 22:02:43 2023, MaxMem=  1879048192 cpu:               0.0 elap:               0.0
 (Enter /home/sekinelabo/g16/l301.exe)
 Standard basis: 6-311+G(d) (5D, 7F)
 Ernie: Thresh=  0.10000D-02 Tol=  0.10000D-05 Strict=F.
 There are   217 symmetry adapted cartesian basis functions of A   symmetry.
 There are   210 symmetry adapted basis functions of A   symmetry.
   210 basis functions,   350 primitive gaussians,   217 cartesian basis functions
    39 alpha electrons       38 beta electrons
       nuclear repulsion energy       315.8995618360 Hartrees.
 IExCor=  402 DFT=T Ex+Corr=B3LYP ExCW=0 ScaHFX=  0.200000
 ScaDFX=  0.800000  0.720000  1.000000  0.810000 ScalE2=  1.000000  1.000000
 IRadAn=      5 IRanWt=     -1 IRanGd=            0 ICorTp=0 IEmpDi=  4
 NAtoms=    7 NActive=    7 NUniq=    7 SFac= 1.00D+00 NAtFMM=   60 NAOKFM=F Big=F
 Integral buffers will be    131072 words long.
 Raffenetti 2 integral format.
 Two-electron integral symmetry is turned on.
 Leave Link  301 at Tue Nov 28 22:02:43 2023, MaxMem=  1879048192 cpu:               0.5 elap:               0.0
 (Enter /home/sekinelabo/g16/l302.exe)
 NPDir=0 NMtPBC=     1 NCelOv=     1 NCel=       1 NClECP=     1 NCelD=      1
         NCelK=      1 NCelE2=     1 NClLst=     1 CellRange=     0.0.
 One-electron integrals computed using PRISM.
 One-electron integral symmetry used in STVInt
 NBasis=   210 RedAO= T EigKep=  7.59D-06  NBF=   210
 NBsUse=   210 1.00D-06 EigRej= -1.00D+00 NBFU=   210
 Precomputing XC quadrature grid using
 IXCGrd= 4 IRadAn=           5 IRanWt=          -1 IRanGd=           0 AccXCQ= 0.00D+00.
 Generated NRdTot=       0 NPtTot=           0 NUsed=           0 NTot=          32
 NSgBfM=   208   208   208   208   208 MxSgAt=     7 MxSgA2=     7.
 Leave Link  302 at Tue Nov 28 22:02:44 2023, MaxMem=  1879048192 cpu:               2.0 elap:               0.1
 (Enter /home/sekinelabo/g16/l303.exe)
 DipDrv:  MaxL=1.
 Leave Link  303 at Tue Nov 28 22:02:44 2023, MaxMem=  1879048192 cpu:               0.5 elap:               0.0
 (Enter /home/sekinelabo/g16/l401.exe)
 ExpMin= 7.60D-03 ExpMax= 3.62D+04 ExpMxC= 1.21D+03 IAcc=3 IRadAn=         5 AccDes= 0.00D+00
 Harris functional with IExCor=  402 and IRadAn=       5 diagonalized for initial guess.
 HarFok:  IExCor=  402 AccDes= 0.00D+00 IRadAn=         5 IDoV= 1 UseB2=F ITyADJ=14
 ICtDFT=  3500011 ScaDFX=  1.000000  1.000000  1.000000  1.000000
 FoFCou: FMM=F IPFlag=           0 FMFlag=      100000 FMFlg1=           0
         NFxFlg=           0 DoJE=T BraDBF=F KetDBF=T FulRan=T
         wScrn=  0.000000 ICntrl=       500 IOpCl=  0 I1Cent=   200000004 NGrid=           0
         NMat0=    1 NMatS0=      1 NMatT0=    0 NMatD0=    1 NMtDS0=    0 NMtDT0=    0
 Petite list used in FoFCou.
 Harris En= -1135.89425966157    
 JPrj=0 DoOrth=F DoCkMO=F.
 Initial guess <Sx>= 0.0000 <Sy>= 0.0000 <Sz>= 0.5000 <S**2>= 0.7500 S= 0.5000
 Leave Link  401 at Tue Nov 28 22:02:44 2023, MaxMem=  1879048192 cpu:               4.4 elap:               0.3
 (Enter /home/sekinelabo/g16/l502.exe)
 Keep R1 and R2 ints in memory in canonical form, NReq=506573307.
 FoFCou: FMM=F IPFlag=           0 FMFlag=           0 FMFlg1=           0
         NFxFlg=           0 DoJE=F BraDBF=F KetDBF=F FulRan=T
         wScrn=  0.000000 ICntrl=       600 IOpCl=  0 I1Cent=           0 NGrid=           0
         NMat0=    1 NMatS0=  22155 NMatT0=    0 NMatD0=    1 NMtDS0=    0 NMtDT0=    0
 Symmetry not used in FoFCou.
 Two-electron integral symmetry not used.
 UHF open shell SCF:
 Using DIIS extrapolation, IDIIS=  1040.
 NGot=  1879048192 LenX=  1388082593 LenY=  1388035063
 Requested convergence on RMS density matrix=1.00D-08 within 128 cycles.
 Requested convergence on MAX density matrix=1.00D-06.
 Requested convergence on             energy=1.00D-06.
 No special actions if energy rises.

 Cycle   1  Pass 1  IDiag  1:
 E= -1136.09358407526    
 DIIS: error= 8.98D-03 at cycle   1 NSaved=   1.
 NSaved= 1 IEnMin= 1 EnMin= -1136.09358407526     IErMin= 1 ErrMin= 8.98D-03
 ErrMax= 8.98D-03  0.00D+00 EMaxC= 1.00D-01 BMatC= 1.88D-01 BMatP= 1.88D-01
 IDIUse=3 WtCom= 9.10D-01 WtEn= 8.98D-02
 Coeff-Com:  0.100D+01
 Coeff-En:   0.100D+01
 Coeff:      0.100D+01
 Gap=     0.042 Goal=   None    Shift=    0.000
 Gap=     0.045 Goal=   None    Shift=    0.000
 GapD=    0.042 DampG=0.250 DampE=1.000 DampFc=0.2500 IDamp=-1.
 Damping current iteration by 2.50D-01
 RMSDP=1.25D-02 MaxDP=1.57D+00              OVMax= 2.36D-01

 Cycle   2  Pass 1  IDiag  1:
 E= -1136.10444286836     Delta-E=       -0.010858793099 Rises=F Damp=T
 DIIS: error= 6.28D-03 at cycle   2 NSaved=   2.
 NSaved= 2 IEnMin= 2 EnMin= -1136.10444286836     IErMin= 2 ErrMin= 6.28D-03
 ErrMax= 6.28D-03  0.00D+00 EMaxC= 1.00D-01 BMatC= 7.18D-02 BMatP= 1.88D-01
 IDIUse=3 WtCom= 9.37D-01 WtEn= 6.28D-02
 Coeff-Com: -0.127D+01 0.227D+01
 Coeff-En:   0.000D+00 0.100D+01
 Coeff:     -0.119D+01 0.219D+01
 Gap=     0.047 Goal=   None    Shift=    0.000
 Gap=     0.053 Goal=   None    Shift=    0.000
 RMSDP=6.93D-03 MaxDP=8.26D-01 DE=-1.09D-02 OVMax= 2.33D-01

 Cycle   3  Pass 1  IDiag  1:
 E= -1136.12094483999     Delta-E=       -0.016501971627 Rises=F Damp=F
 DIIS: error= 3.39D-03 at cycle   3 NSaved=   3.
 NSaved= 3 IEnMin= 3 EnMin= -1136.12094483999     IErMin= 3 ErrMin= 3.39D-03
 ErrMax= 3.39D-03  0.00D+00 EMaxC= 1.00D-01 BMatC= 4.20D-03 BMatP= 7.18D-02
 IDIUse=3 WtCom= 9.66D-01 WtEn= 3.39D-02
 Coeff-Com: -0.315D+00 0.539D+00 0.776D+00
 Coeff-En:   0.000D+00 0.000D+00 0.100D+01
 Coeff:     -0.305D+00 0.521D+00 0.783D+00
 Gap=     0.046 Goal=   None    Shift=    0.000
 Gap=     0.051 Goal=   None    Shift=    0.000
 RMSDP=3.11D-03 MaxDP=2.52D-01 DE=-1.65D-02 OVMax= 1.40D-01

 Cycle   4  Pass 1  IDiag  1:
 E= -1136.12040322043     Delta-E=        0.000541619560 Rises=F Damp=F
 DIIS: error= 3.29D-03 at cycle   4 NSaved=   4.
 NSaved= 4 IEnMin= 3 EnMin= -1136.12094483999     IErMin= 4 ErrMin= 3.29D-03
 ErrMax= 3.29D-03  0.00D+00 EMaxC= 1.00D-01 BMatC= 4.75D-03 BMatP= 4.20D-03
 IDIUse=3 WtCom= 1.49D-01 WtEn= 8.51D-01
 Coeff-Com: -0.240D-01 0.323D-01 0.514D+00 0.477D+00
 Coeff-En:   0.000D+00 0.000D+00 0.522D+00 0.478D+00
 Coeff:     -0.356D-02 0.480D-02 0.521D+00 0.478D+00
 Gap=     0.045 Goal=   None    Shift=    0.000
 Gap=     0.051 Goal=   None    Shift=    0.000
 RMSDP=1.72D-03 MaxDP=1.52D-01 DE= 5.42D-04 OVMax= 7.99D-02

 Cycle   5  Pass 1  IDiag  1:
 E= -1136.12569113060     Delta-E=       -0.005287910169 Rises=F Damp=F
 DIIS: error= 3.66D-04 at cycle   5 NSaved=   5.
 NSaved= 5 IEnMin= 5 EnMin= -1136.12569113060     IErMin= 5 ErrMin= 3.66D-04
 ErrMax= 3.66D-04  0.00D+00 EMaxC= 1.00D-01 BMatC= 7.23D-05 BMatP= 4.20D-03
 IDIUse=3 WtCom= 9.96D-01 WtEn= 3.66D-03
 Coeff-Com: -0.117D-02 0.136D-03 0.245D+00 0.225D+00 0.531D+00
 Coeff-En:   0.000D+00 0.000D+00 0.000D+00 0.000D+00 0.100D+01
 Coeff:     -0.117D-02 0.136D-03 0.245D+00 0.224D+00 0.533D+00
 Gap=     0.045 Goal=   None    Shift=    0.000
 Gap=     0.050 Goal=   None    Shift=    0.000
 RMSDP=3.16D-04 MaxDP=2.16D-02 DE=-5.29D-03 OVMax= 1.33D-02

 Cycle   6  Pass 1  IDiag  1:
 E= -1136.12576715314     Delta-E=       -0.000076022548 Rises=F Damp=F
 DIIS: error= 1.88D-04 at cycle   6 NSaved=   6.
 NSaved= 6 IEnMin= 6 EnMin= -1136.12576715314     IErMin= 6 ErrMin= 1.88D-04
 ErrMax= 1.88D-04  0.00D+00 EMaxC= 1.00D-01 BMatC= 1.43D-05 BMatP= 7.23D-05
 IDIUse=3 WtCom= 9.98D-01 WtEn= 1.88D-03
 Coeff-Com:  0.526D-02-0.763D-02-0.489D-01-0.538D-01 0.274D+00 0.831D+00
 Coeff-En:   0.000D+00 0.000D+00 0.000D+00 0.000D+00 0.104D+00 0.896D+00
 Coeff:      0.525D-02-0.762D-02-0.488D-01-0.537D-01 0.274D+00 0.831D+00
 Gap=     0.045 Goal=   None    Shift=    0.000
 Gap=     0.050 Goal=   None    Shift=    0.000
 RMSDP=2.11D-04 MaxDP=1.76D-02 DE=-7.60D-05 OVMax= 7.08D-03

 Cycle   7  Pass 1  IDiag  1:
 E= -1136.12579345338     Delta-E=       -0.000026300241 Rises=F Damp=F
 DIIS: error= 5.98D-05 at cycle   7 NSaved=   7.
 NSaved= 7 IEnMin= 7 EnMin= -1136.12579345338     IErMin= 7 ErrMin= 5.98D-05
 ErrMax= 5.98D-05  0.00D+00 EMaxC= 1.00D-01 BMatC= 1.54D-06 BMatP= 1.43D-05
 IDIUse=1 WtCom= 1.00D+00 WtEn= 0.00D+00
 Coeff-Com:  0.234D-02-0.326D-02-0.458D-01-0.442D-01 0.487D-01 0.309D+00
 Coeff-Com:  0.733D+00
 Coeff:      0.234D-02-0.326D-02-0.458D-01-0.442D-01 0.487D-01 0.309D+00
 Coeff:      0.733D+00
 Gap=     0.045 Goal=   None    Shift=    0.000
 Gap=     0.051 Goal=   None    Shift=    0.000
 RMSDP=8.69D-05 MaxDP=5.12D-03 DE=-2.63D-05 OVMax= 2.46D-03

 Cycle   8  Pass 1  IDiag  1:
 E= -1136.12579633671     Delta-E=       -0.000002883326 Rises=F Damp=F
 DIIS: error= 2.65D-05 at cycle   8 NSaved=   8.
 NSaved= 8 IEnMin= 8 EnMin= -1136.12579633671     IErMin= 8 ErrMin= 2.65D-05
 ErrMax= 2.65D-05  0.00D+00 EMaxC= 1.00D-01 BMatC= 2.77D-07 BMatP= 1.54D-06
 IDIUse=1 WtCom= 1.00D+00 WtEn= 0.00D+00
 Coeff-Com: -0.172D-03 0.309D-03-0.477D-02-0.215D-02-0.495D-01-0.103D+00
 Coeff-Com:  0.219D+00 0.941D+00
 Coeff:     -0.172D-03 0.309D-03-0.477D-02-0.215D-02-0.495D-01-0.103D+00
 Coeff:      0.219D+00 0.941D+00
 Gap=     0.045 Goal=   None    Shift=    0.000
 Gap=     0.051 Goal=   None    Shift=    0.000
 RMSDP=4.93D-05 MaxDP=3.24D-03 DE=-2.88D-06 OVMax= 1.80D-03

 Cycle   9  Pass 1  IDiag  1:
 E= -1136.12579722680     Delta-E=       -0.000000890092 Rises=F Damp=F
 DIIS: error= 1.02D-05 at cycle   9 NSaved=   9.
 NSaved= 9 IEnMin= 9 EnMin= -1136.12579722680     IErMin= 9 ErrMin= 1.02D-05
 ErrMax= 1.02D-05  0.00D+00 EMaxC= 1.00D-01 BMatC= 3.84D-08 BMatP= 2.77D-07
 IDIUse=1 WtCom= 1.00D+00 WtEn= 0.00D+00
 Coeff-Com: -0.117D-03 0.194D-03 0.284D-02 0.310D-02-0.184D-01-0.562D-01
 Coeff-Com: -0.389D-01 0.241D+00 0.867D+00
 Coeff:     -0.117D-03 0.194D-03 0.284D-02 0.310D-02-0.184D-01-0.562D-01
 Coeff:     -0.389D-01 0.241D+00 0.867D+00
 Gap=     0.045 Goal=   None    Shift=    0.000
 Gap=     0.051 Goal=   None    Shift=    0.000
 RMSDP=2.13D-05 MaxDP=1.37D-03 DE=-8.90D-07 OVMax= 7.58D-04

 Cycle  10  Pass 1  IDiag  1:
 E= -1136.12579736443     Delta-E=       -0.000000137623 Rises=F Damp=F
 DIIS: error= 6.16D-06 at cycle  10 NSaved=  10.
 NSaved=10 IEnMin=10 EnMin= -1136.12579736443     IErMin=10 ErrMin= 6.16D-06
 ErrMax= 6.16D-06  0.00D+00 EMaxC= 1.00D-01 BMatC= 1.56D-08 BMatP= 3.84D-08
 IDIUse=1 WtCom= 1.00D+00 WtEn= 0.00D+00
 Coeff-Com: -0.821D-04 0.121D-03 0.236D-02 0.194D-02-0.155D-02-0.962D-02
 Coeff-Com: -0.478D-01-0.447D-01 0.415D+00 0.684D+00
 Coeff:     -0.821D-04 0.121D-03 0.236D-02 0.194D-02-0.155D-02-0.962D-02
 Coeff:     -0.478D-01-0.447D-01 0.415D+00 0.684D+00
 Gap=     0.045 Goal=   None    Shift=    0.000
 Gap=     0.051 Goal=   None    Shift=    0.000
 RMSDP=8.92D-06 MaxDP=5.49D-04 DE=-1.38D-07 OVMax= 4.69D-04

 Cycle  11  Pass 1  IDiag  1:
 E= -1136.12579740671     Delta-E=       -0.000000042283 Rises=F Damp=F
 DIIS: error= 4.57D-06 at cycle  11 NSaved=  11.
 NSaved=11 IEnMin=11 EnMin= -1136.12579740671     IErMin=11 ErrMin= 4.57D-06
 ErrMax= 4.57D-06  0.00D+00 EMaxC= 1.00D-01 BMatC= 5.30D-09 BMatP= 1.56D-08
 IDIUse=1 WtCom= 1.00D+00 WtEn= 0.00D+00
 Coeff-Com: -0.552D-04 0.675D-04 0.579D-03 0.209D-03 0.615D-02 0.159D-01
 Coeff-Com: -0.160D-01-0.126D+00-0.726D-01 0.402D+00 0.790D+00
 Coeff:     -0.552D-04 0.675D-04 0.579D-03 0.209D-03 0.615D-02 0.159D-01
 Coeff:     -0.160D-01-0.126D+00-0.726D-01 0.402D+00 0.790D+00
 Gap=     0.045 Goal=   None    Shift=    0.000
 Gap=     0.051 Goal=   None    Shift=    0.000
 RMSDP=8.42D-06 MaxDP=7.35D-04 DE=-4.23D-08 OVMax= 3.35D-04

 Cycle  12  Pass 1  IDiag  1:
 E= -1136.12579742717     Delta-E=       -0.000000020460 Rises=F Damp=F
 DIIS: error= 1.13D-06 at cycle  12 NSaved=  12.
 NSaved=12 IEnMin=12 EnMin= -1136.12579742717     IErMin=12 ErrMin= 1.13D-06
 ErrMax= 1.13D-06  0.00D+00 EMaxC= 1.00D-01 BMatC= 5.93D-10 BMatP= 5.30D-09
 IDIUse=1 WtCom= 1.00D+00 WtEn= 0.00D+00
 Coeff-Com:  0.809D-05-0.160D-04-0.330D-03-0.284D-03 0.201D-02 0.586D-02
 Coeff-Com:  0.401D-02-0.156D-01-0.115D+00-0.111D+00 0.135D+00 0.109D+01
 Coeff:      0.809D-05-0.160D-04-0.330D-03-0.284D-03 0.201D-02 0.586D-02
 Coeff:      0.401D-02-0.156D-01-0.115D+00-0.111D+00 0.135D+00 0.109D+01
 Gap=     0.045 Goal=   None    Shift=    0.000
 Gap=     0.051 Goal=   None    Shift=    0.000
 RMSDP=4.86D-06 MaxDP=3.17D-04 DE=-2.05D-08 OVMax= 2.22D-04

 Cycle  13  Pass 1  IDiag  1:
 E= -1136.12579743161     Delta-E=       -0.000000004442 Rises=F Damp=F
 DIIS: error= 3.35D-07 at cycle  13 NSaved=  13.
 NSaved=13 IEnMin=13 EnMin= -1136.12579743161     IErMin=13 ErrMin= 3.35D-07
 ErrMax= 3.35D-07  0.00D+00 EMaxC= 1.00D-01 BMatC= 6.25D-11 BMatP= 5.93D-10
 IDIUse=1 WtCom= 1.00D+00 WtEn= 0.00D+00
 Coeff-Com:  0.807D-05-0.106D-04-0.956D-04-0.221D-04-0.585D-03-0.146D-02
 Coeff-Com:  0.191D-02 0.133D-01 0.101D-02-0.640D-01-0.753D-01 0.818D-01
 Coeff-Com:  0.104D+01
 Coeff:      0.807D-05-0.106D-04-0.956D-04-0.221D-04-0.585D-03-0.146D-02
 Coeff:      0.191D-02 0.133D-01 0.101D-02-0.640D-01-0.753D-01 0.818D-01
 Coeff:      0.104D+01
 Gap=     0.045 Goal=   None    Shift=    0.000
 Gap=     0.051 Goal=   None    Shift=    0.000
 RMSDP=1.38D-06 MaxDP=9.84D-05 DE=-4.44D-09 OVMax= 5.74D-05

 Cycle  14  Pass 1  IDiag  1:
 E= -1136.12579743202     Delta-E=       -0.000000000408 Rises=F Damp=F
 DIIS: error= 2.10D-07 at cycle  14 NSaved=  14.
 NSaved=14 IEnMin=14 EnMin= -1136.12579743202     IErMin=14 ErrMin= 2.10D-07
 ErrMax= 2.10D-07  0.00D+00 EMaxC= 1.00D-01 BMatC= 1.83D-11 BMatP= 6.25D-11
 IDIUse=1 WtCom= 1.00D+00 WtEn= 0.00D+00
 Coeff-Com:  0.377D-05-0.442D-05-0.207D-05 0.152D-04-0.358D-03-0.109D-02
 Coeff-Com: -0.299D-03 0.530D-02 0.179D-01 0.151D-02-0.390D-01-0.151D+00
 Coeff-Com:  0.314D+00 0.853D+00
 Coeff:      0.377D-05-0.442D-05-0.207D-05 0.152D-04-0.358D-03-0.109D-02
 Coeff:     -0.299D-03 0.530D-02 0.179D-01 0.151D-02-0.390D-01-0.151D+00
 Coeff:      0.314D+00 0.853D+00
 Gap=     0.045 Goal=   None    Shift=    0.000
 Gap=     0.051 Goal=   None    Shift=    0.000
 RMSDP=6.30D-07 MaxDP=6.80D-05 DE=-4.08D-10 OVMax= 1.54D-05

 Cycle  15  Pass 1  IDiag  1:
 E= -1136.12579743210     Delta-E=       -0.000000000082 Rises=F Damp=F
 DIIS: error= 1.05D-07 at cycle  15 NSaved=  15.
 NSaved=15 IEnMin=15 EnMin= -1136.12579743210     IErMin=15 ErrMin= 1.05D-07
 ErrMax= 1.05D-07  0.00D+00 EMaxC= 1.00D-01 BMatC= 3.41D-12 BMatP= 1.83D-11
 IDIUse=1 WtCom= 1.00D+00 WtEn= 0.00D+00
 Coeff-Com: -0.397D-05 0.536D-05 0.324D-04 0.104D-04 0.140D-03 0.376D-03
 Coeff-Com: -0.330D-03-0.365D-02-0.895D-03 0.158D-01 0.211D-01-0.133D-01
 Coeff-Com: -0.304D+00-0.762D-01 0.136D+01
 Coeff:     -0.397D-05 0.536D-05 0.324D-04 0.104D-04 0.140D-03 0.376D-03
 Coeff:     -0.330D-03-0.365D-02-0.895D-03 0.158D-01 0.211D-01-0.133D-01
 Coeff:     -0.304D+00-0.762D-01 0.136D+01
 Gap=     0.045 Goal=   None    Shift=    0.000
 Gap=     0.051 Goal=   None    Shift=    0.000
 RMSDP=5.13D-07 MaxDP=4.85D-05 DE=-8.19D-11 OVMax= 1.17D-05

 Cycle  16  Pass 1  IDiag  1:
 E= -1136.12579743212     Delta-E=       -0.000000000023 Rises=F Damp=F
 DIIS: error= 4.44D-08 at cycle  16 NSaved=  16.
 NSaved=16 IEnMin=16 EnMin= -1136.12579743212     IErMin=16 ErrMin= 4.44D-08
 ErrMax= 4.44D-08  0.00D+00 EMaxC= 1.00D-01 BMatC= 4.71D-13 BMatP= 3.41D-12
 IDIUse=1 WtCom= 1.00D+00 WtEn= 0.00D+00
 Coeff-Com: -0.421D-06 0.470D-06-0.124D-05-0.156D-05 0.526D-04 0.156D-03
 Coeff-Com:  0.814D-04-0.504D-03-0.328D-02-0.216D-02 0.461D-02 0.303D-01
 Coeff-Com: -0.317D-01-0.971D-01-0.139D+00 0.124D+01
 Coeff:     -0.421D-06 0.470D-06-0.124D-05-0.156D-05 0.526D-04 0.156D-03
 Coeff:      0.814D-04-0.504D-03-0.328D-02-0.216D-02 0.461D-02 0.303D-01
 Coeff:     -0.317D-01-0.971D-01-0.139D+00 0.124D+01
 Gap=     0.045 Goal=   None    Shift=    0.000
 Gap=     0.051 Goal=   None    Shift=    0.000
 RMSDP=1.68D-07 MaxDP=1.17D-05 DE=-2.27D-11 OVMax= 5.40D-06

 Cycle  17  Pass 1  IDiag  1:
 E= -1136.12579743214     Delta-E=       -0.000000000013 Rises=F Damp=F
 DIIS: error= 2.06D-08 at cycle  17 NSaved=  17.
 NSaved=17 IEnMin=17 EnMin= -1136.12579743214     IErMin=17 ErrMin= 2.06D-08
 ErrMax= 2.06D-08  0.00D+00 EMaxC= 1.00D-01 BMatC= 1.20D-13 BMatP= 4.71D-13
 IDIUse=1 WtCom= 1.00D+00 WtEn= 0.00D+00
 Coeff-Com:  0.788D-06-0.107D-05-0.676D-05-0.305D-05-0.177D-04-0.357D-04
 Coeff-Com:  0.666D-04 0.543D-03-0.222D-03-0.262D-02-0.313D-02 0.427D-02
 Coeff-Com:  0.517D-01-0.702D-03-0.254D+00 0.157D+00 0.105D+01
 Coeff:      0.788D-06-0.107D-05-0.676D-05-0.305D-05-0.177D-04-0.357D-04
 Coeff:      0.666D-04 0.543D-03-0.222D-03-0.262D-02-0.313D-02 0.427D-02
 Coeff:      0.517D-01-0.702D-03-0.254D+00 0.157D+00 0.105D+01
 Gap=     0.045 Goal=   None    Shift=    0.000
 Gap=     0.051 Goal=   None    Shift=    0.000
 RMSDP=5.81D-08 MaxDP=4.13D-06 DE=-1.27D-11 OVMax= 2.56D-06

 Cycle  18  Pass 1  IDiag  1:
 E= -1136.12579743215     Delta-E=       -0.000000000015 Rises=F Damp=F
 DIIS: error= 1.44D-08 at cycle  18 NSaved=  18.
 NSaved=18 IEnMin=18 EnMin= -1136.12579743215     IErMin=18 ErrMin= 1.44D-08
 ErrMax= 1.44D-08  0.00D+00 EMaxC= 1.00D-01 BMatC= 3.47D-14 BMatP= 1.20D-13
 IDIUse=1 WtCom= 1.00D+00 WtEn= 0.00D+00
 Coeff-Com:  0.286D-06-0.353D-06-0.128D-06 0.308D-07-0.208D-04-0.632D-04
 Coeff-Com: -0.213D-04 0.261D-03 0.113D-02 0.161D-03-0.198D-02-0.832D-02
 Coeff-Com:  0.130D-01 0.253D-01 0.339D-01-0.372D+00 0.427D-01 0.127D+01
 Coeff:      0.286D-06-0.353D-06-0.128D-06 0.308D-07-0.208D-04-0.632D-04
 Coeff:     -0.213D-04 0.261D-03 0.113D-02 0.161D-03-0.198D-02-0.832D-02
 Coeff:      0.130D-01 0.253D-01 0.339D-01-0.372D+00 0.427D-01 0.127D+01
 Gap=     0.045 Goal=   None    Shift=    0.000
 Gap=     0.051 Goal=   None    Shift=    0.000
 RMSDP=3.29D-08 MaxDP=1.61D-06 DE=-1.50D-11 OVMax= 1.96D-06

 Cycle  19  Pass 1  IDiag  1:
 E= -1136.12579743213     Delta-E=        0.000000000018 Rises=F Damp=F
 DIIS: error= 6.15D-09 at cycle  19 NSaved=  19.
 NSaved=19 IEnMin=18 EnMin= -1136.12579743215     IErMin=19 ErrMin= 6.15D-09
 ErrMax= 6.15D-09  0.00D+00 EMaxC= 1.00D-01 BMatC= 6.73D-15 BMatP= 3.47D-14
 IDIUse=1 WtCom= 1.00D+00 WtEn= 0.00D+00
 Large coefficients: NSaved= 19 BigCof=    0.00 CofMax=   10.00 Det=-7.46D-15
 Inversion failed.  Reducing to 18 matrices.
 Large coefficients: NSaved= 18 BigCof=    0.00 CofMax=   10.00 Det=-7.79D-15
 Inversion failed.  Reducing to 17 matrices.
 Large coefficients: NSaved= 17 BigCof=    0.00 CofMax=   10.00 Det=-8.07D-15
 Inversion failed.  Reducing to 16 matrices.
 Large coefficients: NSaved= 16 BigCof=    0.00 CofMax=   10.00 Det=-8.24D-15
 Inversion failed.  Reducing to 15 matrices.
 Coeff-Com:  0.111D-06-0.111D-05 0.528D-05-0.144D-04 0.208D-04 0.229D-03
 Coeff-Com:  0.181D-03-0.694D-03-0.468D-02 0.454D-02 0.268D-01-0.325D-01
 Coeff-Com: -0.197D+00 0.501D-01 0.115D+01
 Coeff:      0.111D-06-0.111D-05 0.528D-05-0.144D-04 0.208D-04 0.229D-03
 Coeff:      0.181D-03-0.694D-03-0.468D-02 0.454D-02 0.268D-01-0.325D-01
 Coeff:     -0.197D+00 0.501D-01 0.115D+01
 Gap=     0.045 Goal=   None    Shift=    0.000
 Gap=     0.051 Goal=   None    Shift=    0.000
 RMSDP=1.23D-08 MaxDP=6.94D-07 DE= 1.77D-11 OVMax= 8.56D-07

 Cycle  20  Pass 1  IDiag  1:
 E= -1136.12579743214     Delta-E=       -0.000000000009 Rises=F Damp=F
 DIIS: error= 2.96D-09 at cycle  20 NSaved=  16.
 NSaved=16 IEnMin=14 EnMin= -1136.12579743215     IErMin=16 ErrMin= 2.96D-09
 ErrMax= 2.96D-09  0.00D+00 EMaxC= 1.00D-01 BMatC= 1.34D-15 BMatP= 6.73D-15
 IDIUse=1 WtCom= 1.00D+00 WtEn= 0.00D+00
 Large coefficients: NSaved= 16 BigCof=    0.00 CofMax=   10.00 Det=-2.17D-15
 Inversion failed.  Reducing to 15 matrices.
 Coeff-Com:  0.441D-05 0.426D-05-0.217D-04-0.828D-04 0.581D-04 0.140D-03
 Coeff-Com:  0.606D-03-0.271D-02-0.389D-02 0.281D-02 0.492D-01-0.422D-02
 Coeff-Com: -0.239D+00-0.162D-01 0.121D+01
 Coeff:      0.441D-05 0.426D-05-0.217D-04-0.828D-04 0.581D-04 0.140D-03
 Coeff:      0.606D-03-0.271D-02-0.389D-02 0.281D-02 0.492D-01-0.422D-02
 Coeff:     -0.239D+00-0.162D-01 0.121D+01
 Gap=     0.045 Goal=   None    Shift=    0.000
 Gap=     0.051 Goal=   None    Shift=    0.000
 RMSDP=6.50D-09 MaxDP=4.78D-07 DE=-9.09D-12 OVMax= 4.13D-07

 SCF Done:  E(UB3LYP) =  -1136.12579743     A.U. after   20 cycles
            NFock= 20  Conv=0.65D-08     -V/T= 2.0028
 <Sx>= 0.0000 <Sy>= 0.0000 <Sz>= 0.5000 <S**2>= 0.7730 S= 0.5114
 <L.S>= 0.000000000000E+00
 KE= 1.132927262932D+03 PE=-3.361138886289D+03 EE= 7.761862640888D+02
 Annihilation of the first spin contaminant:
 S**2 before annihilation     0.7730,   after     0.7503
 Leave Link  502 at Tue Nov 28 22:03:00 2023, MaxMem=  1879048192 cpu:             183.4 elap:              16.5
 (Enter /home/sekinelabo/g16/l601.exe)
 Copying SCF densities to generalized density rwf, IOpCl= 1 IROHF=0.

 **********************************************************************

            Population analysis using the SCF Density.

 **********************************************************************

 Orbital symmetries:
 Alpha Orbitals:
       Occupied  (A) (A) (A) (A) (A) (A) (A) (A) (A) (A) (A) (A)
                 (A) (A) (A) (A) (A) (A) (A) (A) (A) (A) (A) (A)
                 (A) (A) (A) (A) (A) (A) (A) (A) (A) (A) (A) (A)
                 (A) (A) (A)
       Virtual   (A) (A) (A) (A) (A) (A) (A) (A) (A) (A) (A) (A)
                 (A) (A) (A) (A) (A) (A) (A) (A) (A) (A) (A) (A)
                 (A) (A) (A) (A) (A) (A) (A) (A) (A) (A) (A) (A)
                 (A) (A) (A) (A) (A) (A) (A) (A) (A) (A) (A) (A)
                 (A) (A) (A) (A) (A) (A) (A) (A) (A) (A) (A) (A)
                 (A) (A) (A) (A) (A) (A) (A) (A) (A) (A) (A) (A)
                 (A) (A) (A) (A) (A) (A) (A) (A) (A) (A) (A) (A)
                 (A) (A) (A) (A) (A) (A) (A) (A) (A) (A) (A) (A)
                 (A) (A) (A) (A) (A) (A) (A) (A) (A) (A) (A) (A)
                 (A) (A) (A) (A) (A) (A) (A) (A) (A) (A) (A) (A)
                 (A) (A) (A) (A) (A) (A) (A) (A) (A) (A) (A) (A)
                 (A) (A) (A) (A) (A) (A) (A) (A) (A) (A) (A) (A)
                 (A) (A) (A) (A) (A) (A) (A) (A) (A) (A) (A) (A)
                 (A) (A) (A) (A) (A) (A) (A) (A) (A) (A) (A) (A)
                 (A) (A) (A)
 Beta  Orbitals:
       Occupied  (A) (A) (A) (A) (A) (A) (A) (A) (A) (A) (A) (A)
                 (A) (A) (A) (A) (A) (A) (A) (A) (A) (A) (A) (A)
                 (A) (A) (A) (A) (A) (A) (A) (A) (A) (A) (A) (A)
                 (A) (A)
       Virtual   (A) (A) (A) (A) (A) (A) (A) (A) (A) (A) (A) (A)
                 (A) (A) (A) (A) (A) (A) (A) (A) (A) (A) (A) (A)
                 (A) (A) (A) (A) (A) (A) (A) (A) (A) (A) (A) (A)
                 (A) (A) (A) (A) (A) (A) (A) (A) (A) (A) (A) (A)
                 (A) (A) (A) (A) (A) (A) (A) (A) (A) (A) (A) (A)
                 (A) (A) (A) (A) (A) (A) (A) (A) (A) (A) (A) (A)
                 (A) (A) (A) (A) (A) (A) (A) (A) (A) (A) (A) (A)
                 (A) (A) (A) (A) (A) (A) (A) (A) (A) (A) (A) (A)
                 (A) (A) (A) (A) (A) (A) (A) (A) (A) (A) (A) (A)
                 (A) (A) (A) (A) (A) (A) (A) (A) (A) (A) (A) (A)
                 (A) (A) (A) (A) (A) (A) (A) (A) (A) (A) (A) (A)
                 (A) (A) (A) (A) (A) (A) (A) (A) (A) (A) (A) (A)
                 (A) (A) (A) (A) (A) (A) (A) (A) (A) (A) (A) (A)
                 (A) (A) (A) (A) (A) (A) (A) (A) (A) (A) (A) (A)
                 (A) (A) (A) (A)
 The electronic state is 2-A.
 Alpha  occ. eigenvalues --  -38.44242 -38.44055 -38.44022 -38.43889 -38.43774
 Alpha  occ. eigenvalues --  -38.43655 -38.43569  -2.20190  -2.19923  -2.19859
 Alpha  occ. eigenvalues --   -2.19746  -2.19646  -2.19469  -2.19420  -1.13888
 Alpha  occ. eigenvalues --   -1.13867  -1.13811  -1.13690  -1.13607  -1.13533
 Alpha  occ. eigenvalues --   -1.13513  -1.13512  -1.13462  -1.13430  -1.13411
 Alpha  occ. eigenvalues --   -1.13328  -1.13326  -1.13312  -1.13266  -1.13135
 Alpha  occ. eigenvalues --   -1.13115  -1.13100  -1.13095  -1.13077  -1.13055
 Alpha  occ. eigenvalues --   -0.18045  -0.13857  -0.12220  -0.10618
 Alpha virt. eigenvalues --   -0.06103  -0.05341  -0.04979  -0.03595  -0.02584
 Alpha virt. eigenvalues --   -0.02254  -0.01738  -0.01232  -0.00991  -0.00631
 Alpha virt. eigenvalues --   -0.00145   0.00231   0.00440   0.00600   0.00694
 Alpha virt. eigenvalues --    0.00785   0.00884   0.01080   0.01280   0.01325
 Alpha virt. eigenvalues --    0.01360   0.01519   0.01822   0.01843   0.01984
 Alpha virt. eigenvalues --    0.01997   0.02237   0.02436   0.02449   0.02714
 Alpha virt. eigenvalues --    0.02790   0.02807   0.02838   0.02991   0.03032
 Alpha virt. eigenvalues --    0.03163   0.03238   0.03267   0.03355   0.03492
 Alpha virt. eigenvalues --    0.03756   0.04146   0.04272   0.04315   0.04539
 Alpha virt. eigenvalues --    0.04770   0.04904   0.05093   0.05416   0.05668
 Alpha virt. eigenvalues --    0.06030   0.06443   0.06710   0.06766   0.06944
 Alpha virt. eigenvalues --    0.07429   0.07820   0.08247   0.08350   0.08554
 Alpha virt. eigenvalues --    0.09135   0.09669   0.09761   0.09973   0.10618
 Alpha virt. eigenvalues --    0.10919   0.11568   0.12155   0.12434   0.12471
 Alpha virt. eigenvalues --    0.13080   0.13394   0.13706   0.13978   0.14140
 Alpha virt. eigenvalues --    0.14372   0.15302   0.16006   0.16484   0.17011
 Alpha virt. eigenvalues --    0.25573   0.26426   0.26588   0.28641   0.29416
 Alpha virt. eigenvalues --    0.29569   0.31647   0.32179   0.32567   0.33620
 Alpha virt. eigenvalues --    0.33902   0.35189   0.35642   0.36586   0.37524
 Alpha virt. eigenvalues --    0.37694   0.38589   0.39040   0.39416   0.40483
 Alpha virt. eigenvalues --    0.41820   0.42447   0.43549   0.44136   0.44387
 Alpha virt. eigenvalues --    0.44582   0.44899   0.45131   0.45360   0.45395
 Alpha virt. eigenvalues --    0.45625   0.45768   0.46443   0.47487   0.47803
 Alpha virt. eigenvalues --    0.48353   0.48951   0.49280   0.49980   0.50028
 Alpha virt. eigenvalues --    0.50845   0.51780   0.52246   0.53346   0.54128
 Alpha virt. eigenvalues --    0.54868   0.56167   0.57658   0.57828   0.59420
 Alpha virt. eigenvalues --    0.61319   0.61766   0.64733   0.66274   0.68957
 Alpha virt. eigenvalues --    0.70927   2.03796   2.09503   2.12027   2.15777
 Alpha virt. eigenvalues --    2.19423   2.22378   2.24273   4.42535   4.43072
 Alpha virt. eigenvalues --    4.43655   4.44492   4.45009   4.45413   4.45448
 Alpha virt. eigenvalues --    4.46039   4.46229   4.46777   4.47156   4.47903
 Alpha virt. eigenvalues --    4.48694   4.49282   4.50930   4.52639   4.54927
 Alpha virt. eigenvalues --    4.57097   4.57475   4.61681   4.67054  96.23341
 Alpha virt. eigenvalues --   96.30229  96.33267  96.37718  96.42567  96.46553
 Alpha virt. eigenvalues --   96.48688
  Beta  occ. eigenvalues --  -38.44192 -38.44015 -38.43993 -38.43867 -38.43727
  Beta  occ. eigenvalues --  -38.43658 -38.43556  -2.20105  -2.19915  -2.19742
  Beta  occ. eigenvalues --   -2.19711  -2.19559  -2.19448  -2.19427  -1.13836
  Beta  occ. eigenvalues --   -1.13771  -1.13755  -1.13673  -1.13597  -1.13504
  Beta  occ. eigenvalues --   -1.13435  -1.13431  -1.13413  -1.13392  -1.13374
  Beta  occ. eigenvalues --   -1.13286  -1.13273  -1.13254  -1.13204  -1.13122
  Beta  occ. eigenvalues --   -1.13103  -1.13101  -1.13076  -1.13063  -1.13054
  Beta  occ. eigenvalues --   -0.17389  -0.13319  -0.12099
  Beta virt. eigenvalues --   -0.07027  -0.05899  -0.04999  -0.04731  -0.03194
  Beta virt. eigenvalues --   -0.02199  -0.01898  -0.01372  -0.01055  -0.00808
  Beta virt. eigenvalues --   -0.00349   0.00118   0.00329   0.00527   0.00728
  Beta virt. eigenvalues --    0.00766   0.00859   0.01011   0.01154   0.01373
  Beta virt. eigenvalues --    0.01422   0.01470   0.01568   0.01889   0.01924
  Beta virt. eigenvalues --    0.02060   0.02131   0.02373   0.02502   0.02521
  Beta virt. eigenvalues --    0.02787   0.02842   0.02865   0.02903   0.03061
  Beta virt. eigenvalues --    0.03087   0.03185   0.03316   0.03332   0.03347
  Beta virt. eigenvalues --    0.03638   0.03771   0.04290   0.04339   0.04454
  Beta virt. eigenvalues --    0.04620   0.04876   0.05053   0.05149   0.05530
  Beta virt. eigenvalues --    0.05721   0.06190   0.06518   0.06754   0.06953
  Beta virt. eigenvalues --    0.07056   0.07529   0.07837   0.08313   0.08519
  Beta virt. eigenvalues --    0.08709   0.09267   0.09851   0.09962   0.10119
  Beta virt. eigenvalues --    0.10882   0.11143   0.11648   0.12298   0.12523
  Beta virt. eigenvalues --    0.12726   0.13213   0.13583   0.13899   0.14131
  Beta virt. eigenvalues --    0.14269   0.14502   0.15427   0.16267   0.16793
  Beta virt. eigenvalues --    0.17198   0.26041   0.26621   0.26874   0.28756
  Beta virt. eigenvalues --    0.29618   0.29886   0.31915   0.32351   0.32784
  Beta virt. eigenvalues --    0.33855   0.34056   0.35469   0.36051   0.37182
  Beta virt. eigenvalues --    0.37764   0.37921   0.38794   0.39236   0.39573
  Beta virt. eigenvalues --    0.40787   0.42042   0.42670   0.43678   0.44401
  Beta virt. eigenvalues --    0.44498   0.44729   0.44977   0.45222   0.45402
  Beta virt. eigenvalues --    0.45608   0.45764   0.45907   0.46623   0.47730
  Beta virt. eigenvalues --    0.47997   0.48489   0.49096   0.49416   0.50053
  Beta virt. eigenvalues --    0.50071   0.50934   0.51894   0.52396   0.53415
  Beta virt. eigenvalues --    0.54250   0.54950   0.56367   0.57776   0.58040
  Beta virt. eigenvalues --    0.59558   0.61436   0.61998   0.64860   0.66513
  Beta virt. eigenvalues --    0.69061   0.70939   2.03917   2.09609   2.12137
  Beta virt. eigenvalues --    2.15907   2.19523   2.22435   2.24420   4.42573
  Beta virt. eigenvalues --    4.43109   4.43711   4.44533   4.45101   4.45462
  Beta virt. eigenvalues --    4.45509   4.46060   4.46237   4.46824   4.47203
  Beta virt. eigenvalues --    4.47941   4.48748   4.49332   4.51003   4.52679
  Beta virt. eigenvalues --    4.54976   4.57158   4.57529   4.61701   4.67075
  Beta virt. eigenvalues --   96.23383  96.30260  96.33310  96.37762  96.42599
  Beta virt. eigenvalues --   96.46571  96.48740
          Condensed to atoms (all electrons):
               1          2          3          4          5          6
     1  Na  10.811978   0.289428  -0.016881   0.213563  -0.071413  -0.011375
     2  Na   0.289428  12.084222  -1.105372   0.630911  -0.046857  -0.149855
     3  Na  -0.016881  -1.105372  12.010003  -0.665679  -0.092166   0.000708
     4  Na   0.213563   0.630911  -0.665679  11.263612   0.024973   0.091972
     5  Na  -0.071413  -0.046857  -0.092166   0.024973  10.650047   0.092385
     6  Na  -0.011375  -0.149855   0.000708   0.091972   0.092385  10.867424
     7  Na   0.027812  -0.111224   0.041635  -0.051055   0.021383   0.212198
               7
     1  Na   0.027812
     2  Na  -0.111224
     3  Na   0.041635
     4  Na  -0.051055
     5  Na   0.021383
     6  Na   0.212198
     7  Na  10.662535
          Atomic-Atomic Spin Densities.
               1          2          3          4          5          6
     1  Na   0.056624   0.200465  -0.088812  -0.094539  -0.003317  -0.063060
     2  Na   0.200465   0.580079  -0.050154   0.056520  -0.111735  -0.292702
     3  Na  -0.088812  -0.050154  -0.160471   0.048750   0.133960   0.220986
     4  Na  -0.094539   0.056520   0.048750  -0.064714   0.047463  -0.055105
     5  Na  -0.003317  -0.111735   0.133960   0.047463   0.256524   0.035887
     6  Na  -0.063060  -0.292702   0.220986  -0.055105   0.035887   0.443347
     7  Na   0.003576  -0.091782   0.061666  -0.015626  -0.012820   0.037734
               7
     1  Na   0.003576
     2  Na  -0.091782
     3  Na   0.061666
     4  Na  -0.015626
     5  Na  -0.012820
     6  Na   0.037734
     7  Na  -0.046099
 Mulliken charges and spin densities:
               1          2
     1  Na  -0.243111   0.010938
     2  Na  -0.591252   0.290690
     3  Na   0.827753   0.165925
     4  Na  -0.508296  -0.077250
     5  Na   0.421649   0.345962
     6  Na  -0.103458   0.327086
     7  Na   0.196716  -0.063351
 Sum of Mulliken charges =  -0.00000   1.00000
 Mulliken charges and spin densities with hydrogens summed into heavy atoms:
               1          2
     1  Na  -0.243111   0.010938
     2  Na  -0.591252   0.290690
     3  Na   0.827753   0.165925
     4  Na  -0.508296  -0.077250
     5  Na   0.421649   0.345962
     6  Na  -0.103458   0.327086
     7  Na   0.196716  -0.063351
 Electronic spatial extent (au):  <R**2>=           2939.7449
 Charge=              0.0000 electrons
 Dipole moment (field-independent basis, Debye):
    X=              0.2420    Y=             -0.3283    Z=              0.2687  Tot=              0.4884
 Quadrupole moment (field-independent basis, Debye-Ang):
   XX=            -65.4339   YY=            -62.3273   ZZ=            -69.7065
   XY=              2.7008   XZ=             -2.8052   YZ=              1.3472
 Traceless Quadrupole moment (field-independent basis, Debye-Ang):
   XX=              0.3887   YY=              3.4953   ZZ=             -3.8840
   XY=              2.7008   XZ=             -2.8052   YZ=              1.3472
 Octapole moment (field-independent basis, Debye-Ang**2):
  XXX=             44.9399  YYY=              4.1172  ZZZ=             12.1440  XYY=            -12.5251
  XXY=             -0.7114  XXZ=             -4.5165  XZZ=             -8.9669  YZZ=             -4.0202
  YYZ=             -1.5568  XYZ=              3.2804
 Hexadecapole moment (field-independent basis, Debye-Ang**3):
 XXXX=          -2604.4226 YYYY=          -1510.0851 ZZZZ=           -615.5405 XXXY=             59.8612
 XXXZ=            -72.4711 YYYX=             -9.9772 YYYZ=             14.4722 ZZZX=            -26.9655
 ZZZY=             -2.6232 XXYY=           -730.8255 XXZZ=           -554.8212 YYZZ=           -412.7697
 XXYZ=              0.9483 YYXZ=              7.6410 ZZXY=             21.6759
 N-N= 3.158995618360D+02 E-N=-3.361138886148D+03  KE= 1.132927262932D+03
                          Isotropic Fermi Contact Couplings
        Atom                 a.u.       MegaHertz       Gauss      10(-4) cm-1
     1  Na(23)             0.03740      44.24616      15.78813      14.75893
     2  Na(23)             0.15478     183.11362      65.33949      61.08013
     3  Na(23)             0.02797      33.08875      11.80689      11.03722
     4  Na(23)            -0.02186     -25.86383      -9.22886      -8.62724
     5  Na(23)             0.27496     325.28151     116.06853     108.50223
     6  Na(23)             0.19225     227.43465      81.15434      75.86403
     7  Na(23)            -0.02627     -31.08003     -11.09013     -10.36718
 --------------------------------------------------------
       Center         ----  Spin Dipole Couplings  ----
                      3XX-RR        3YY-RR        3ZZ-RR
 --------------------------------------------------------
     1   Atom        0.019118     -0.014924     -0.004194
     2   Atom        0.032419     -0.015938     -0.016481
     3   Atom        0.001252     -0.009537      0.008285
     4   Atom       -0.001370     -0.019966      0.021336
     5   Atom       -0.005336      0.003333      0.002003
     6   Atom       -0.002031      0.007563     -0.005533
     7   Atom        0.000724     -0.003205      0.002481
 --------------------------------------------------------
                        XY            XZ            YZ
 --------------------------------------------------------
     1   Atom        0.023182     -0.027945     -0.014252
     2   Atom        0.012411      0.018259      0.003348
     3   Atom       -0.004649      0.016981     -0.007649
     4   Atom       -0.017468     -0.033250      0.015995
     5   Atom        0.000288      0.004412      0.000148
     6   Atom        0.001531      0.001584      0.003341
     7   Atom        0.001533      0.008139      0.002653
 --------------------------------------------------------


 ---------------------------------------------------------------------------------
              Anisotropic Spin Dipole Couplings in Principal Axis System
 ---------------------------------------------------------------------------------

       Atom             a.u.   MegaHertz   Gauss  10(-4) cm-1        Axes

              Baa    -0.0267    -3.765    -1.344    -1.256 -0.4434  0.8962  0.0169
     1 Na(23) Bbb    -0.0226    -3.191    -1.139    -1.065  0.4601  0.2114  0.8623
              Bcc     0.0493     6.957     2.482     2.321  0.7692  0.3902 -0.5061
 
              Baa    -0.0227    -3.203    -1.143    -1.068 -0.3455  0.1786  0.9213
     2 Na(23) Bbb    -0.0187    -2.638    -0.941    -0.880 -0.1469  0.9593 -0.2410
              Bcc     0.0414     5.840     2.084     1.948  0.9268  0.2186  0.3052
 
              Baa    -0.0135    -1.900    -0.678    -0.634 -0.5324  0.5773  0.6191
     3 Na(23) Bbb    -0.0110    -1.550    -0.553    -0.517  0.5927  0.7764 -0.2142
              Bcc     0.0244     3.449     1.231     1.151  0.6043 -0.2529  0.7555
 
              Baa    -0.0311    -4.388    -1.566    -1.464  0.6377  0.7499  0.1757
     4 Na(23) Bbb    -0.0215    -3.033    -1.082    -1.012  0.5186 -0.5868  0.6219
              Bcc     0.0526     7.421     2.648     2.475 -0.5695  0.3055  0.7631
 
              Baa    -0.0074    -1.046    -0.373    -0.349  0.9054 -0.0184 -0.4242
     5 Na(23) Bbb     0.0033     0.460     0.164     0.153 -0.1109  0.9541 -0.2781
              Bcc     0.0042     0.586     0.209     0.196  0.4098  0.2988  0.8618
 
              Baa    -0.0067    -0.940    -0.335    -0.313 -0.2597 -0.1943  0.9459
     6 Na(23) Bbb    -0.0020    -0.288    -0.103    -0.096  0.9502 -0.2261  0.2144
              Bcc     0.0087     1.227     0.438     0.409  0.1723  0.9545  0.2434
 
              Baa    -0.0067    -0.949    -0.339    -0.316  0.7020  0.2080 -0.6811
     7 Na(23) Bbb    -0.0037    -0.527    -0.188    -0.176 -0.2986  0.9543 -0.0163
              Bcc     0.0104     1.475     0.526     0.492  0.6465  0.2148  0.7320
 

 ---------------------------------------------------------------------------------

 No NMR shielding tensors so no spin-rotation constants.
 Leave Link  601 at Tue Nov 28 22:03:01 2023, MaxMem=  1879048192 cpu:               2.3 elap:               0.2
 (Enter /home/sekinelabo/g16/l701.exe)
 ... and contract with generalized density number  0.
 Compute integral first derivatives.
 Leave Link  701 at Tue Nov 28 22:03:01 2023, MaxMem=  1879048192 cpu:               1.5 elap:               0.1
 (Enter /home/sekinelabo/g16/l702.exe)
 L702 exits ... SP integral derivatives will be done elsewhere.
 Leave Link  702 at Tue Nov 28 22:03:01 2023, MaxMem=  1879048192 cpu:               0.4 elap:               0.0
 (Enter /home/sekinelabo/g16/l703.exe)
 Integral derivatives from FoFJK, PRISM(SPDF).
 Compute integral first derivatives, UseDBF=F ICtDFT=           0.
 Calling FoFJK, ICntrl=      2127 FMM=F ISym2X=0 I1Cent= 0 IOpClX= 1 NMat=1 NMatS=1 NMatT=0.
 FoFJK:  IHMeth= 1 ICntrl=    2127 DoSepK=F KAlg= 0 I1Cent=           0 FoldK=F
 IRaf=         0 NMat=       1 IRICut=       1 DoRegI=T DoRafI=F ISym2E= 0 IDoP0=0 IntGTp=1.
 FoFCou: FMM=F IPFlag=           0 FMFlag=      100000 FMFlg1=         800
         NFxFlg=           0 DoJE=F BraDBF=F KetDBF=F FulRan=T
         wScrn=  0.000000 ICntrl=      2127 IOpCl=  1 I1Cent=           0 NGrid=           0
         NMat0=    1 NMatS0=      1 NMatT0=    0 NMatD0=    1 NMtDS0=    0 NMtDT0=    0
 Symmetry not used in FoFCou.
 Leave Link  703 at Tue Nov 28 22:03:03 2023, MaxMem=  1879048192 cpu:              31.4 elap:               2.1
 (Enter /home/sekinelabo/g16/l716.exe)
 Dipole        = 9.52105664D-02-1.29168492D-01 1.05720978D-01
 ***** Axes restored to original set *****
 -------------------------------------------------------------------
 Center     Atomic                   Forces (Hartrees/Bohr)
 Number     Number              X              Y              Z
 -------------------------------------------------------------------
      1       11          -0.003550592    0.002451493    0.000970908
      2       11          -0.003652949    0.004764447   -0.002475495
      3       11           0.004518027   -0.003966072    0.002328850
      4       11           0.001345511   -0.003600170   -0.002200585
      5       11           0.001347598    0.001349074    0.001978907
      6       11          -0.003328058    0.000064176    0.001373721
      7       11           0.003320463   -0.001062949   -0.001976306
 -------------------------------------------------------------------
 Cartesian Forces:  Max     0.004764447 RMS     0.002755874
 Z-matrix is all fixed cartesians, so copy forces.
 Force constants in Cartesian coordinates: 
                1             2             3             4             5 
      1  0.575657D-01
      2 -0.184452D-01  0.610189D-01
      3  0.139697D-01  0.964982D-02  0.379702D-01
      4 -0.204850D-01 -0.138861D-01 -0.501287D-02  0.663120D-01
      5  0.910274D-02 -0.192684D-01  0.715868D-02  0.185941D-02  0.103789D+00
      6 -0.225656D-02 -0.853253D-02 -0.984369D-02  0.747327D-02 -0.872893D-02
      7 -0.446450D-03  0.311378D-02 -0.596225D-02 -0.156959D-01 -0.322139D-02
      8  0.573181D-03  0.647734D-02  0.336116D-02  0.209822D-01 -0.353013D-01
      9 -0.104772D-02  0.312028D-02  0.226329D-02 -0.105310D-01  0.324329D-02
     10 -0.291900D-01  0.150529D-01 -0.159659D-02 -0.173134D-01 -0.334813D-02
     11  0.112118D-01 -0.301002D-01 -0.719721D-02  0.640077D-02 -0.343969D-01
     12 -0.578187D-02 -0.341267D-02 -0.207925D-01  0.245609D-02  0.172196D-02
     13 -0.961733D-02  0.121015D-01  0.233047D-02  0.565407D-02 -0.444969D-02
     14 -0.313595D-02 -0.187798D-01 -0.117495D-01 -0.447227D-02  0.348490D-02
     15 -0.638320D-02 -0.224826D-02 -0.704181D-02 -0.986696D-03 -0.233965D-02
     16  0.216543D-02  0.207721D-02 -0.372501D-02 -0.156318D-01 -0.163095D-02
     17  0.674439D-03  0.687317D-03 -0.121414D-02 -0.920806D-02 -0.197057D-01
     18  0.148579D-02  0.144883D-02 -0.254916D-02  0.229846D-02  0.803297D-03
     19  0.758874D-05 -0.139808D-04 -0.349338D-05 -0.283999D-02  0.168801D-02
     20  0.190582D-04 -0.351111D-04 -0.877320D-05 -0.167587D-02  0.139842D-02
     21  0.138258D-04 -0.254714D-04 -0.636455D-05  0.430272D-02 -0.185864D-02
                6             7             8             9            10 
      6  0.576942D-01
      7 -0.302602D-02  0.627554D-01
      8  0.115657D-01 -0.205543D-01  0.499633D-01
      9 -0.145759D-01  0.107862D-01 -0.701952D-02  0.489560D-01
     10 -0.395715D-02 -0.245602D-01 -0.561035D-02 -0.880668D-02  0.888942D-01
     11 -0.862070D-02  0.692715D-02 -0.170211D-01  0.754356D-02 -0.158815D-01
     12 -0.165293D-01  0.672915D-02 -0.107350D-01 -0.252013D-01  0.562594D-02
     13 -0.146544D-02  0.269786D-02  0.958602D-03 -0.187014D-02 -0.206337D-01
     14 -0.272615D-02  0.153744D-02  0.315922D-02 -0.143723D-02  0.682575D-02
     15  0.140355D-02 -0.365455D-02 -0.252325D-02  0.270503D-02  0.298129D-02
     16  0.378239D-02 -0.242065D-01  0.234698D-02  0.134477D-01  0.279483D-02
     17  0.171566D-01  0.118660D-01 -0.801118D-02 -0.554867D-02  0.293523D-02
     18 -0.193491D-01 -0.683007D-02  0.738793D-02 -0.193430D-01  0.572874D-02
     19 -0.550495D-03 -0.544183D-03  0.130371D-02 -0.197841D-02  0.825883D-05
     20 -0.113945D-03  0.331253D-03  0.733744D-03  0.982979D-04  0.261552D-04
     21  0.120033D-02  0.195753D-02 -0.203696D-02  0.519580D-02  0.244501D-04
               11            12            13            14            15 
     11  0.939692D-01
     12  0.106158D-01  0.842865D-01
     13 -0.798223D-02 -0.706294D-02  0.218573D-01
     14 -0.148576D-01  0.680795D-02 -0.735262D-03  0.271012D-01
     15 -0.187207D-02 -0.165492D-01  0.807689D-02  0.905392D-02  0.194979D-01
     16 -0.637139D-03 -0.198155D-02  0.417146D-04 -0.197126D-04 -0.337264D-04
     17  0.248018D-02 -0.502922D-02  0.107115D-03 -0.107962D-03 -0.706985D-04
     18 -0.440080D-03 -0.522979D-02 -0.884327D-05  0.510384D-04 -0.154040D-04
     19 -0.387833D-04  0.151695D-04  0.000000D+00  0.000000D+00  0.000000D+00
     20 -0.736082D-04  0.311592D-04  0.000000D+00  0.000000D+00  0.000000D+00
     21 -0.293374D-04  0.155885D-04  0.000000D+00  0.000000D+00  0.000000D+00
               16            17            18            19            20 
     16  0.468597D-01
     17 -0.104990D-01  0.339604D-01
     18 -0.476576D-02 -0.140731D-01  0.638131D-01
     19 -0.120233D-01  0.412423D-02  0.209168D-02  0.153917D-01
     20  0.836258D-02 -0.930301D-02  0.482208D-02 -0.706318D-02  0.727957D-02
     21 -0.672408D-02  0.877924D-02 -0.173267D-01  0.425549D-03 -0.482882D-02
               21 
     21  0.109213D-01
 Leave Link  716 at Tue Nov 28 22:03:03 2023, MaxMem=  1879048192 cpu:               0.4 elap:               0.0
 (Enter /home/sekinelabo/g16/l103.exe)

 GradGradGradGradGradGradGradGradGradGradGradGradGradGradGradGradGradGrad
 Berny optimization.
 Search for a local minimum.
 Step number   1 out of a maximum of    2
 All quantities printed in internal units (Hartrees-Bohrs-Radians)
 Second derivative matrix not updated -- first step.
 ITU=  0
     Eigenvalues ---    0.00234   0.01465   0.01626   0.02201   0.03269
     Eigenvalues ---    0.04728   0.05950   0.07126   0.07544   0.09018
     Eigenvalues ---    0.09829   0.11302   0.12179   0.14078   0.14930
 Quadratic step=5.945D-01 exceeds max=3.000D-01 adjusted using Lamda=-3.781D-03.
 Angle between NR and scaled steps=  21.14 degrees.
 Angle between quadratic step and forces=  52.89 degrees.
 Linear search not attempted -- first point.
 B after Tr=     0.000000    0.000000   -0.000000
         Rot=    1.000000   -0.000000   -0.000000   -0.000000 Ang=   0.00 deg.
 Variable       Old X    -DE/DX   Delta X   Delta X   Delta X     New X
                                 (Linear)    (Quad)   (Total)
    X1       26.52741  -0.00355   0.00000  -0.07423  -0.07423  26.45317
    Y1       30.23392   0.00245   0.00000   0.03881   0.03881  30.27273
    Z1       25.59464   0.00097   0.00000   0.06555   0.06555  25.66019
    X2       31.69902  -0.00365   0.00000  -0.03086  -0.03086  31.66817
    Y2       32.03634   0.00476   0.00000   0.04169   0.04169  32.07803
    Z2       29.61560  -0.00248   0.00000   0.00631   0.00631  29.62191
    X3       34.44612   0.00452   0.00000   0.04981   0.04981  34.49593
    Y3       27.37212  -0.00397   0.00000  -0.02457  -0.02457  27.34754
    Z3       31.87552   0.00233   0.00000   0.03945   0.03945  31.91497
    X4       30.98660   0.00135   0.00000  -0.01126  -0.01126  30.97534
    Y4       26.59997  -0.00360   0.00000   0.00270   0.00270  26.60267
    Z4       26.52741  -0.00220   0.00000  -0.00006  -0.00006  26.52735
    X5       26.12527   0.00135   0.00000  -0.01734  -0.01734  26.10793
    Y5       24.51050   0.00135   0.00000   0.05850   0.05850  24.56901
    Z5       22.06425   0.00198   0.00000   0.07650   0.07650  22.14076
    X6       29.14808  -0.00333   0.00000  -0.03100  -0.03100  29.11708
    Y6       29.39053   0.00006   0.00000  -0.00533  -0.00533  29.38520
    Z6       34.66287   0.00137   0.00000  -0.00086  -0.00086  34.66201
    X7       24.07228   0.00332   0.00000   0.11489   0.11489  24.18716
    Y7       32.86139  -0.00106   0.00000  -0.11180  -0.11180  32.74959
    Z7       32.66448  -0.00198   0.00000  -0.18689  -0.18689  32.47759
         Item               Value     Threshold  Converged?
 Maximum Force            0.004764     0.000450     NO 
 RMS     Force            0.002756     0.000300     NO 
 Maximum Displacement     0.186889     0.001800     NO 
 RMS     Displacement     0.065469     0.001200     NO 
 Predicted change in Energy=-1.313136D-03
 GradGradGradGradGradGradGradGradGradGradGradGradGradGradGradGradGradGrad

 Leave Link  103 at Tue Nov 28 22:03:03 2023, MaxMem=  1879048192 cpu:               0.2 elap:               0.0
 (Enter /home/sekinelabo/g16/l9999.exe)
 1\1\GINC-SEKINELABO-XA7R-R37\Force\UB3LYP\6-311+G(d)\Na7(2)\SEKINELABO
 \28-Nov-2023\0\\#P B3LYP/6-311+g(d) force\\DPGEN\\0,2\Na,14.0377,15.99
 91,13.5441\Na,16.7744,16.9529,15.6719\Na,18.2281,14.4847,16.8678\Na,16
 .3974,14.0761,14.0377\Na,13.8249,12.9704,11.6759\Na,15.4245,15.5528,18
 .3428\Na,12.7385,17.3895,17.2853\\Version=ES64L-G16RevB.01\State=2-A\H
 F=-1136.1257974\S2=0.772982\S2-1=0.\S2A=0.750283\RMSD=6.499e-09\RMSF=2
 .756e-03\Dipole=0.135303,-0.0112386,-0.1359899\Quadrupole=2.1461436,0.
 0512407,-2.1973843,-1.1995244,3.0240702,1.2922519\PG=C01 [X(Na7)]\\@


 THE BEST WAY TO CONVINCE A FOOL THAT HE IS WRONG 
 IS TO LET HIM HAVE HIS OWN WAY.

                                         JOSH BILLINGS
 Job cpu time:       0 days  0 hours  3 minutes 50.5 seconds.
 Elapsed time:       0 days  0 hours  0 minutes 19.6 seconds.
 File lengths (MBytes):  RWF=     32 Int=      0 D2E=      0 Chk=      4 Scr=      1
 Normal termination of Gaussian 16 at Tue Nov 28 22:03:03 2023.
