 Set GAUSS_MDEF to "14GB".
 Entering Gaussian System, Link 0=g16
 Initial command:
 /home/sekinelabo/g16/l1.exe "/home/sekinelabo/g16temp/Gau-676327.inp" -scrdir="/home/sekinelabo/g16temp/"
 Entering Link 1 = /home/sekinelabo/g16/l1.exe PID=    676329.
  
 Copyright (c) 1988-2017, Gaussian, Inc.  All Rights Reserved.
  
 This is part of the Gaussian(R) 16 program.  It is based on
 the Gaussian(R) 09 system (copyright 2009, Gaussian, Inc.),
 the Gaussian(R) 03 system (copyright 2003, Gaussian, Inc.),
 the Gaussian(R) 98 system (copyright 1998, Gaussian, Inc.),
 the Gaussian(R) 94 system (copyright 1995, Gaussian, Inc.),
 the Gaussian 92(TM) system (copyright 1992, Gaussian, Inc.),
 the Gaussian 90(TM) system (copyright 1990, Gaussian, Inc.),
 the Gaussian 88(TM) system (copyright 1988, Gaussian, Inc.),
 the Gaussian 86(TM) system (copyright 1986, Carnegie Mellon
 University), and the Gaussian 82(TM) system (copyright 1983,
 Carnegie Mellon University). Gaussian is a federally registered
 trademark of Gaussian, Inc.
  
 This software contains proprietary and confidential information,
 including trade secrets, belonging to Gaussian, Inc.
  
 This software is provided under written license and may be
 used, copied, transmitted, or stored only in accord with that
 written license.
  
 The following legend is applicable only to US Government
 contracts under FAR:
  
                    RESTRICTED RIGHTS LEGEND
  
 Use, reproduction and disclosure by the US Government is
 subject to restrictions as set forth in subparagraphs (a)
 and (c) of the Commercial Computer Software - Restricted
 Rights clause in FAR 52.227-19.
  
 Gaussian, Inc.
 340 Quinnipiac St., Bldg. 40, Wallingford CT 06492
  
  
 ---------------------------------------------------------------
 Warning -- This program may not be used in any manner that
 competes with the business of Gaussian, Inc. or will provide
 assistance to any competitor of Gaussian, Inc.  The licensee
 of this program is prohibited from giving any competitor of
 Gaussian, Inc. access to this program.  By using this program,
 the user acknowledges that Gaussian, Inc. is engaged in the
 business of creating and licensing software in the field of
 computational chemistry and represents and warrants to the
 licensee that it is not a competitor of Gaussian, Inc. and that
 it will not use this program in any manner prohibited above.
 ---------------------------------------------------------------
  

 Cite this work as:
 Gaussian 16, Revision B.01,
 M. J. Frisch, G. W. Trucks, H. B. Schlegel, G. E. Scuseria, 
 M. A. Robb, J. R. Cheeseman, G. Scalmani, V. Barone, 
 G. A. Petersson, H. Nakatsuji, X. Li, M. Caricato, A. V. Marenich, 
 J. Bloino, B. G. Janesko, R. Gomperts, B. Mennucci, H. P. Hratchian, 
 J. V. Ortiz, A. F. Izmaylov, J. L. Sonnenberg, D. Williams-Young, 
 F. Ding, F. Lipparini, F. Egidi, J. Goings, B. Peng, A. Petrone, 
 T. Henderson, D. Ranasinghe, V. G. Zakrzewski, J. Gao, N. Rega, 
 G. Zheng, W. Liang, M. Hada, M. Ehara, K. Toyota, R. Fukuda, 
 J. Hasegawa, M. Ishida, T. Nakajima, Y. Honda, O. Kitao, H. Nakai, 
 T. Vreven, K. Throssell, J. A. Montgomery, Jr., J. E. Peralta, 
 F. Ogliaro, M. J. Bearpark, J. J. Heyd, E. N. Brothers, K. N. Kudin, 
 V. N. Staroverov, T. A. Keith, R. Kobayashi, J. Normand, 
 K. Raghavachari, A. P. Rendell, J. C. Burant, S. S. Iyengar, 
 J. Tomasi, M. Cossi, J. M. Millam, M. Klene, C. Adamo, R. Cammi, 
 J. W. Ochterski, R. L. Martin, K. Morokuma, O. Farkas, 
 J. B. Foresman, and D. J. Fox, Gaussian, Inc., Wallingford CT, 2016.
 
 ******************************************
 Gaussian 16:  ES64L-G16RevB.01 20-Dec-2017
                29-Nov-2023 
 ******************************************
 %nproc=15
 Will use up to   15 processors via shared memory.
 -------------------------
 #P B3LYP/6-311+g(d) force
 -------------------------
 1/10=7,30=1,38=1/1,3;
 2/12=2,17=6,18=5,40=1/2;
 3/5=4,6=6,7=11,11=2,25=1,30=1,71=1,74=-5/1,2,3;
 4//1;
 5/5=2,38=5/2;
 6/7=2,8=2,9=2,10=2,28=1/1;
 7/29=1/1,2,3,16;
 1/10=7,30=1/3;
 99//99;
 Leave Link    1 at Wed Nov 29 16:09:36 2023, MaxMem=           0 cpu:               0.3 elap:               0.0
 (Enter /home/sekinelabo/g16/l101.exe)
 -----
 DPGEN
 -----
 Symbolic Z-matrix:
 Charge =  0 Multiplicity = 2
 Na                    14.3173   15.6177   15.0682 
 Na                    17.3354   13.2595   15.8535 
 Na                    16.7059   14.752    12.743 
 Na                    14.894    18.175    17.1019 
 Na                    14.4566   12.8595   14.2419 
 Na                    12.3197   15.6086   17.6138 
 Na                    17.3967   17.1532   14.8032 
 
 ITRead=  0  0  0  0  0  0  0
 MicOpt= -1 -1 -1 -1 -1 -1 -1
 NAtoms=      7 NQM=        7 NQMF=       0 NMMI=      0 NMMIF=      0
                NMic=       0 NMicF=      0.
                    Isotopes and Nuclear Properties:
 (Nuclear quadrupole moments (NQMom) in fm**2, nuclear magnetic moments (NMagM)
  in nuclear magnetons)

  Atom         1           2           3           4           5           6           7
 IAtWgt=          23          23          23          23          23          23          23
 AtmWgt=  22.9897697  22.9897697  22.9897697  22.9897697  22.9897697  22.9897697  22.9897697
 NucSpn=           3           3           3           3           3           3           3
 AtZEff=  -0.0000000  -0.0000000  -0.0000000  -0.0000000  -0.0000000  -0.0000000  -0.0000000
 NQMom=   10.4000000  10.4000000  10.4000000  10.4000000  10.4000000  10.4000000  10.4000000
 NMagM=    2.2175200   2.2175200   2.2175200   2.2175200   2.2175200   2.2175200   2.2175200
 AtZNuc=  11.0000000  11.0000000  11.0000000  11.0000000  11.0000000  11.0000000  11.0000000
 Leave Link  101 at Wed Nov 29 16:09:36 2023, MaxMem=  1879048192 cpu:               2.4 elap:               0.2
 (Enter /home/sekinelabo/g16/l103.exe)

 GradGradGradGradGradGradGradGradGradGradGradGradGradGradGradGradGradGrad
 Berny optimization.
 Initialization pass.
 Trust Radius=3.00D-01 FncErr=1.00D-07 GrdErr=1.00D-07 EigMax=2.50D+02 EigMin=1.00D-04
 Number of steps in this run=      2 maximum allowed number of steps=      2.
 GradGradGradGradGradGradGradGradGradGradGradGradGradGradGradGradGradGrad

 Leave Link  103 at Wed Nov 29 16:09:36 2023, MaxMem=  1879048192 cpu:               0.2 elap:               0.0
 (Enter /home/sekinelabo/g16/l202.exe)
                          Input orientation:                          
 ---------------------------------------------------------------------
 Center     Atomic      Atomic             Coordinates (Angstroms)
 Number     Number       Type             X           Y           Z
 ---------------------------------------------------------------------
      1         11           0       14.317300   15.617700   15.068200
      2         11           0       17.335400   13.259500   15.853500
      3         11           0       16.705900   14.752000   12.743000
      4         11           0       14.894000   18.175000   17.101900
      5         11           0       14.456600   12.859500   14.241900
      6         11           0       12.319700   15.608600   17.613800
      7         11           0       17.396700   17.153200   14.803200
 ---------------------------------------------------------------------
                    Distance matrix (angstroms):
                    1          2          3          4          5
     1  Na   0.000000
     2  Na   3.909825   0.000000
     3  Na   3.444039   3.506998   0.000000
     4  Na   3.317876   5.628595   5.830945   0.000000
     5  Na   2.882680   3.323363   3.299638   6.051897   0.000000
     6  Na   3.235826   5.811555   6.610386   3.670895   4.847020
     7  Na   3.451187   4.033335   3.238424   3.548465   5.234033
                    6          7
     6  Na   0.000000
     7  Na   6.005097   0.000000
 Stoichiometry    Na7(2)
 Framework group  C1[X(Na7)]
 Deg. of freedom    15
 Full point group                 C1      NOp   1
 Largest Abelian subgroup         C1      NOp   1
 Largest concise Abelian subgroup C1      NOp   1
                         Standard orientation:                         
 ---------------------------------------------------------------------
 Center     Atomic      Atomic             Coordinates (Angstroms)
 Number     Number       Type             X           Y           Z
 ---------------------------------------------------------------------
      1         11           0       -0.575555   -0.413405   -0.841496
      2         11           0        1.949225   -0.415655    2.143837
      3         11           0        2.716003    0.555834   -1.137519
      4         11           0       -2.828981    1.804612    0.163877
      5         11           0        1.459512   -2.419454   -0.461872
      6         11           0       -3.315237   -1.833794    0.131748
      7         11           0        0.595032    2.721863    0.001425
 ---------------------------------------------------------------------
 Rotational constants (GHZ):           0.8025846           0.5517597           0.4107402
 Leave Link  202 at Wed Nov 29 16:09:36 2023, MaxMem=  1879048192 cpu:               0.0 elap:               0.0
 (Enter /home/sekinelabo/g16/l301.exe)
 Standard basis: 6-311+G(d) (5D, 7F)
 Ernie: Thresh=  0.10000D-02 Tol=  0.10000D-05 Strict=F.
 There are   217 symmetry adapted cartesian basis functions of A   symmetry.
 There are   210 symmetry adapted basis functions of A   symmetry.
   210 basis functions,   350 primitive gaussians,   217 cartesian basis functions
    39 alpha electrons       38 beta electrons
       nuclear repulsion energy       332.6328641108 Hartrees.
 IExCor=  402 DFT=T Ex+Corr=B3LYP ExCW=0 ScaHFX=  0.200000
 ScaDFX=  0.800000  0.720000  1.000000  0.810000 ScalE2=  1.000000  1.000000
 IRadAn=      5 IRanWt=     -1 IRanGd=            0 ICorTp=0 IEmpDi=  4
 NAtoms=    7 NActive=    7 NUniq=    7 SFac= 1.00D+00 NAtFMM=   60 NAOKFM=F Big=F
 Integral buffers will be    131072 words long.
 Raffenetti 2 integral format.
 Two-electron integral symmetry is turned on.
 Leave Link  301 at Wed Nov 29 16:09:36 2023, MaxMem=  1879048192 cpu:               0.5 elap:               0.0
 (Enter /home/sekinelabo/g16/l302.exe)
 NPDir=0 NMtPBC=     1 NCelOv=     1 NCel=       1 NClECP=     1 NCelD=      1
         NCelK=      1 NCelE2=     1 NClLst=     1 CellRange=     0.0.
 One-electron integrals computed using PRISM.
 One-electron integral symmetry used in STVInt
 NBasis=   210 RedAO= T EigKep=  4.29D-06  NBF=   210
 NBsUse=   210 1.00D-06 EigRej= -1.00D+00 NBFU=   210
 Precomputing XC quadrature grid using
 IXCGrd= 4 IRadAn=           5 IRanWt=          -1 IRanGd=           0 AccXCQ= 0.00D+00.
 Generated NRdTot=       0 NPtTot=           0 NUsed=           0 NTot=          32
 NSgBfM=   210   210   210   210   210 MxSgAt=     7 MxSgA2=     7.
 Leave Link  302 at Wed Nov 29 16:09:36 2023, MaxMem=  1879048192 cpu:               2.1 elap:               0.1
 (Enter /home/sekinelabo/g16/l303.exe)
 DipDrv:  MaxL=1.
 Leave Link  303 at Wed Nov 29 16:09:36 2023, MaxMem=  1879048192 cpu:               0.5 elap:               0.0
 (Enter /home/sekinelabo/g16/l401.exe)
 ExpMin= 7.60D-03 ExpMax= 3.62D+04 ExpMxC= 1.21D+03 IAcc=3 IRadAn=         5 AccDes= 0.00D+00
 Harris functional with IExCor=  402 and IRadAn=       5 diagonalized for initial guess.
 HarFok:  IExCor=  402 AccDes= 0.00D+00 IRadAn=         5 IDoV= 1 UseB2=F ITyADJ=14
 ICtDFT=  3500011 ScaDFX=  1.000000  1.000000  1.000000  1.000000
 FoFCou: FMM=F IPFlag=           0 FMFlag=      100000 FMFlg1=           0
         NFxFlg=           0 DoJE=T BraDBF=F KetDBF=T FulRan=T
         wScrn=  0.000000 ICntrl=       500 IOpCl=  0 I1Cent=   200000004 NGrid=           0
         NMat0=    1 NMatS0=      1 NMatT0=    0 NMatD0=    1 NMtDS0=    0 NMtDT0=    0
 Petite list used in FoFCou.
 Harris En= -1135.89431952181    
 JPrj=0 DoOrth=F DoCkMO=F.
 Initial guess <Sx>= 0.0000 <Sy>= 0.0000 <Sz>= 0.5000 <S**2>= 0.7500 S= 0.5000
 Leave Link  401 at Wed Nov 29 16:09:37 2023, MaxMem=  1879048192 cpu:               4.8 elap:               0.3
 (Enter /home/sekinelabo/g16/l502.exe)
 Keep R1 and R2 ints in memory in canonical form, NReq=506573321.
 FoFCou: FMM=F IPFlag=           0 FMFlag=           0 FMFlg1=           0
         NFxFlg=           0 DoJE=F BraDBF=F KetDBF=F FulRan=T
         wScrn=  0.000000 ICntrl=       600 IOpCl=  0 I1Cent=           0 NGrid=           0
         NMat0=    1 NMatS0=  22155 NMatT0=    0 NMatD0=    1 NMtDS0=    0 NMtDT0=    0
 Symmetry not used in FoFCou.
 Two-electron integral symmetry not used.
 UHF open shell SCF:
 Using DIIS extrapolation, IDIIS=  1040.
 NGot=  1879048192 LenX=  1388082579 LenY=  1388035049
 Requested convergence on RMS density matrix=1.00D-08 within 128 cycles.
 Requested convergence on MAX density matrix=1.00D-06.
 Requested convergence on             energy=1.00D-06.
 No special actions if energy rises.

 Cycle   1  Pass 1  IDiag  1:
 E= -1136.08605287745    
 DIIS: error= 9.54D-03 at cycle   1 NSaved=   1.
 NSaved= 1 IEnMin= 1 EnMin= -1136.08605287745     IErMin= 1 ErrMin= 9.54D-03
 ErrMax= 9.54D-03  0.00D+00 EMaxC= 1.00D-01 BMatC= 1.93D-01 BMatP= 1.93D-01
 IDIUse=3 WtCom= 9.05D-01 WtEn= 9.54D-02
 Coeff-Com:  0.100D+01
 Coeff-En:   0.100D+01
 Coeff:      0.100D+01
 Gap=     0.028 Goal=   None    Shift=    0.000
 Gap=     0.053 Goal=   None    Shift=    0.000
 GapD=    0.028 DampG=0.250 DampE=1.000 DampFc=0.2500 IDamp=-1.
 Damping current iteration by 2.50D-01
 RMSDP=4.98D-02 MaxDP=5.71D+00              OVMax= 2.55D-01

 Cycle   2  Pass 1  IDiag  1:
 E= -1136.09935384546     Delta-E=       -0.013300968011 Rises=F Damp=T
 DIIS: error= 6.73D-03 at cycle   2 NSaved=   2.
 NSaved= 2 IEnMin= 2 EnMin= -1136.09935384546     IErMin= 2 ErrMin= 6.73D-03
 ErrMax= 6.73D-03  0.00D+00 EMaxC= 1.00D-01 BMatC= 7.31D-02 BMatP= 1.93D-01
 IDIUse=3 WtCom= 9.33D-01 WtEn= 6.73D-02
 Coeff-Com: -0.124D+01 0.224D+01
 Coeff-En:   0.000D+00 0.100D+01
 Coeff:     -0.116D+01 0.216D+01
 Gap=     0.046 Goal=   None    Shift=    0.000
 Gap=     0.058 Goal=   None    Shift=    0.000
 RMSDP=1.96D-02 MaxDP=2.57D+00 DE=-1.33D-02 OVMax= 2.34D-01

 Cycle   3  Pass 1  IDiag  1:
 E= -1136.11789412657     Delta-E=       -0.018540281104 Rises=F Damp=F
 DIIS: error= 3.39D-03 at cycle   3 NSaved=   3.
 NSaved= 3 IEnMin= 3 EnMin= -1136.11789412657     IErMin= 3 ErrMin= 3.39D-03
 ErrMax= 3.39D-03  0.00D+00 EMaxC= 1.00D-01 BMatC= 5.93D-03 BMatP= 7.31D-02
 IDIUse=3 WtCom= 9.66D-01 WtEn= 3.39D-02
 Coeff-Com: -0.368D+00 0.643D+00 0.725D+00
 Coeff-En:   0.000D+00 0.000D+00 0.100D+01
 Coeff:     -0.355D+00 0.621D+00 0.734D+00
 Gap=     0.035 Goal=   None    Shift=    0.000
 Gap=     0.057 Goal=   None    Shift=    0.000
 RMSDP=9.41D-03 MaxDP=8.35D-01 DE=-1.85D-02 OVMax= 1.80D-01

 Cycle   4  Pass 1  IDiag  1:
 E= -1136.11545936272     Delta-E=        0.002434763851 Rises=F Damp=F
 DIIS: error= 4.21D-03 at cycle   4 NSaved=   4.
 NSaved= 4 IEnMin= 3 EnMin= -1136.11789412657     IErMin= 3 ErrMin= 3.39D-03
 ErrMax= 4.21D-03  0.00D+00 EMaxC= 1.00D-01 BMatC= 7.18D-03 BMatP= 5.93D-03
 IDIUse=3 WtCom= 1.34D-01 WtEn= 8.66D-01
 Coeff-Com: -0.333D-01 0.527D-01 0.519D+00 0.461D+00
 Coeff-En:   0.000D+00 0.000D+00 0.562D+00 0.438D+00
 Coeff:     -0.444D-02 0.704D-02 0.556D+00 0.441D+00
 Gap=     0.041 Goal=   None    Shift=    0.000
 Gap=     0.055 Goal=   None    Shift=    0.000
 RMSDP=2.64D-03 MaxDP=1.61D-01 DE= 2.43D-03 OVMax= 1.11D-01

 Cycle   5  Pass 1  IDiag  1:
 E= -1136.12395167317     Delta-E=       -0.008492310452 Rises=F Damp=F
 DIIS: error= 9.90D-04 at cycle   5 NSaved=   5.
 NSaved= 5 IEnMin= 5 EnMin= -1136.12395167317     IErMin= 5 ErrMin= 9.90D-04
 ErrMax= 9.90D-04  0.00D+00 EMaxC= 1.00D-01 BMatC= 3.62D-04 BMatP= 5.93D-03
 IDIUse=3 WtCom= 9.90D-01 WtEn= 9.90D-03
 Coeff-Com: -0.217D-02 0.187D-02 0.305D+00 0.253D+00 0.442D+00
 Coeff-En:   0.000D+00 0.000D+00 0.000D+00 0.000D+00 0.100D+01
 Coeff:     -0.215D-02 0.185D-02 0.302D+00 0.250D+00 0.448D+00
 Gap=     0.040 Goal=   None    Shift=    0.000
 Gap=     0.055 Goal=   None    Shift=    0.000
 RMSDP=2.05D-03 MaxDP=2.34D-01 DE=-8.49D-03 OVMax= 1.76D-02

 Cycle   6  Pass 1  IDiag  1:
 E= -1136.12427878689     Delta-E=       -0.000327113718 Rises=F Damp=F
 DIIS: error= 1.54D-04 at cycle   6 NSaved=   6.
 NSaved= 6 IEnMin= 6 EnMin= -1136.12427878689     IErMin= 6 ErrMin= 1.54D-04
 ErrMax= 1.54D-04  0.00D+00 EMaxC= 1.00D-01 BMatC= 8.06D-06 BMatP= 3.62D-04
 IDIUse=3 WtCom= 9.98D-01 WtEn= 1.54D-03
 Coeff-Com: -0.151D-02 0.159D-02-0.125D-01-0.207D-01 0.101D+00 0.932D+00
 Coeff-En:   0.000D+00 0.000D+00 0.000D+00 0.000D+00 0.000D+00 0.100D+01
 Coeff:     -0.151D-02 0.159D-02-0.124D-01-0.207D-01 0.101D+00 0.932D+00
 Gap=     0.041 Goal=   None    Shift=    0.000
 Gap=     0.055 Goal=   None    Shift=    0.000
 RMSDP=3.89D-04 MaxDP=4.69D-02 DE=-3.27D-04 OVMax= 5.20D-03

 Cycle   7  Pass 1  IDiag  1:
 E= -1136.12429058384     Delta-E=       -0.000011796956 Rises=F Damp=F
 DIIS: error= 5.20D-05 at cycle   7 NSaved=   7.
 NSaved= 7 IEnMin= 7 EnMin= -1136.12429058384     IErMin= 7 ErrMin= 5.20D-05
 ErrMax= 5.20D-05  0.00D+00 EMaxC= 1.00D-01 BMatC= 1.20D-06 BMatP= 8.06D-06
 IDIUse=1 WtCom= 1.00D+00 WtEn= 0.00D+00
 Coeff-Com: -0.242D-03 0.147D-03-0.196D-01-0.212D-01 0.269D-01 0.421D+00
 Coeff-Com:  0.593D+00
 Coeff:     -0.242D-03 0.147D-03-0.196D-01-0.212D-01 0.269D-01 0.421D+00
 Coeff:      0.593D+00
 Gap=     0.041 Goal=   None    Shift=    0.000
 Gap=     0.055 Goal=   None    Shift=    0.000
 RMSDP=1.10D-04 MaxDP=7.00D-03 DE=-1.18D-05 OVMax= 1.84D-03

 Cycle   8  Pass 1  IDiag  1:
 E= -1136.12429240197     Delta-E=       -0.000001818124 Rises=F Damp=F
 DIIS: error= 3.79D-05 at cycle   8 NSaved=   8.
 NSaved= 8 IEnMin= 8 EnMin= -1136.12429240197     IErMin= 8 ErrMin= 3.79D-05
 ErrMax= 3.79D-05  0.00D+00 EMaxC= 1.00D-01 BMatC= 2.27D-07 BMatP= 1.20D-06
 IDIUse=1 WtCom= 1.00D+00 WtEn= 0.00D+00
 Coeff-Com:  0.500D-03-0.659D-03-0.504D-02-0.322D-02-0.132D-01-0.600D-01
 Coeff-Com:  0.208D+00 0.874D+00
 Coeff:      0.500D-03-0.659D-03-0.504D-02-0.322D-02-0.132D-01-0.600D-01
 Coeff:      0.208D+00 0.874D+00
 Gap=     0.041 Goal=   None    Shift=    0.000
 Gap=     0.055 Goal=   None    Shift=    0.000
 RMSDP=6.57D-05 MaxDP=6.37D-03 DE=-1.82D-06 OVMax= 2.06D-03

 Cycle   9  Pass 1  IDiag  1:
 E= -1136.12429337070     Delta-E=       -0.000000968736 Rises=F Damp=F
 DIIS: error= 3.06D-05 at cycle   9 NSaved=   9.
 NSaved= 9 IEnMin= 9 EnMin= -1136.12429337070     IErMin= 9 ErrMin= 3.06D-05
 ErrMax= 3.06D-05  0.00D+00 EMaxC= 1.00D-01 BMatC= 1.32D-07 BMatP= 2.27D-07
 IDIUse=1 WtCom= 1.00D+00 WtEn= 0.00D+00
 Coeff-Com:  0.363D-03-0.444D-03 0.443D-03 0.205D-02-0.137D-01-0.115D+00
 Coeff-Com:  0.202D-02 0.532D+00 0.592D+00
 Coeff:      0.363D-03-0.444D-03 0.443D-03 0.205D-02-0.137D-01-0.115D+00
 Coeff:      0.202D-02 0.532D+00 0.592D+00
 Gap=     0.041 Goal=   None    Shift=    0.000
 Gap=     0.055 Goal=   None    Shift=    0.000
 RMSDP=3.45D-05 MaxDP=2.92D-03 DE=-9.69D-07 OVMax= 1.20D-03

 Cycle  10  Pass 1  IDiag  1:
 E= -1136.12429387075     Delta-E=       -0.000000500044 Rises=F Damp=F
 DIIS: error= 2.04D-05 at cycle  10 NSaved=  10.
 NSaved=10 IEnMin=10 EnMin= -1136.12429387075     IErMin=10 ErrMin= 2.04D-05
 ErrMax= 2.04D-05  0.00D+00 EMaxC= 1.00D-01 BMatC= 4.28D-08 BMatP= 1.32D-07
 IDIUse=1 WtCom= 1.00D+00 WtEn= 0.00D+00
 Coeff-Com: -0.118D-03 0.171D-03 0.224D-02 0.190D-02 0.118D-02-0.463D-02
 Coeff-Com: -0.105D+00-0.251D+00 0.227D+00 0.113D+01
 Coeff:     -0.118D-03 0.171D-03 0.224D-02 0.190D-02 0.118D-02-0.463D-02
 Coeff:     -0.105D+00-0.251D+00 0.227D+00 0.113D+01
 Gap=     0.041 Goal=   None    Shift=    0.000
 Gap=     0.055 Goal=   None    Shift=    0.000
 RMSDP=4.16D-05 MaxDP=4.41D-03 DE=-5.00D-07 OVMax= 1.87D-03

 Cycle  11  Pass 1  IDiag  1:
 E= -1136.12429433321     Delta-E=       -0.000000462461 Rises=F Damp=F
 DIIS: error= 1.13D-05 at cycle  11 NSaved=  11.
 NSaved=11 IEnMin=11 EnMin= -1136.12429433321     IErMin=11 ErrMin= 1.13D-05
 ErrMax= 1.13D-05  0.00D+00 EMaxC= 1.00D-01 BMatC= 1.55D-08 BMatP= 4.28D-08
 IDIUse=1 WtCom= 1.00D+00 WtEn= 0.00D+00
 Coeff-Com: -0.169D-03 0.216D-03 0.125D-02-0.934D-04 0.661D-02 0.391D-01
 Coeff-Com: -0.100D-01-0.282D+00-0.298D+00 0.963D-01 0.145D+01
 Coeff:     -0.169D-03 0.216D-03 0.125D-02-0.934D-04 0.661D-02 0.391D-01
 Coeff:     -0.100D-01-0.282D+00-0.298D+00 0.963D-01 0.145D+01
 Gap=     0.041 Goal=   None    Shift=    0.000
 Gap=     0.055 Goal=   None    Shift=    0.000
 RMSDP=4.20D-05 MaxDP=3.83D-03 DE=-4.62D-07 OVMax= 1.94D-03

 Cycle  12  Pass 1  IDiag  1:
 E= -1136.12429459967     Delta-E=       -0.000000266460 Rises=F Damp=F
 DIIS: error= 3.23D-06 at cycle  12 NSaved=  12.
 NSaved=12 IEnMin=12 EnMin= -1136.12429459967     IErMin=12 ErrMin= 3.23D-06
 ErrMax= 3.23D-06  0.00D+00 EMaxC= 1.00D-01 BMatC= 3.21D-09 BMatP= 1.55D-08
 IDIUse=1 WtCom= 1.00D+00 WtEn= 0.00D+00
 Coeff-Com: -0.752D-04 0.914D-04-0.368D-03-0.703D-03 0.294D-02 0.231D-01
 Coeff-Com:  0.189D-01-0.466D-01-0.134D+00-0.228D+00 0.365D+00 0.100D+01
 Coeff:     -0.752D-04 0.914D-04-0.368D-03-0.703D-03 0.294D-02 0.231D-01
 Coeff:      0.189D-01-0.466D-01-0.134D+00-0.228D+00 0.365D+00 0.100D+01
 Gap=     0.041 Goal=   None    Shift=    0.000
 Gap=     0.055 Goal=   None    Shift=    0.000
 RMSDP=1.62D-05 MaxDP=1.36D-03 DE=-2.66D-07 OVMax= 7.56D-04

 Cycle  13  Pass 1  IDiag  1:
 E= -1136.12429463755     Delta-E=       -0.000000037880 Rises=F Damp=F
 DIIS: error= 1.19D-06 at cycle  13 NSaved=  13.
 NSaved=13 IEnMin=13 EnMin= -1136.12429463755     IErMin=13 ErrMin= 1.19D-06
 ErrMax= 1.19D-06  0.00D+00 EMaxC= 1.00D-01 BMatC= 6.08D-10 BMatP= 3.21D-09
 IDIUse=1 WtCom= 1.00D+00 WtEn= 0.00D+00
 Coeff-Com:  0.246D-04-0.340D-04-0.426D-03-0.105D-03-0.839D-03-0.455D-02
 Coeff-Com:  0.633D-02 0.637D-01 0.419D-01-0.892D-01-0.269D+00 0.244D+00
 Coeff-Com:  0.101D+01
 Coeff:      0.246D-04-0.340D-04-0.426D-03-0.105D-03-0.839D-03-0.455D-02
 Coeff:      0.633D-02 0.637D-01 0.419D-01-0.892D-01-0.269D+00 0.244D+00
 Coeff:      0.101D+01
 Gap=     0.041 Goal=   None    Shift=    0.000
 Gap=     0.055 Goal=   None    Shift=    0.000
 RMSDP=6.97D-06 MaxDP=6.80D-04 DE=-3.79D-08 OVMax= 2.68D-04

 Cycle  14  Pass 1  IDiag  1:
 E= -1136.12429464226     Delta-E=       -0.000000004710 Rises=F Damp=F
 DIIS: error= 4.42D-07 at cycle  14 NSaved=  14.
 NSaved=14 IEnMin=14 EnMin= -1136.12429464226     IErMin=14 ErrMin= 4.42D-07
 ErrMax= 4.42D-07  0.00D+00 EMaxC= 1.00D-01 BMatC= 6.21D-11 BMatP= 6.08D-10
 IDIUse=1 WtCom= 1.00D+00 WtEn= 0.00D+00
 Coeff-Com:  0.118D-04-0.144D-04 0.413D-04 0.753D-04-0.435D-03-0.253D-02
 Coeff-Com: -0.316D-02-0.280D-02 0.109D-01 0.471D-01-0.199D-01-0.162D+00
 Coeff-Com: -0.952D-01 0.123D+01
 Coeff:      0.118D-04-0.144D-04 0.413D-04 0.753D-04-0.435D-03-0.253D-02
 Coeff:     -0.316D-02-0.280D-02 0.109D-01 0.471D-01-0.199D-01-0.162D+00
 Coeff:     -0.952D-01 0.123D+01
 Gap=     0.041 Goal=   None    Shift=    0.000
 Gap=     0.055 Goal=   None    Shift=    0.000
 RMSDP=2.56D-06 MaxDP=1.81D-04 DE=-4.71D-09 OVMax= 5.69D-05

 Cycle  15  Pass 1  IDiag  1:
 E= -1136.12429464279     Delta-E=       -0.000000000529 Rises=F Damp=F
 DIIS: error= 2.11D-07 at cycle  15 NSaved=  15.
 NSaved=15 IEnMin=15 EnMin= -1136.12429464279     IErMin=15 ErrMin= 2.11D-07
 ErrMax= 2.11D-07  0.00D+00 EMaxC= 1.00D-01 BMatC= 1.21D-11 BMatP= 6.21D-11
 IDIUse=1 WtCom= 1.00D+00 WtEn= 0.00D+00
 Coeff-Com: -0.758D-05 0.102D-04 0.688D-04-0.502D-05 0.237D-03 0.146D-02
 Coeff-Com: -0.405D-04-0.995D-02-0.123D-01 0.436D-02 0.572D-01-0.116D-01
 Coeff-Com: -0.176D+00-0.160D+00 0.131D+01
 Coeff:     -0.758D-05 0.102D-04 0.688D-04-0.502D-05 0.237D-03 0.146D-02
 Coeff:     -0.405D-04-0.995D-02-0.123D-01 0.436D-02 0.572D-01-0.116D-01
 Coeff:     -0.176D+00-0.160D+00 0.131D+01
 Gap=     0.041 Goal=   None    Shift=    0.000
 Gap=     0.055 Goal=   None    Shift=    0.000
 RMSDP=1.11D-06 MaxDP=6.64D-05 DE=-5.29D-10 OVMax= 3.14D-05

 Cycle  16  Pass 1  IDiag  1:
 E= -1136.12429464291     Delta-E=       -0.000000000129 Rises=F Damp=F
 DIIS: error= 8.99D-08 at cycle  16 NSaved=  16.
 NSaved=16 IEnMin=16 EnMin= -1136.12429464291     IErMin=16 ErrMin= 8.99D-08
 ErrMax= 8.99D-08  0.00D+00 EMaxC= 1.00D-01 BMatC= 2.65D-12 BMatP= 1.21D-11
 IDIUse=1 WtCom= 1.00D+00 WtEn= 0.00D+00
 Coeff-Com: -0.198D-05 0.236D-05 0.267D-05-0.168D-04 0.126D-03 0.612D-03
 Coeff-Com:  0.662D-03-0.173D-03-0.303D-02-0.969D-02 0.806D-02 0.356D-01
 Coeff-Com: -0.198D-03-0.253D+00 0.119D+00 0.110D+01
 Coeff:     -0.198D-05 0.236D-05 0.267D-05-0.168D-04 0.126D-03 0.612D-03
 Coeff:      0.662D-03-0.173D-03-0.303D-02-0.969D-02 0.806D-02 0.356D-01
 Coeff:     -0.198D-03-0.253D+00 0.119D+00 0.110D+01
 Gap=     0.041 Goal=   None    Shift=    0.000
 Gap=     0.055 Goal=   None    Shift=    0.000
 RMSDP=4.38D-07 MaxDP=2.15D-05 DE=-1.29D-10 OVMax= 1.38D-05

 Cycle  17  Pass 1  IDiag  1:
 E= -1136.12429464294     Delta-E=       -0.000000000027 Rises=F Damp=F
 DIIS: error= 4.47D-08 at cycle  17 NSaved=  17.
 NSaved=17 IEnMin=17 EnMin= -1136.12429464294     IErMin=17 ErrMin= 4.47D-08
 ErrMax= 4.47D-08  0.00D+00 EMaxC= 1.00D-01 BMatC= 4.72D-13 BMatP= 2.65D-12
 IDIUse=1 WtCom= 1.00D+00 WtEn= 0.00D+00
 Coeff-Com:  0.116D-05-0.158D-05-0.135D-04-0.130D-05-0.305D-04-0.162D-03
 Coeff-Com:  0.227D-04 0.139D-02 0.210D-02-0.100D-02-0.948D-02 0.313D-02
 Coeff-Com:  0.377D-01-0.264D-02-0.246D+00 0.139D+00 0.108D+01
 Coeff:      0.116D-05-0.158D-05-0.135D-04-0.130D-05-0.305D-04-0.162D-03
 Coeff:      0.227D-04 0.139D-02 0.210D-02-0.100D-02-0.948D-02 0.313D-02
 Coeff:      0.377D-01-0.264D-02-0.246D+00 0.139D+00 0.108D+01
 Gap=     0.041 Goal=   None    Shift=    0.000
 Gap=     0.055 Goal=   None    Shift=    0.000
 RMSDP=1.61D-07 MaxDP=9.57D-06 DE=-2.68D-11 OVMax= 5.99D-06

 Cycle  18  Pass 1  IDiag  1:
 E= -1136.12429464293     Delta-E=        0.000000000014 Rises=F Damp=F
 DIIS: error= 1.27D-08 at cycle  18 NSaved=  18.
 NSaved=18 IEnMin=17 EnMin= -1136.12429464294     IErMin=18 ErrMin= 1.27D-08
 ErrMax= 1.27D-08  0.00D+00 EMaxC= 1.00D-01 BMatC= 7.73D-14 BMatP= 4.72D-13
 IDIUse=1 WtCom= 1.00D+00 WtEn= 0.00D+00
 Coeff-Com:  0.297D-06-0.379D-06-0.299D-05 0.224D-06-0.145D-04-0.565D-04
 Coeff-Com: -0.686D-04 0.130D-03 0.400D-03 0.924D-03-0.148D-02-0.350D-02
 Coeff-Com:  0.329D-02 0.281D-01-0.381D-01-0.128D+00 0.130D+00 0.101D+01
 Coeff:      0.297D-06-0.379D-06-0.299D-05 0.224D-06-0.145D-04-0.565D-04
 Coeff:     -0.686D-04 0.130D-03 0.400D-03 0.924D-03-0.148D-02-0.350D-02
 Coeff:      0.329D-02 0.281D-01-0.381D-01-0.128D+00 0.130D+00 0.101D+01
 Gap=     0.041 Goal=   None    Shift=    0.000
 Gap=     0.055 Goal=   None    Shift=    0.000
 RMSDP=4.25D-08 MaxDP=2.79D-06 DE= 1.41D-11 OVMax= 1.74D-06

 Cycle  19  Pass 1  IDiag  1:
 E= -1136.12429464294     Delta-E=       -0.000000000012 Rises=F Damp=F
 DIIS: error= 8.52D-09 at cycle  19 NSaved=  19.
 NSaved=19 IEnMin=17 EnMin= -1136.12429464294     IErMin=19 ErrMin= 8.52D-09
 ErrMax= 8.52D-09  0.00D+00 EMaxC= 1.00D-01 BMatC= 2.07D-14 BMatP= 7.73D-14
 IDIUse=1 WtCom= 1.00D+00 WtEn= 0.00D+00
 Coeff-Com: -0.907D-07 0.137D-06 0.194D-05 0.441D-06 0.128D-05 0.107D-04
 Coeff-Com: -0.570D-05-0.168D-03-0.283D-03 0.246D-03 0.126D-02-0.556D-03
 Coeff-Com: -0.789D-02 0.768D-02 0.455D-01-0.520D-01-0.243D+00 0.120D+00
 Coeff-Com:  0.113D+01
 Coeff:     -0.907D-07 0.137D-06 0.194D-05 0.441D-06 0.128D-05 0.107D-04
 Coeff:     -0.570D-05-0.168D-03-0.283D-03 0.246D-03 0.126D-02-0.556D-03
 Coeff:     -0.789D-02 0.768D-02 0.455D-01-0.520D-01-0.243D+00 0.120D+00
 Coeff:      0.113D+01
 Gap=     0.041 Goal=   None    Shift=    0.000
 Gap=     0.055 Goal=   None    Shift=    0.000
 RMSDP=3.66D-08 MaxDP=3.22D-06 DE=-1.18D-11 OVMax= 8.80D-07

 Cycle  20  Pass 1  IDiag  1:
 E= -1136.12429464293     Delta-E=        0.000000000004 Rises=F Damp=F
 DIIS: error= 3.95D-09 at cycle  20 NSaved=  20.
 NSaved=20 IEnMin=17 EnMin= -1136.12429464294     IErMin=20 ErrMin= 3.95D-09
 ErrMax= 3.95D-09  0.00D+00 EMaxC= 1.00D-01 BMatC= 3.35D-15 BMatP= 2.07D-14
 IDIUse=1 WtCom= 1.00D+00 WtEn= 0.00D+00
 Large coefficients: NSaved= 20 BigCof=    0.00 CofMax=   10.00 Det=-4.40D-15
 Inversion failed.  Reducing to 19 matrices.
 Large coefficients: NSaved= 19 BigCof=    0.00 CofMax=   10.00 Det=-4.41D-15
 Inversion failed.  Reducing to 18 matrices.
 Large coefficients: NSaved= 18 BigCof=    0.00 CofMax=   10.00 Det=-4.42D-15
 Inversion failed.  Reducing to 17 matrices.
 Large coefficients: NSaved= 17 BigCof=    0.00 CofMax=   10.00 Det=-4.45D-15
 Inversion failed.  Reducing to 16 matrices.
 Large coefficients: NSaved= 16 BigCof=    0.00 CofMax=   10.00 Det=-5.00D-15
 Inversion failed.  Reducing to 15 matrices.
 Coeff-Com: -0.569D-05 0.189D-04 0.436D-04 0.195D-04-0.146D-03-0.118D-03
 Coeff-Com:  0.328D-03 0.121D-02-0.606D-02 0.135D-02 0.310D-01 0.145D-02
 Coeff-Com: -0.202D+00-0.152D+00 0.133D+01
 Coeff:     -0.569D-05 0.189D-04 0.436D-04 0.195D-04-0.146D-03-0.118D-03
 Coeff:      0.328D-03 0.121D-02-0.606D-02 0.135D-02 0.310D-01 0.145D-02
 Coeff:     -0.202D+00-0.152D+00 0.133D+01
 Gap=     0.041 Goal=   None    Shift=    0.000
 Gap=     0.055 Goal=   None    Shift=    0.000
 RMSDP=2.23D-08 MaxDP=2.43D-06 DE= 4.09D-12 OVMax= 3.98D-07

 Cycle  21  Pass 1  IDiag  1:
 E= -1136.12429464293     Delta-E=        0.000000000003 Rises=F Damp=F
 DIIS: error= 1.49D-09 at cycle  21 NSaved=  16.
 NSaved=16 IEnMin=12 EnMin= -1136.12429464294     IErMin=16 ErrMin= 1.49D-09
 ErrMax= 1.49D-09  0.00D+00 EMaxC= 1.00D-01 BMatC= 5.10D-16 BMatP= 3.35D-15
 IDIUse=1 WtCom= 1.00D+00 WtEn= 0.00D+00
 Large coefficients: NSaved= 16 BigCof=    0.00 CofMax=   10.00 Det=-6.18D-16
 Inversion failed.  Reducing to 15 matrices.
 Coeff-Com: -0.398D-05 0.170D-04 0.177D-04-0.246D-04-0.114D-03 0.530D-04
 Coeff-Com:  0.961D-03-0.633D-03-0.690D-02 0.665D-02 0.348D-01-0.111D-01
 Coeff-Com: -0.160D+00-0.345D-01 0.117D+01
 Coeff:     -0.398D-05 0.170D-04 0.177D-04-0.246D-04-0.114D-03 0.530D-04
 Coeff:      0.961D-03-0.633D-03-0.690D-02 0.665D-02 0.348D-01-0.111D-01
 Coeff:     -0.160D+00-0.345D-01 0.117D+01
 Gap=     0.041 Goal=   None    Shift=    0.000
 Gap=     0.055 Goal=   None    Shift=    0.000
 RMSDP=8.58D-09 MaxDP=1.08D-06 DE= 3.18D-12 OVMax= 1.24D-07

 Cycle  22  Pass 1  IDiag  1:
 E= -1136.12429464293     Delta-E=       -0.000000000003 Rises=F Damp=F
 DIIS: error= 4.38D-10 at cycle  22 NSaved=  16.
 NSaved=16 IEnMin=11 EnMin= -1136.12429464294     IErMin=16 ErrMin= 4.38D-10
 ErrMax= 4.38D-10  0.00D+00 EMaxC= 1.00D-01 BMatC= 7.80D-17 BMatP= 5.10D-16
 IDIUse=1 WtCom= 1.00D+00 WtEn= 0.00D+00
 Large coefficients: NSaved= 16 BigCof=    0.00 CofMax=   10.00 Det=-1.45D-16
 Inversion failed.  Reducing to 15 matrices.
 Coeff-Com:  0.686D-05-0.182D-05-0.179D-04-0.439D-05 0.567D-04 0.968D-05
 Coeff-Com:  0.109D-03-0.883D-03-0.706D-03 0.479D-02 0.114D-01-0.613D-02
 Coeff-Com: -0.138D+00 0.246D+00 0.883D+00
 Coeff:      0.686D-05-0.182D-05-0.179D-04-0.439D-05 0.567D-04 0.968D-05
 Coeff:      0.109D-03-0.883D-03-0.706D-03 0.479D-02 0.114D-01-0.613D-02
 Coeff:     -0.138D+00 0.246D+00 0.883D+00
 Gap=     0.041 Goal=   None    Shift=    0.000
 Gap=     0.055 Goal=   None    Shift=    0.000
 RMSDP=4.66D-09 MaxDP=4.42D-07 DE=-3.18D-12 OVMax= 2.94D-08

 SCF Done:  E(UB3LYP) =  -1136.12429464     A.U. after   22 cycles
            NFock= 22  Conv=0.47D-08     -V/T= 2.0028
 <Sx>= 0.0000 <Sy>= 0.0000 <Sz>= 0.5000 <S**2>= 0.7624 S= 0.5062
 <L.S>= 0.000000000000E+00
 KE= 1.132965059033D+03 PE=-3.394665380013D+03 EE= 7.929431622266D+02
 Annihilation of the first spin contaminant:
 S**2 before annihilation     0.7624,   after     0.7501
 Leave Link  502 at Wed Nov 29 16:09:55 2023, MaxMem=  1879048192 cpu:             204.3 elap:              18.5
 (Enter /home/sekinelabo/g16/l601.exe)
 Copying SCF densities to generalized density rwf, IOpCl= 1 IROHF=0.

 **********************************************************************

            Population analysis using the SCF Density.

 **********************************************************************

 Orbital symmetries:
 Alpha Orbitals:
       Occupied  (A) (A) (A) (A) (A) (A) (A) (A) (A) (A) (A) (A)
                 (A) (A) (A) (A) (A) (A) (A) (A) (A) (A) (A) (A)
                 (A) (A) (A) (A) (A) (A) (A) (A) (A) (A) (A) (A)
                 (A) (A) (A)
       Virtual   (A) (A) (A) (A) (A) (A) (A) (A) (A) (A) (A) (A)
                 (A) (A) (A) (A) (A) (A) (A) (A) (A) (A) (A) (A)
                 (A) (A) (A) (A) (A) (A) (A) (A) (A) (A) (A) (A)
                 (A) (A) (A) (A) (A) (A) (A) (A) (A) (A) (A) (A)
                 (A) (A) (A) (A) (A) (A) (A) (A) (A) (A) (A) (A)
                 (A) (A) (A) (A) (A) (A) (A) (A) (A) (A) (A) (A)
                 (A) (A) (A) (A) (A) (A) (A) (A) (A) (A) (A) (A)
                 (A) (A) (A) (A) (A) (A) (A) (A) (A) (A) (A) (A)
                 (A) (A) (A) (A) (A) (A) (A) (A) (A) (A) (A) (A)
                 (A) (A) (A) (A) (A) (A) (A) (A) (A) (A) (A) (A)
                 (A) (A) (A) (A) (A) (A) (A) (A) (A) (A) (A) (A)
                 (A) (A) (A) (A) (A) (A) (A) (A) (A) (A) (A) (A)
                 (A) (A) (A) (A) (A) (A) (A) (A) (A) (A) (A) (A)
                 (A) (A) (A) (A) (A) (A) (A) (A) (A) (A) (A) (A)
                 (A) (A) (A)
 Beta  Orbitals:
       Occupied  (A) (A) (A) (A) (A) (A) (A) (A) (A) (A) (A) (A)
                 (A) (A) (A) (A) (A) (A) (A) (A) (A) (A) (A) (A)
                 (A) (A) (A) (A) (A) (A) (A) (A) (A) (A) (A) (A)
                 (A) (A)
       Virtual   (A) (A) (A) (A) (A) (A) (A) (A) (A) (A) (A) (A)
                 (A) (A) (A) (A) (A) (A) (A) (A) (A) (A) (A) (A)
                 (A) (A) (A) (A) (A) (A) (A) (A) (A) (A) (A) (A)
                 (A) (A) (A) (A) (A) (A) (A) (A) (A) (A) (A) (A)
                 (A) (A) (A) (A) (A) (A) (A) (A) (A) (A) (A) (A)
                 (A) (A) (A) (A) (A) (A) (A) (A) (A) (A) (A) (A)
                 (A) (A) (A) (A) (A) (A) (A) (A) (A) (A) (A) (A)
                 (A) (A) (A) (A) (A) (A) (A) (A) (A) (A) (A) (A)
                 (A) (A) (A) (A) (A) (A) (A) (A) (A) (A) (A) (A)
                 (A) (A) (A) (A) (A) (A) (A) (A) (A) (A) (A) (A)
                 (A) (A) (A) (A) (A) (A) (A) (A) (A) (A) (A) (A)
                 (A) (A) (A) (A) (A) (A) (A) (A) (A) (A) (A) (A)
                 (A) (A) (A) (A) (A) (A) (A) (A) (A) (A) (A) (A)
                 (A) (A) (A) (A) (A) (A) (A) (A) (A) (A) (A) (A)
                 (A) (A) (A) (A)
 The electronic state is 2-A.
 Alpha  occ. eigenvalues --  -38.44696 -38.44425 -38.44158 -38.43787 -38.43640
 Alpha  occ. eigenvalues --  -38.43020 -38.42989  -2.20479  -2.20234  -2.20072
 Alpha  occ. eigenvalues --   -2.19709  -2.19510  -2.19067  -2.18841  -1.14156
 Alpha  occ. eigenvalues --   -1.14144  -1.14113  -1.13922  -1.13908  -1.13846
 Alpha  occ. eigenvalues --   -1.13747  -1.13727  -1.13717  -1.13495  -1.13353
 Alpha  occ. eigenvalues --   -1.13317  -1.13155  -1.13128  -1.13125  -1.12743
 Alpha  occ. eigenvalues --   -1.12735  -1.12691  -1.12522  -1.12502  -1.12480
 Alpha  occ. eigenvalues --   -0.18410  -0.13802  -0.12111  -0.10464
 Alpha virt. eigenvalues --   -0.06372  -0.05693  -0.04309  -0.03292  -0.02424
 Alpha virt. eigenvalues --   -0.02261  -0.01927  -0.01298  -0.00734  -0.00374
 Alpha virt. eigenvalues --   -0.00155   0.00278   0.00616   0.00714   0.00752
 Alpha virt. eigenvalues --    0.00865   0.00894   0.01169   0.01201   0.01288
 Alpha virt. eigenvalues --    0.01530   0.01632   0.01681   0.01838   0.02111
 Alpha virt. eigenvalues --    0.02130   0.02243   0.02448   0.02540   0.02712
 Alpha virt. eigenvalues --    0.02843   0.02888   0.02999   0.03080   0.03178
 Alpha virt. eigenvalues --    0.03236   0.03344   0.03389   0.03506   0.03669
 Alpha virt. eigenvalues --    0.03820   0.03960   0.04357   0.04388   0.04762
 Alpha virt. eigenvalues --    0.04883   0.05090   0.05143   0.05587   0.05966
 Alpha virt. eigenvalues --    0.06250   0.06558   0.06891   0.07065   0.07171
 Alpha virt. eigenvalues --    0.07670   0.07824   0.08147   0.08238   0.08887
 Alpha virt. eigenvalues --    0.09210   0.09681   0.10118   0.10594   0.11013
 Alpha virt. eigenvalues --    0.11538   0.12162   0.12396   0.12802   0.13173
 Alpha virt. eigenvalues --    0.13407   0.14046   0.14204   0.14361   0.14656
 Alpha virt. eigenvalues --    0.14827   0.15003   0.16209   0.17885   0.18098
 Alpha virt. eigenvalues --    0.25445   0.26320   0.27465   0.27971   0.29501
 Alpha virt. eigenvalues --    0.30077   0.30942   0.31339   0.32663   0.33112
 Alpha virt. eigenvalues --    0.34380   0.34931   0.36008   0.37284   0.38621
 Alpha virt. eigenvalues --    0.38872   0.39935   0.40644   0.41090   0.41473
 Alpha virt. eigenvalues --    0.42430   0.42860   0.43778   0.44070   0.44392
 Alpha virt. eigenvalues --    0.44903   0.45100   0.45235   0.45441   0.45530
 Alpha virt. eigenvalues --    0.46175   0.46797   0.47200   0.47617   0.48271
 Alpha virt. eigenvalues --    0.49046   0.49616   0.49917   0.50796   0.51482
 Alpha virt. eigenvalues --    0.51967   0.52969   0.54013   0.55263   0.55932
 Alpha virt. eigenvalues --    0.56837   0.57773   0.58785   0.59667   0.61819
 Alpha virt. eigenvalues --    0.61875   0.63563   0.65133   0.67878   0.68851
 Alpha virt. eigenvalues --    0.80020   2.05000   2.10104   2.14815   2.19175
 Alpha virt. eigenvalues --    2.20199   2.23156   2.28030   4.42678   4.43010
 Alpha virt. eigenvalues --    4.44032   4.44302   4.44573   4.45268   4.45599
 Alpha virt. eigenvalues --    4.45853   4.46510   4.46963   4.48003   4.48270
 Alpha virt. eigenvalues --    4.49409   4.51238   4.53141   4.54242   4.56231
 Alpha virt. eigenvalues --    4.57760   4.59606   4.60629   4.74335  96.24675
 Alpha virt. eigenvalues --   96.31214  96.36618  96.41675  96.43464  96.47660
 Alpha virt. eigenvalues --   96.53187
  Beta  occ. eigenvalues --  -38.44702 -38.44426 -38.44123 -38.43770 -38.43533
  Beta  occ. eigenvalues --  -38.42992 -38.42984  -2.20490  -2.20236  -2.20012
  Beta  occ. eigenvalues --   -2.19682  -2.19312  -2.19020  -2.18835  -1.14162
  Beta  occ. eigenvalues --   -1.14150  -1.14120  -1.13922  -1.13906  -1.13851
  Beta  occ. eigenvalues --   -1.13708  -1.13682  -1.13649  -1.13475  -1.13308
  Beta  occ. eigenvalues --   -1.13285  -1.13018  -1.13000  -1.12986  -1.12717
  Beta  occ. eigenvalues --   -1.12690  -1.12642  -1.12516  -1.12487  -1.12471
  Beta  occ. eigenvalues --   -0.17750  -0.13598  -0.11934
  Beta virt. eigenvalues --   -0.06436  -0.06277  -0.05526  -0.04282  -0.02770
  Beta virt. eigenvalues --   -0.01939  -0.01759  -0.01261  -0.01149  -0.00741
  Beta virt. eigenvalues --   -0.00334   0.00166   0.00364   0.00719   0.00786
  Beta virt. eigenvalues --    0.00813   0.00906   0.01114   0.01245   0.01346
  Beta virt. eigenvalues --    0.01392   0.01651   0.01765   0.01846   0.01923
  Beta virt. eigenvalues --    0.02137   0.02158   0.02400   0.02464   0.02552
  Beta virt. eigenvalues --    0.02846   0.02880   0.03003   0.03050   0.03139
  Beta virt. eigenvalues --    0.03196   0.03306   0.03402   0.03459   0.03578
  Beta virt. eigenvalues --    0.03813   0.03984   0.04200   0.04426   0.04525
  Beta virt. eigenvalues --    0.04833   0.04995   0.05265   0.05288   0.05803
  Beta virt. eigenvalues --    0.06234   0.06394   0.06583   0.07007   0.07116
  Beta virt. eigenvalues --    0.07187   0.07867   0.07929   0.08320   0.08443
  Beta virt. eigenvalues --    0.08984   0.09325   0.09757   0.10388   0.11028
  Beta virt. eigenvalues --    0.11309   0.11642   0.12389   0.12776   0.13032
  Beta virt. eigenvalues --    0.13334   0.13696   0.14219   0.14381   0.14462
  Beta virt. eigenvalues --    0.14799   0.15074   0.15373   0.16423   0.18069
  Beta virt. eigenvalues --    0.18398   0.25774   0.26581   0.27648   0.28325
  Beta virt. eigenvalues --    0.29753   0.30131   0.31277   0.31731   0.32924
  Beta virt. eigenvalues --    0.33190   0.34586   0.35136   0.36506   0.37472
  Beta virt. eigenvalues --    0.38824   0.39393   0.40145   0.40822   0.41374
  Beta virt. eigenvalues --    0.41736   0.42635   0.43206   0.43815   0.44248
  Beta virt. eigenvalues --    0.44597   0.45133   0.45188   0.45417   0.45524
  Beta virt. eigenvalues --    0.45688   0.46362   0.46960   0.47342   0.47857
  Beta virt. eigenvalues --    0.48343   0.49123   0.49718   0.50193   0.51100
  Beta virt. eigenvalues --    0.51585   0.52108   0.53229   0.54105   0.55534
  Beta virt. eigenvalues --    0.56058   0.56910   0.58020   0.58830   0.59875
  Beta virt. eigenvalues --    0.61941   0.62029   0.63826   0.65236   0.67974
  Beta virt. eigenvalues --    0.68942   0.80100   2.05105   2.10234   2.14840
  Beta virt. eigenvalues --    2.19238   2.20447   2.23229   2.28144   4.42757
  Beta virt. eigenvalues --    4.43053   4.44070   4.44369   4.44644   4.45294
  Beta virt. eigenvalues --    4.45635   4.45856   4.46524   4.46995   4.48034
  Beta virt. eigenvalues --    4.48373   4.49499   4.51244   4.53175   4.54311
  Beta virt. eigenvalues --    4.56300   4.57813   4.59637   4.60661   4.74368
  Beta virt. eigenvalues --   96.24708  96.31258  96.36625  96.41703  96.43535
  Beta virt. eigenvalues --   96.47690  96.53219
          Condensed to atoms (all electrons):
               1          2          3          4          5          6
     1  Na  13.949540   0.181187  -0.503045  -0.076295  -0.892078  -0.470355
     2  Na   0.181187  12.420459  -1.150504   0.061917  -0.253975   0.327062
     3  Na  -0.503045  -1.150504  14.785256  -0.087642  -0.604316  -1.984460
     4  Na  -0.076295   0.061917  -0.087642  10.509134   0.051844   0.241070
     5  Na  -0.892078  -0.253975  -0.604316   0.051844  12.261890   0.177555
     6  Na  -0.470355   0.327062  -1.984460   0.241070   0.177555  12.048031
     7  Na   0.217631   0.204527  -0.424756   0.114148  -0.156570   0.204038
               7
     1  Na   0.217631
     2  Na   0.204527
     3  Na  -0.424756
     4  Na   0.114148
     5  Na  -0.156570
     6  Na   0.204038
     7  Na  10.671724
          Atomic-Atomic Spin Densities.
               1          2          3          4          5          6
     1  Na  -0.098883  -0.127470  -0.065320   0.035317   0.527364   0.121149
     2  Na  -0.127470   1.214739   0.053432  -0.058568  -0.292814  -0.290915
     3  Na  -0.065320   0.053432  -0.385320   0.071959   0.222559   0.244176
     4  Na   0.035317  -0.058568   0.071959  -0.031243  -0.008954  -0.039381
     5  Na   0.527364  -0.292814   0.222559  -0.008954  -0.494112   0.074865
     6  Na   0.121149  -0.290915   0.244176  -0.039381   0.074865  -0.154671
     7  Na  -0.149411   0.082693  -0.005021  -0.014410   0.098090  -0.025747
               7
     1  Na  -0.149411
     2  Na   0.082693
     3  Na  -0.005021
     4  Na  -0.014410
     5  Na   0.098090
     6  Na  -0.025747
     7  Na   0.042303
 Mulliken charges and spin densities:
               1          2
     1  Na  -1.406585   0.242747
     2  Na  -0.790673   0.581097
     3  Na   0.969468   0.136466
     4  Na   0.185823  -0.045280
     5  Na   0.415651   0.126998
     6  Na   0.457059  -0.070524
     7  Na   0.169257   0.028497
 Sum of Mulliken charges =  -0.00000   1.00000
 Mulliken charges and spin densities with hydrogens summed into heavy atoms:
               1          2
     1  Na  -1.406585   0.242747
     2  Na  -0.790673   0.581097
     3  Na   0.969468   0.136466
     4  Na   0.185823  -0.045280
     5  Na   0.415651   0.126998
     6  Na   0.457059  -0.070524
     7  Na   0.169257   0.028497
 Electronic spatial extent (au):  <R**2>=           2514.9590
 Charge=              0.0000 electrons
 Dipole moment (field-independent basis, Debye):
    X=             -0.8846    Y=             -0.1863    Z=              0.0470  Tot=              0.9052
 Quadrupole moment (field-independent basis, Debye-Ang):
   XX=            -53.0201   YY=            -64.4275   ZZ=            -75.3007
   XY=              0.9875   XZ=             -4.6098   YZ=              0.3414
 Traceless Quadrupole moment (field-independent basis, Debye-Ang):
   XX=             11.2293   YY=             -0.1780   ZZ=            -11.0513
   XY=              0.9875   XZ=             -4.6098   YZ=              0.3414
 Octapole moment (field-independent basis, Debye-Ang**2):
  XXX=            -30.9687  YYY=             -9.6484  ZZZ=              0.9677  XYY=            -16.6299
  XXY=             -2.8048  XXZ=             -8.7905  XZZ=              0.6070  YZZ=              1.5244
  YYZ=             -1.0630  XYZ=              1.7554
 Hexadecapole moment (field-independent basis, Debye-Ang**3):
 XXXX=          -1890.0751 YYYY=          -1430.0348 ZZZZ=           -780.7204 XXXY=             55.5593
 XXXZ=           -102.3753 YYYX=            -11.5925 YYYZ=             19.1802 ZZZX=            -16.0931
 ZZZY=             -3.9814 XXYY=           -498.5506 XXZZ=           -484.5429 YYZZ=           -405.0113
 XXYZ=             -9.1834 YYXZ=            -28.4346 ZZXY=              4.8275
 N-N= 3.326328641108D+02 E-N=-3.394665379997D+03  KE= 1.132965059033D+03
                          Isotropic Fermi Contact Couplings
        Atom                 a.u.       MegaHertz       Gauss      10(-4) cm-1
     1  Na(23)             0.07271      86.02169      30.69468      28.69375
     2  Na(23)             0.45779     541.57793     193.24847     180.65095
     3  Na(23)             0.09734     115.15661      41.09074      38.41211
     4  Na(23)            -0.00446      -5.27596      -1.88259      -1.75987
     5  Na(23)             0.00849      10.04788       3.58533       3.35161
     6  Na(23)            -0.03006     -35.56754     -12.69138     -11.86405
     7  Na(23)            -0.00875     -10.35183      -3.69379      -3.45300
 --------------------------------------------------------
       Center         ----  Spin Dipole Couplings  ----
                      3XX-RR        3YY-RR        3ZZ-RR
 --------------------------------------------------------
     1   Atom       -0.007180     -0.016481      0.023662
     2   Atom       -0.000380      0.006401     -0.006020
     3   Atom       -0.006624     -0.014082      0.020706
     4   Atom       -0.001870     -0.002927      0.004797
     5   Atom       -0.024224     -0.023256      0.047481
     6   Atom       -0.000379     -0.001542      0.001920
     7   Atom       -0.013601     -0.009341      0.022942
 --------------------------------------------------------
                        XY            XZ            YZ
 --------------------------------------------------------
     1   Atom       -0.002039     -0.026309      0.005676
     2   Atom       -0.000053     -0.000252     -0.000917
     3   Atom        0.001822      0.024650      0.007794
     4   Atom       -0.003588     -0.000442     -0.000257
     5   Atom       -0.004210      0.013770     -0.016485
     6   Atom        0.000905     -0.001509      0.001533
     7   Atom       -0.000954     -0.004664      0.003729
 --------------------------------------------------------


 ---------------------------------------------------------------------------------
              Anisotropic Spin Dipole Couplings in Principal Axis System
 ---------------------------------------------------------------------------------

       Atom             a.u.   MegaHertz   Gauss  10(-4) cm-1        Axes

              Baa    -0.0225    -3.172    -1.132    -1.058  0.8423 -0.1912  0.5040
     1 Na(23) Bbb    -0.0169    -2.388    -0.852    -0.796  0.2184  0.9758  0.0051
              Bcc     0.0394     5.559     1.984     1.854 -0.4928  0.1058  0.8637
 
              Baa    -0.0061    -0.861    -0.307    -0.287  0.0446  0.0733  0.9963
     2 Na(23) Bbb    -0.0004    -0.052    -0.019    -0.017  0.9990  0.0017 -0.0448
              Bcc     0.0065     0.913     0.326     0.305 -0.0050  0.9973 -0.0731
 
              Baa    -0.0220    -3.103    -1.107    -1.035  0.7909  0.3278 -0.5167
     3 Na(23) Bbb    -0.0144    -2.035    -0.726    -0.679 -0.3577  0.9328  0.0441
              Bcc     0.0364     5.138     1.833     1.714  0.4964  0.1500  0.8550
 
              Baa    -0.0060    -0.854    -0.305    -0.285  0.6537  0.7554  0.0446
     4 Na(23) Bbb     0.0012     0.172     0.061     0.057  0.7540 -0.6552  0.0462
              Bcc     0.0048     0.682     0.243     0.227 -0.0641 -0.0034  0.9979
 
              Baa    -0.0280    -3.954    -1.411    -1.319  0.6888  0.7242  0.0325
     5 Na(23) Bbb    -0.0258    -3.640    -1.299    -1.214  0.7020 -0.6551 -0.2794
              Bcc     0.0538     7.594     2.710     2.533  0.1810 -0.2153  0.9596
 
              Baa    -0.0029    -0.415    -0.148    -0.138 -0.5057  0.7652 -0.3985
     6 Na(23) Bbb     0.0000     0.004     0.001     0.001  0.7889  0.5971  0.1455
              Bcc     0.0029     0.411     0.147     0.137 -0.3493  0.2408  0.9056
 
              Baa    -0.0142    -2.011    -0.717    -0.671  0.9879  0.1062  0.1133
     7 Na(23) Bbb    -0.0097    -1.374    -0.490    -0.458 -0.0917  0.9878 -0.1259
              Bcc     0.0240     3.384     1.208     1.129 -0.1253  0.1139  0.9856
 

 ---------------------------------------------------------------------------------

 No NMR shielding tensors so no spin-rotation constants.
 Leave Link  601 at Wed Nov 29 16:09:55 2023, MaxMem=  1879048192 cpu:               2.3 elap:               0.2
 (Enter /home/sekinelabo/g16/l701.exe)
 ... and contract with generalized density number  0.
 Compute integral first derivatives.
 Leave Link  701 at Wed Nov 29 16:09:56 2023, MaxMem=  1879048192 cpu:               1.6 elap:               0.1
 (Enter /home/sekinelabo/g16/l702.exe)
 L702 exits ... SP integral derivatives will be done elsewhere.
 Leave Link  702 at Wed Nov 29 16:09:56 2023, MaxMem=  1879048192 cpu:               0.4 elap:               0.0
 (Enter /home/sekinelabo/g16/l703.exe)
 Integral derivatives from FoFJK, PRISM(SPDF).
 Compute integral first derivatives, UseDBF=F ICtDFT=           0.
 Calling FoFJK, ICntrl=      2127 FMM=F ISym2X=0 I1Cent= 0 IOpClX= 1 NMat=1 NMatS=1 NMatT=0.
 FoFJK:  IHMeth= 1 ICntrl=    2127 DoSepK=F KAlg= 0 I1Cent=           0 FoldK=F
 IRaf=         0 NMat=       1 IRICut=       1 DoRegI=T DoRafI=F ISym2E= 0 IDoP0=0 IntGTp=1.
 FoFCou: FMM=F IPFlag=           0 FMFlag=      100000 FMFlg1=         800
         NFxFlg=           0 DoJE=F BraDBF=F KetDBF=F FulRan=T
         wScrn=  0.000000 ICntrl=      2127 IOpCl=  1 I1Cent=           0 NGrid=           0
         NMat0=    1 NMatS0=      1 NMatT0=    0 NMatD0=    1 NMtDS0=    0 NMtDT0=    0
 Symmetry not used in FoFCou.
 Leave Link  703 at Wed Nov 29 16:09:58 2023, MaxMem=  1879048192 cpu:              33.1 elap:               2.2
 (Enter /home/sekinelabo/g16/l716.exe)
 Dipole        =-3.48022628D-01-7.32996163D-02 1.85061071D-02
 ***** Axes restored to original set *****
 -------------------------------------------------------------------
 Center     Atomic                   Forces (Hartrees/Bohr)
 Number     Number              X              Y              Z
 -------------------------------------------------------------------
      1       11          -0.000280969    0.006631376    0.000049803
      2       11           0.001188301    0.001076130    0.002104041
      3       11          -0.000415921    0.000280848   -0.002404852
      4       11           0.000253946   -0.001235274   -0.000024871
      5       11          -0.003460092   -0.008921573   -0.001245824
      6       11           0.001353220   -0.000233605   -0.000640900
      7       11           0.001361516    0.002402098    0.002162604
 -------------------------------------------------------------------
 Cartesian Forces:  Max     0.008921573 RMS     0.002814891
 Z-matrix is all fixed cartesians, so copy forces.
 Force constants in Cartesian coordinates: 
                1             2             3             4             5 
      1  0.201164D+00
      2 -0.580309D-02  0.189348D+00
      3  0.953536D-02 -0.805113D-02  0.180848D+00
      4 -0.177755D-01  0.779307D-02 -0.105673D-01  0.582184D-01
      5  0.412156D-02 -0.130321D-01  0.839299D-02 -0.694666D-02  0.542229D-01
      6  0.173915D-02 -0.849798D-03 -0.145850D-01  0.156082D-01 -0.140975D-01
      7 -0.335337D-01  0.114180D-02  0.147320D-01 -0.735480D-02  0.605469D-02
      8  0.639508D-02 -0.290882D-01 -0.542319D-02 -0.211026D-02 -0.949794D-02
      9 -0.126772D-01  0.797205D-02 -0.307652D-01  0.903075D-02 -0.658338D-03
     10 -0.403152D-01 -0.802103D-02 -0.848989D-02  0.166843D-02  0.286952D-02
     11  0.464381D-02 -0.289764D-01  0.590214D-02  0.260410D-02 -0.253851D-02
     12 -0.262811D-04 -0.425043D-02 -0.354653D-01 -0.579455D-03  0.156027D-02
     13 -0.480961D-01  0.165299D-01  0.603599D-02 -0.251417D-01 -0.170793D-01
     14 -0.166446D-01 -0.556931D-01 -0.281768D-02  0.944517D-02 -0.147907D-01
     15 -0.178077D-03  0.201739D-02 -0.392371D-01 -0.167358D-01 -0.753174D-02
     16 -0.277665D-01 -0.151689D-02 -0.128140D-01 -0.138834D-02 -0.580697D-03
     17 -0.812748D-03 -0.367449D-01  0.347957D-02  0.183610D-02  0.131837D-02
     18  0.586335D-02  0.604554D-02 -0.378615D-01 -0.109406D-02 -0.453745D-03
     19 -0.336768D-01 -0.101238D-01  0.156787D-02 -0.822640D-02  0.115609D-01
     20  0.809997D-02 -0.258136D-01 -0.148271D-02 -0.126215D-01 -0.156819D-01
     21 -0.425633D-02 -0.288362D-02 -0.229341D-01  0.433765D-02  0.127881D-01
                6             7             8             9            10 
      6  0.603618D-01
      7 -0.157335D-01  0.664549D-01
      8  0.154038D-01  0.102163D-01  0.685759D-01
      9 -0.289342D-01 -0.139186D-01  0.643431D-03  0.105546D+00
     10  0.339150D-02  0.852498D-02  0.313747D-02  0.247337D-02  0.513298D-01
     11 -0.513782D-02  0.327605D-02  0.247390D-02 -0.302005D-02  0.791855D-02
     12  0.265094D-02  0.153180D-02 -0.340968D-02 -0.297947D-03 -0.933025D-02
     13 -0.529978D-02 -0.178805D-01 -0.153500D-01 -0.986148D-03  0.715965D-02
     14  0.920307D-02 -0.680885D-02 -0.168485D-01 -0.703160D-02  0.354973D-03
     15 -0.144414D-01  0.185016D-01  0.157389D-01 -0.188291D-01 -0.888589D-05
     16  0.351942D-02  0.335583D-02 -0.147602D-02  0.399442D-02 -0.984448D-02
     17 -0.304526D-02 -0.244286D-03  0.692704D-02 -0.282820D-02 -0.128676D-01
     18  0.273998D-02  0.262499D-02 -0.111861D-02  0.310958D-02 -0.170983D-02
     19 -0.322503D-02 -0.195667D-01 -0.812604D-03  0.120834D-01 -0.185232D-01
     20 -0.147643D-02 -0.136357D-01 -0.225423D-01  0.492270D-02  0.660812D-02
     21 -0.779205D-02 -0.773832D-02 -0.218347D-01 -0.298290D-01  0.136740D-01
               11            12            13            14            15 
     11  0.624298D-01
     12  0.136667D-01  0.432147D-01
     13 -0.185673D-02  0.338619D-03  0.791059D-01
     14  0.169051D-02 -0.224341D-02  0.209661D-01  0.860572D-01
     15 -0.604042D-02  0.754944D-02  0.222338D-03  0.387746D-02  0.569924D-01
     16 -0.142357D-02  0.880274D-02  0.149418D-02  0.169952D-04  0.195162D-03
     17 -0.150700D-01  0.445416D-02  0.417776D-02  0.208315D-02 -0.624928D-02
     18 -0.907256D-02 -0.404607D-02  0.118745D-02  0.207834D-04  0.130809D-03
     19 -0.151622D-01 -0.737178D-03  0.335862D-02 -0.732984D-02 -0.199634D-02
     20 -0.200093D-01 -0.977763D-02 -0.738780D-02 -0.249860D-02 -0.181233D-02
     21  0.370200D-02 -0.136058D-01 -0.149847D-02 -0.100863D-02  0.783505D-02
               16            17            18            19            20 
     16  0.348726D-01
     17  0.734435D-02  0.362133D-01
     18 -0.884648D-02  0.154501D-02  0.312765D-01
     19 -0.723360D-03  0.566429D-03  0.197458D-02  0.773578D-01
     20 -0.236418D-02  0.527313D-02  0.303358D-02  0.213011D-01  0.812727D-01
     21  0.514879D-02  0.264399D-02  0.465070D-02 -0.966730D-02  0.659283D-02
               21 
     21  0.616752D-01
 Leave Link  716 at Wed Nov 29 16:09:58 2023, MaxMem=  1879048192 cpu:               0.4 elap:               0.0
 (Enter /home/sekinelabo/g16/l103.exe)

 GradGradGradGradGradGradGradGradGradGradGradGradGradGradGradGradGradGrad
 Berny optimization.
 Search for a local minimum.
 Step number   1 out of a maximum of    2
 All quantities printed in internal units (Hartrees-Bohrs-Radians)
 Second derivative matrix not updated -- first step.
 ITU=  0
     Eigenvalues ---    0.02922   0.03567   0.04648   0.05636   0.06197
     Eigenvalues ---    0.07167   0.08317   0.10105   0.10221   0.11536
     Eigenvalues ---    0.13121   0.14738   0.21330   0.23148   0.24903
 Angle between quadratic step and forces=  25.58 degrees.
 Linear search not attempted -- first point.
 B after Tr=     0.000000    0.000000   -0.000000
         Rot=    1.000000   -0.000000    0.000000    0.000000 Ang=   0.00 deg.
 Variable       Old X    -DE/DX   Delta X   Delta X   Delta X     New X
                                 (Linear)    (Quad)   (Total)
    X1       27.05578  -0.00028   0.00000  -0.01151  -0.01151  27.04426
    Y1       29.51318   0.00663   0.00000   0.02477   0.02477  29.53794
    Z1       28.47477   0.00005   0.00000   0.00063   0.00063  28.47540
    X2       32.75916   0.00119   0.00000   0.01150   0.01150  32.77066
    Y2       25.05682   0.00108   0.00000   0.00226   0.00226  25.05908
    Z2       29.95877   0.00210   0.00000   0.02514   0.02514  29.98391
    X3       31.56958  -0.00042   0.00000  -0.01254  -0.01254  31.55704
    Y3       27.87724   0.00028   0.00000   0.00863   0.00863  27.88587
    Z3       24.08078  -0.00240   0.00000  -0.02600  -0.02600  24.05478
    X4       28.14558   0.00025   0.00000   0.00763   0.00763  28.15321
    Y4       34.34577  -0.00124   0.00000   0.00146   0.00146  34.34723
    Z4       32.31791  -0.00002   0.00000   0.01146   0.01146  32.32937
    X5       27.31901  -0.00346   0.00000  -0.02834  -0.02834  27.29067
    Y5       24.30093  -0.00892   0.00000  -0.08441  -0.08441  24.21652
    Z5       26.91329  -0.00125   0.00000  -0.01704  -0.01704  26.89625
    X6       23.28086   0.00135   0.00000   0.02412   0.02412  23.30498
    Y6       29.49598  -0.00023   0.00000   0.01318   0.01318  29.50916
    Z6       33.28526  -0.00064   0.00000  -0.01973  -0.01973  33.26553
    X7       32.87500   0.00136   0.00000   0.00915   0.00915  32.88415
    Y7       32.41485   0.00240   0.00000   0.03411   0.03411  32.44896
    Z7       27.97399   0.00216   0.00000   0.02554   0.02554  27.99953
         Item               Value     Threshold  Converged?
 Maximum Force            0.008922     0.000450     NO 
 RMS     Force            0.002815     0.000300     NO 
 Maximum Displacement     0.084409     0.001800     NO 
 RMS     Displacement     0.025707     0.001200     NO 
 Predicted change in Energy=-6.853493D-04
 GradGradGradGradGradGradGradGradGradGradGradGradGradGradGradGradGradGrad

 Leave Link  103 at Wed Nov 29 16:09:58 2023, MaxMem=  1879048192 cpu:               0.2 elap:               0.0
 (Enter /home/sekinelabo/g16/l9999.exe)
 1\1\GINC-SEKINELABO-XA7R-R37\Force\UB3LYP\6-311+G(d)\Na7(2)\SEKINELABO
 \29-Nov-2023\0\\#P B3LYP/6-311+g(d) force\\DPGEN\\0,2\Na,14.3173,15.61
 77,15.0682\Na,17.3354,13.2595,15.8535\Na,16.7059,14.752,12.743\Na,14.8
 94,18.175,17.1019\Na,14.4566,12.8595,14.2419\Na,12.3197,15.6086,17.613
 8\Na,17.3967,17.1532,14.8032\\Version=ES64L-G16RevB.01\State=2-A\HF=-1
 136.1242946\S2=0.762384\S2-1=0.\S2A=0.75009\RMSD=4.658e-09\RMSF=2.815e
 -03\Dipole=-0.2409083,0.1186802,0.2339086\Quadrupole=-0.7065255,-0.759
 8118,1.4663373,0.5943551,-7.0256315,5.4440307\PG=C01 [X(Na7)]\\@


 YOU KNOW YOU'RE A TEACHER WHEN YOU SAY 2, WRITE 3, AND MEAN 4.
 -- RONALD ANSTROM, HIGH SCHOOL TEACHER, UNDERWOOD, N.D. 1974
 Job cpu time:       0 days  0 hours  4 minutes 14.1 seconds.
 Elapsed time:       0 days  0 hours  0 minutes 21.9 seconds.
 File lengths (MBytes):  RWF=     32 Int=      0 D2E=      0 Chk=      4 Scr=      1
 Normal termination of Gaussian 16 at Wed Nov 29 16:09:58 2023.
