 Set GAUSS_MDEF to "14GB".
 Entering Gaussian System, Link 0=g16
 Initial command:
 /home/sekinelabo/g16/l1.exe "/home/sekinelabo/g16temp/Gau-306523.inp" -scrdir="/home/sekinelabo/g16temp/"
 Entering Link 1 = /home/sekinelabo/g16/l1.exe PID=    306525.
  
 Copyright (c) 1988-2017, Gaussian, Inc.  All Rights Reserved.
  
 This is part of the Gaussian(R) 16 program.  It is based on
 the Gaussian(R) 09 system (copyright 2009, Gaussian, Inc.),
 the Gaussian(R) 03 system (copyright 2003, Gaussian, Inc.),
 the Gaussian(R) 98 system (copyright 1998, Gaussian, Inc.),
 the Gaussian(R) 94 system (copyright 1995, Gaussian, Inc.),
 the Gaussian 92(TM) system (copyright 1992, Gaussian, Inc.),
 the Gaussian 90(TM) system (copyright 1990, Gaussian, Inc.),
 the Gaussian 88(TM) system (copyright 1988, Gaussian, Inc.),
 the Gaussian 86(TM) system (copyright 1986, Carnegie Mellon
 University), and the Gaussian 82(TM) system (copyright 1983,
 Carnegie Mellon University). Gaussian is a federally registered
 trademark of Gaussian, Inc.
  
 This software contains proprietary and confidential information,
 including trade secrets, belonging to Gaussian, Inc.
  
 This software is provided under written license and may be
 used, copied, transmitted, or stored only in accord with that
 written license.
  
 The following legend is applicable only to US Government
 contracts under FAR:
  
                    RESTRICTED RIGHTS LEGEND
  
 Use, reproduction and disclosure by the US Government is
 subject to restrictions as set forth in subparagraphs (a)
 and (c) of the Commercial Computer Software - Restricted
 Rights clause in FAR 52.227-19.
  
 Gaussian, Inc.
 340 Quinnipiac St., Bldg. 40, Wallingford CT 06492
  
  
 ---------------------------------------------------------------
 Warning -- This program may not be used in any manner that
 competes with the business of Gaussian, Inc. or will provide
 assistance to any competitor of Gaussian, Inc.  The licensee
 of this program is prohibited from giving any competitor of
 Gaussian, Inc. access to this program.  By using this program,
 the user acknowledges that Gaussian, Inc. is engaged in the
 business of creating and licensing software in the field of
 computational chemistry and represents and warrants to the
 licensee that it is not a competitor of Gaussian, Inc. and that
 it will not use this program in any manner prohibited above.
 ---------------------------------------------------------------
  

 Cite this work as:
 Gaussian 16, Revision B.01,
 M. J. Frisch, G. W. Trucks, H. B. Schlegel, G. E. Scuseria, 
 M. A. Robb, J. R. Cheeseman, G. Scalmani, V. Barone, 
 G. A. Petersson, H. Nakatsuji, X. Li, M. Caricato, A. V. Marenich, 
 J. Bloino, B. G. Janesko, R. Gomperts, B. Mennucci, H. P. Hratchian, 
 J. V. Ortiz, A. F. Izmaylov, J. L. Sonnenberg, D. Williams-Young, 
 F. Ding, F. Lipparini, F. Egidi, J. Goings, B. Peng, A. Petrone, 
 T. Henderson, D. Ranasinghe, V. G. Zakrzewski, J. Gao, N. Rega, 
 G. Zheng, W. Liang, M. Hada, M. Ehara, K. Toyota, R. Fukuda, 
 J. Hasegawa, M. Ishida, T. Nakajima, Y. Honda, O. Kitao, H. Nakai, 
 T. Vreven, K. Throssell, J. A. Montgomery, Jr., J. E. Peralta, 
 F. Ogliaro, M. J. Bearpark, J. J. Heyd, E. N. Brothers, K. N. Kudin, 
 V. N. Staroverov, T. A. Keith, R. Kobayashi, J. Normand, 
 K. Raghavachari, A. P. Rendell, J. C. Burant, S. S. Iyengar, 
 J. Tomasi, M. Cossi, J. M. Millam, M. Klene, C. Adamo, R. Cammi, 
 J. W. Ochterski, R. L. Martin, K. Morokuma, O. Farkas, 
 J. B. Foresman, and D. J. Fox, Gaussian, Inc., Wallingford CT, 2016.
 
 ******************************************
 Gaussian 16:  ES64L-G16RevB.01 20-Dec-2017
                29-Nov-2023 
 ******************************************
 %nproc=15
 Will use up to   15 processors via shared memory.
 -------------------------
 #P B3LYP/6-311+g(d) force
 -------------------------
 1/10=7,30=1,38=1/1,3;
 2/12=2,17=6,18=5,40=1/2;
 3/5=4,6=6,7=11,11=2,25=1,30=1,71=1,74=-5/1,2,3;
 4//1;
 5/5=2,38=5/2;
 6/7=2,8=2,9=2,10=2,28=1/1;
 7/29=1/1,2,3,16;
 1/10=7,30=1/3;
 99//99;
 Leave Link    1 at Wed Nov 29 02:15:29 2023, MaxMem=           0 cpu:               0.3 elap:               0.0
 (Enter /home/sekinelabo/g16/l101.exe)
 -----
 DPGEN
 -----
 Symbolic Z-matrix:
 Charge =  0 Multiplicity = 2
 Na                    15.3227   13.7349   14.4906 
 Na                    17.2777   12.9905   12.2033 
 Na                    18.2667   15.7783   15.1686 
 Na                    18.3842   19.3354   16.9789 
 Na                    15.6978   17.0494   16.4944 
 Na                    12.1529   15.5064   15.7686 
 Na                    10.3235   13.0307   16.321 
 
 ITRead=  0  0  0  0  0  0  0
 MicOpt= -1 -1 -1 -1 -1 -1 -1
 NAtoms=      7 NQM=        7 NQMF=       0 NMMI=      0 NMMIF=      0
                NMic=       0 NMicF=      0.
                    Isotopes and Nuclear Properties:
 (Nuclear quadrupole moments (NQMom) in fm**2, nuclear magnetic moments (NMagM)
  in nuclear magnetons)

  Atom         1           2           3           4           5           6           7
 IAtWgt=          23          23          23          23          23          23          23
 AtmWgt=  22.9897697  22.9897697  22.9897697  22.9897697  22.9897697  22.9897697  22.9897697
 NucSpn=           3           3           3           3           3           3           3
 AtZEff=  -0.0000000  -0.0000000  -0.0000000  -0.0000000  -0.0000000  -0.0000000  -0.0000000
 NQMom=   10.4000000  10.4000000  10.4000000  10.4000000  10.4000000  10.4000000  10.4000000
 NMagM=    2.2175200   2.2175200   2.2175200   2.2175200   2.2175200   2.2175200   2.2175200
 AtZNuc=  11.0000000  11.0000000  11.0000000  11.0000000  11.0000000  11.0000000  11.0000000
 Leave Link  101 at Wed Nov 29 02:15:30 2023, MaxMem=  1879048192 cpu:               2.4 elap:               0.2
 (Enter /home/sekinelabo/g16/l103.exe)

 GradGradGradGradGradGradGradGradGradGradGradGradGradGradGradGradGradGrad
 Berny optimization.
 Initialization pass.
 Trust Radius=3.00D-01 FncErr=1.00D-07 GrdErr=1.00D-07 EigMax=2.50D+02 EigMin=1.00D-04
 Number of steps in this run=      2 maximum allowed number of steps=      2.
 GradGradGradGradGradGradGradGradGradGradGradGradGradGradGradGradGradGrad

 Leave Link  103 at Wed Nov 29 02:15:30 2023, MaxMem=  1879048192 cpu:               0.2 elap:               0.0
 (Enter /home/sekinelabo/g16/l202.exe)
                          Input orientation:                          
 ---------------------------------------------------------------------
 Center     Atomic      Atomic             Coordinates (Angstroms)
 Number     Number       Type             X           Y           Z
 ---------------------------------------------------------------------
      1         11           0       15.322700   13.734900   14.490600
      2         11           0       17.277700   12.990500   12.203300
      3         11           0       18.266700   15.778300   15.168600
      4         11           0       18.384200   19.335400   16.978900
      5         11           0       15.697800   17.049400   16.494400
      6         11           0       12.152900   15.506400   15.768600
      7         11           0       10.323500   13.030700   16.321000
 ---------------------------------------------------------------------
                    Distance matrix (angstroms):
                    1          2          3          4          5
     1  Na   0.000000
     2  Na   3.099661   0.000000
     3  Na   3.647232   4.188431   0.000000
     4  Na   6.850549   8.018008   3.992988   0.000000
     5  Na   3.891250   6.114270   3.157956   3.560517   0.000000
     6  Na   3.849562   6.730876   6.149185   7.413175   3.933694
     7  Na   5.370127   8.081953   8.483617  10.254607   6.712907
                    6          7
     6  Na   0.000000
     7  Na   3.127450   0.000000
 Stoichiometry    Na7(2)
 Framework group  C1[X(Na7)]
 Deg. of freedom    15
 Full point group                 C1      NOp   1
 Largest Abelian subgroup         C1      NOp   1
 Largest concise Abelian subgroup C1      NOp   1
                         Standard orientation:                         
 ---------------------------------------------------------------------
 Center     Atomic      Atomic             Coordinates (Angstroms)
 Number     Number       Type             X           Y           Z
 ---------------------------------------------------------------------
      1         11           0       -0.843455    1.596523   -0.264775
      2         11           0        0.431715    4.334342    0.432494
      3         11           0        2.740560    0.975552   -0.532243
      4         11           0        4.656899   -2.471541    0.091574
      5         11           0        1.178383   -1.718227   -0.007032
      6         11           0       -2.676538   -1.626277    0.770840
      7         11           0       -5.487563   -1.090373   -0.490859
 ---------------------------------------------------------------------
 Rotational constants (GHZ):           0.6011869           0.3133907           0.2114896
 Leave Link  202 at Wed Nov 29 02:15:30 2023, MaxMem=  1879048192 cpu:               0.0 elap:               0.0
 (Enter /home/sekinelabo/g16/l301.exe)
 Standard basis: 6-311+G(d) (5D, 7F)
 Ernie: Thresh=  0.10000D-02 Tol=  0.10000D-05 Strict=F.
 There are   217 symmetry adapted cartesian basis functions of A   symmetry.
 There are   210 symmetry adapted basis functions of A   symmetry.
   210 basis functions,   350 primitive gaussians,   217 cartesian basis functions
    39 alpha electrons       38 beta electrons
       nuclear repulsion energy       277.1791339315 Hartrees.
 IExCor=  402 DFT=T Ex+Corr=B3LYP ExCW=0 ScaHFX=  0.200000
 ScaDFX=  0.800000  0.720000  1.000000  0.810000 ScalE2=  1.000000  1.000000
 IRadAn=      5 IRanWt=     -1 IRanGd=            0 ICorTp=0 IEmpDi=  4
 NAtoms=    7 NActive=    7 NUniq=    7 SFac= 1.00D+00 NAtFMM=   60 NAOKFM=F Big=F
 Integral buffers will be    131072 words long.
 Raffenetti 2 integral format.
 Two-electron integral symmetry is turned on.
 Leave Link  301 at Wed Nov 29 02:15:30 2023, MaxMem=  1879048192 cpu:               0.5 elap:               0.0
 (Enter /home/sekinelabo/g16/l302.exe)
 NPDir=0 NMtPBC=     1 NCelOv=     1 NCel=       1 NClECP=     1 NCelD=      1
         NCelK=      1 NCelE2=     1 NClLst=     1 CellRange=     0.0.
 One-electron integrals computed using PRISM.
 One-electron integral symmetry used in STVInt
 NBasis=   210 RedAO= T EigKep=  4.86D-06  NBF=   210
 NBsUse=   210 1.00D-06 EigRej= -1.00D+00 NBFU=   210
 Precomputing XC quadrature grid using
 IXCGrd= 4 IRadAn=           5 IRanWt=          -1 IRanGd=           0 AccXCQ= 0.00D+00.
 Generated NRdTot=       0 NPtTot=           0 NUsed=           0 NTot=          32
 NSgBfM=   203   203   203   203   203 MxSgAt=     7 MxSgA2=     7.
 Leave Link  302 at Wed Nov 29 02:15:30 2023, MaxMem=  1879048192 cpu:               2.0 elap:               0.1
 (Enter /home/sekinelabo/g16/l303.exe)
 DipDrv:  MaxL=1.
 Leave Link  303 at Wed Nov 29 02:15:30 2023, MaxMem=  1879048192 cpu:               0.5 elap:               0.0
 (Enter /home/sekinelabo/g16/l401.exe)
 ExpMin= 7.60D-03 ExpMax= 3.62D+04 ExpMxC= 1.21D+03 IAcc=3 IRadAn=         5 AccDes= 0.00D+00
 Harris functional with IExCor=  402 and IRadAn=       5 diagonalized for initial guess.
 HarFok:  IExCor=  402 AccDes= 0.00D+00 IRadAn=         5 IDoV= 1 UseB2=F ITyADJ=14
 ICtDFT=  3500011 ScaDFX=  1.000000  1.000000  1.000000  1.000000
 FoFCou: FMM=F IPFlag=           0 FMFlag=      100000 FMFlg1=           0
         NFxFlg=           0 DoJE=T BraDBF=F KetDBF=T FulRan=T
         wScrn=  0.000000 ICntrl=       500 IOpCl=  0 I1Cent=   200000004 NGrid=           0
         NMat0=    1 NMatS0=      1 NMatT0=    0 NMatD0=    1 NMtDS0=    0 NMtDT0=    0
 Petite list used in FoFCou.
 Harris En= -1135.88825907711    
 JPrj=0 DoOrth=F DoCkMO=F.
 Initial guess <Sx>= 0.0000 <Sy>= 0.0000 <Sz>= 0.5000 <S**2>= 0.7500 S= 0.5000
 Leave Link  401 at Wed Nov 29 02:15:30 2023, MaxMem=  1879048192 cpu:               4.2 elap:               0.3
 (Enter /home/sekinelabo/g16/l502.exe)
 Keep R1 and R2 ints in memory in canonical form, NReq=506573279.
 FoFCou: FMM=F IPFlag=           0 FMFlag=           0 FMFlg1=           0
         NFxFlg=           0 DoJE=F BraDBF=F KetDBF=F FulRan=T
         wScrn=  0.000000 ICntrl=       600 IOpCl=  0 I1Cent=           0 NGrid=           0
         NMat0=    1 NMatS0=  22155 NMatT0=    0 NMatD0=    1 NMtDS0=    0 NMtDT0=    0
 Symmetry not used in FoFCou.
 Two-electron integral symmetry not used.
 UHF open shell SCF:
 Using DIIS extrapolation, IDIIS=  1040.
 NGot=  1879048192 LenX=  1388082621 LenY=  1388035091
 Requested convergence on RMS density matrix=1.00D-08 within 128 cycles.
 Requested convergence on MAX density matrix=1.00D-06.
 Requested convergence on             energy=1.00D-06.
 No special actions if energy rises.

 Cycle   1  Pass 1  IDiag  1:
 E= -1136.09191272899    
 DIIS: error= 1.03D-02 at cycle   1 NSaved=   1.
 NSaved= 1 IEnMin= 1 EnMin= -1136.09191272899     IErMin= 1 ErrMin= 1.03D-02
 ErrMax= 1.03D-02  0.00D+00 EMaxC= 1.00D-01 BMatC= 1.84D-01 BMatP= 1.84D-01
 IDIUse=3 WtCom= 8.97D-01 WtEn= 1.03D-01
 Coeff-Com:  0.100D+01
 Coeff-En:   0.100D+01
 Coeff:      0.100D+01
 Gap=     0.029 Goal=   None    Shift=    0.000
 Gap=     0.052 Goal=   None    Shift=    0.000
 GapD=    0.029 DampG=0.250 DampE=0.500 DampFc=0.2500 IDamp=-1.
 Damping current iteration by 2.50D-01
 RMSDP=3.44D-02 MaxDP=3.59D+00              OVMax= 2.13D-01

 Cycle   2  Pass 1  IDiag  1:
 E= -1136.10089782181     Delta-E=       -0.008985092815 Rises=F Damp=T
 DIIS: error= 7.37D-03 at cycle   2 NSaved=   2.
 NSaved= 2 IEnMin= 2 EnMin= -1136.10089782181     IErMin= 2 ErrMin= 7.37D-03
 ErrMax= 7.37D-03  0.00D+00 EMaxC= 1.00D-01 BMatC= 7.09D-02 BMatP= 1.84D-01
 IDIUse=3 WtCom= 9.26D-01 WtEn= 7.37D-02
 Coeff-Com: -0.129D+01 0.229D+01
 Coeff-En:   0.000D+00 0.100D+01
 Coeff:     -0.119D+01 0.219D+01
 Gap=     0.037 Goal=   None    Shift=    0.000
 Gap=     0.061 Goal=   None    Shift=    0.000
 RMSDP=1.92D-02 MaxDP=2.07D+00 DE=-8.99D-03 OVMax= 2.05D-01

 Cycle   3  Pass 1  IDiag  1:
 E= -1136.11674033551     Delta-E=       -0.015842513704 Rises=F Damp=F
 DIIS: error= 2.58D-03 at cycle   3 NSaved=   3.
 NSaved= 3 IEnMin= 3 EnMin= -1136.11674033551     IErMin= 3 ErrMin= 2.58D-03
 ErrMax= 2.58D-03  0.00D+00 EMaxC= 1.00D-01 BMatC= 2.29D-03 BMatP= 7.09D-02
 IDIUse=3 WtCom= 9.74D-01 WtEn= 2.58D-02
 Coeff-Com: -0.200D+00 0.344D+00 0.856D+00
 Coeff-En:   0.000D+00 0.000D+00 0.100D+01
 Coeff:     -0.195D+00 0.336D+00 0.860D+00
 Gap=     0.035 Goal=   None    Shift=    0.000
 Gap=     0.054 Goal=   None    Shift=    0.000
 RMSDP=6.43D-03 MaxDP=4.90D-01 DE=-1.58D-02 OVMax= 1.14D-01

 Cycle   4  Pass 1  IDiag  1:
 E= -1136.11601543069     Delta-E=        0.000724904824 Rises=F Damp=F
 DIIS: error= 2.55D-03 at cycle   4 NSaved=   4.
 NSaved= 4 IEnMin= 3 EnMin= -1136.11674033551     IErMin= 4 ErrMin= 2.55D-03
 ErrMax= 2.55D-03  0.00D+00 EMaxC= 1.00D-01 BMatC= 3.08D-03 BMatP= 2.29D-03
 IDIUse=3 WtCom= 1.65D-01 WtEn= 8.35D-01
 Coeff-Com: -0.957D-02 0.119D-01 0.538D+00 0.460D+00
 Coeff-En:   0.000D+00 0.000D+00 0.551D+00 0.449D+00
 Coeff:     -0.158D-02 0.197D-02 0.549D+00 0.451D+00
 Gap=     0.035 Goal=   None    Shift=    0.000
 Gap=     0.053 Goal=   None    Shift=    0.000
 RMSDP=3.14D-03 MaxDP=2.09D-01 DE= 7.25D-04 OVMax= 5.83D-02

 Cycle   5  Pass 1  IDiag  1:
 E= -1136.11944537065     Delta-E=       -0.003429939958 Rises=F Damp=F
 DIIS: error= 1.76D-04 at cycle   5 NSaved=   5.
 NSaved= 5 IEnMin= 5 EnMin= -1136.11944537065     IErMin= 5 ErrMin= 1.76D-04
 ErrMax= 1.76D-04  0.00D+00 EMaxC= 1.00D-01 BMatC= 1.25D-05 BMatP= 2.29D-03
 IDIUse=3 WtCom= 9.98D-01 WtEn= 1.76D-03
 Coeff-Com:  0.698D-02-0.106D-01 0.559D-01 0.251D-01 0.923D+00
 Coeff-En:   0.000D+00 0.000D+00 0.000D+00 0.000D+00 0.100D+01
 Coeff:      0.697D-02-0.106D-01 0.558D-01 0.251D-01 0.923D+00
 Gap=     0.036 Goal=   None    Shift=    0.000
 Gap=     0.053 Goal=   None    Shift=    0.000
 RMSDP=4.83D-04 MaxDP=3.91D-02 DE=-3.43D-03 OVMax= 1.05D-02

 Cycle   6  Pass 1  IDiag  1:
 E= -1136.11947108309     Delta-E=       -0.000025712446 Rises=F Damp=F
 DIIS: error= 1.04D-04 at cycle   6 NSaved=   6.
 NSaved= 6 IEnMin= 6 EnMin= -1136.11947108309     IErMin= 6 ErrMin= 1.04D-04
 ErrMax= 1.04D-04  0.00D+00 EMaxC= 1.00D-01 BMatC= 6.87D-06 BMatP= 1.25D-05
 IDIUse=3 WtCom= 9.99D-01 WtEn= 1.04D-03
 Coeff-Com:  0.457D-02-0.651D-02-0.846D-01-0.848D-01 0.477D+00 0.695D+00
 Coeff-En:   0.000D+00 0.000D+00 0.000D+00 0.000D+00 0.000D+00 0.100D+01
 Coeff:      0.456D-02-0.650D-02-0.845D-01-0.847D-01 0.476D+00 0.695D+00
 Gap=     0.036 Goal=   None    Shift=    0.000
 Gap=     0.054 Goal=   None    Shift=    0.000
 RMSDP=2.81D-04 MaxDP=2.15D-02 DE=-2.57D-05 OVMax= 5.09D-03

 Cycle   7  Pass 1  IDiag  1:
 E= -1136.11948444896     Delta-E=       -0.000013365865 Rises=F Damp=F
 DIIS: error= 4.35D-05 at cycle   7 NSaved=   7.
 NSaved= 7 IEnMin= 7 EnMin= -1136.11948444896     IErMin= 7 ErrMin= 4.35D-05
 ErrMax= 4.35D-05  0.00D+00 EMaxC= 1.00D-01 BMatC= 8.82D-07 BMatP= 6.87D-06
 IDIUse=1 WtCom= 1.00D+00 WtEn= 0.00D+00
 Coeff-Com:  0.408D-03-0.450D-03-0.437D-01-0.354D-01-0.714D-02 0.247D+00
 Coeff-Com:  0.840D+00
 Coeff:      0.408D-03-0.450D-03-0.437D-01-0.354D-01-0.714D-02 0.247D+00
 Coeff:      0.840D+00
 Gap=     0.036 Goal=   None    Shift=    0.000
 Gap=     0.054 Goal=   None    Shift=    0.000
 RMSDP=1.58D-04 MaxDP=1.05D-02 DE=-1.34D-05 OVMax= 2.89D-03

 Cycle   8  Pass 1  IDiag  1:
 E= -1136.11948723546     Delta-E=       -0.000002786502 Rises=F Damp=F
 DIIS: error= 1.28D-05 at cycle   8 NSaved=   8.
 NSaved= 8 IEnMin= 8 EnMin= -1136.11948723546     IErMin= 8 ErrMin= 1.28D-05
 ErrMax= 1.28D-05  0.00D+00 EMaxC= 1.00D-01 BMatC= 1.43D-07 BMatP= 8.82D-07
 IDIUse=1 WtCom= 1.00D+00 WtEn= 0.00D+00
 Coeff-Com: -0.490D-04 0.187D-03-0.567D-02-0.183D-02-0.681D-01-0.193D-01
 Coeff-Com:  0.221D+00 0.873D+00
 Coeff:     -0.490D-04 0.187D-03-0.567D-02-0.183D-02-0.681D-01-0.193D-01
 Coeff:      0.221D+00 0.873D+00
 Gap=     0.036 Goal=   None    Shift=    0.000
 Gap=     0.054 Goal=   None    Shift=    0.000
 RMSDP=7.50D-05 MaxDP=5.78D-03 DE=-2.79D-06 OVMax= 1.42D-03

 Cycle   9  Pass 1  IDiag  1:
 E= -1136.11948779921     Delta-E=       -0.000000563755 Rises=F Damp=F
 DIIS: error= 1.01D-05 at cycle   9 NSaved=   9.
 NSaved= 9 IEnMin= 9 EnMin= -1136.11948779921     IErMin= 9 ErrMin= 1.01D-05
 ErrMax= 1.01D-05  0.00D+00 EMaxC= 1.00D-01 BMatC= 3.76D-08 BMatP= 1.43D-07
 IDIUse=1 WtCom= 1.00D+00 WtEn= 0.00D+00
 Coeff-Com:  0.297D-04-0.924D-05 0.567D-02 0.550D-02-0.167D-01-0.530D-01
 Coeff-Com: -0.101D+00 0.297D+00 0.862D+00
 Coeff:      0.297D-04-0.924D-05 0.567D-02 0.550D-02-0.167D-01-0.530D-01
 Coeff:     -0.101D+00 0.297D+00 0.862D+00
 Gap=     0.036 Goal=   None    Shift=    0.000
 Gap=     0.054 Goal=   None    Shift=    0.000
 RMSDP=3.73D-05 MaxDP=3.76D-03 DE=-5.64D-07 OVMax= 8.12D-04

 Cycle  10  Pass 1  IDiag  1:
 E= -1136.11948795877     Delta-E=       -0.000000159559 Rises=F Damp=F
 DIIS: error= 7.71D-06 at cycle  10 NSaved=  10.
 NSaved=10 IEnMin=10 EnMin= -1136.11948795877     IErMin=10 ErrMin= 7.71D-06
 ErrMax= 7.71D-06  0.00D+00 EMaxC= 1.00D-01 BMatC= 1.19D-08 BMatP= 3.76D-08
 IDIUse=1 WtCom= 1.00D+00 WtEn= 0.00D+00
 Coeff-Com: -0.595D-04 0.764D-04 0.324D-02 0.236D-02 0.741D-02-0.153D-01
 Coeff-Com: -0.827D-01-0.598D-01 0.354D+00 0.791D+00
 Coeff:     -0.595D-04 0.764D-04 0.324D-02 0.236D-02 0.741D-02-0.153D-01
 Coeff:     -0.827D-01-0.598D-01 0.354D+00 0.791D+00
 Gap=     0.036 Goal=   None    Shift=    0.000
 Gap=     0.054 Goal=   None    Shift=    0.000
 RMSDP=1.43D-05 MaxDP=9.24D-04 DE=-1.60D-07 OVMax= 3.64D-04

 Cycle  11  Pass 1  IDiag  1:
 E= -1136.11948801077     Delta-E=       -0.000000052000 Rises=F Damp=F
 DIIS: error= 5.52D-06 at cycle  11 NSaved=  11.
 NSaved=11 IEnMin=11 EnMin= -1136.11948801077     IErMin=11 ErrMin= 5.52D-06
 ErrMax= 5.52D-06  0.00D+00 EMaxC= 1.00D-01 BMatC= 4.58D-09 BMatP= 1.19D-08
 IDIUse=1 WtCom= 1.00D+00 WtEn= 0.00D+00
 Coeff-Com: -0.699D-04 0.796D-04-0.549D-03-0.106D-02 0.136D-01 0.143D-01
 Coeff-Com: -0.140D-01-0.164D+00-0.162D+00 0.446D+00 0.867D+00
 Coeff:     -0.699D-04 0.796D-04-0.549D-03-0.106D-02 0.136D-01 0.143D-01
 Coeff:     -0.140D-01-0.164D+00-0.162D+00 0.446D+00 0.867D+00
 Gap=     0.036 Goal=   None    Shift=    0.000
 Gap=     0.054 Goal=   None    Shift=    0.000
 RMSDP=1.42D-05 MaxDP=8.80D-04 DE=-5.20D-08 OVMax= 3.53D-04

 Cycle  12  Pass 1  IDiag  1:
 E= -1136.11948803695     Delta-E=       -0.000000026180 Rises=F Damp=F
 DIIS: error= 1.53D-06 at cycle  12 NSaved=  12.
 NSaved=12 IEnMin=12 EnMin= -1136.11948803695     IErMin=12 ErrMin= 1.53D-06
 ErrMax= 1.53D-06  0.00D+00 EMaxC= 1.00D-01 BMatC= 6.24D-10 BMatP= 4.58D-09
 IDIUse=1 WtCom= 1.00D+00 WtEn= 0.00D+00
 Coeff-Com:  0.459D-04-0.620D-04-0.468D-03-0.259D-03-0.150D-02 0.193D-02
 Coeff-Com:  0.126D-01 0.213D-01-0.695D-01-0.180D+00-0.887D-03 0.122D+01
 Coeff:      0.459D-04-0.620D-04-0.468D-03-0.259D-03-0.150D-02 0.193D-02
 Coeff:      0.126D-01 0.213D-01-0.695D-01-0.180D+00-0.887D-03 0.122D+01
 Gap=     0.036 Goal=   None    Shift=    0.000
 Gap=     0.054 Goal=   None    Shift=    0.000
 RMSDP=9.40D-06 MaxDP=7.60D-04 DE=-2.62D-08 OVMax= 1.71D-04

 Cycle  13  Pass 1  IDiag  1:
 E= -1136.11948804395     Delta-E=       -0.000000007000 Rises=F Damp=F
 DIIS: error= 7.73D-07 at cycle  13 NSaved=  13.
 NSaved=13 IEnMin=13 EnMin= -1136.11948804395     IErMin=13 ErrMin= 7.73D-07
 ErrMax= 7.73D-07  0.00D+00 EMaxC= 1.00D-01 BMatC= 2.07D-10 BMatP= 6.24D-10
 IDIUse=1 WtCom= 1.00D+00 WtEn= 0.00D+00
 Coeff-Com:  0.251D-04-0.302D-04 0.341D-04 0.234D-03-0.404D-02-0.330D-02
 Coeff-Com:  0.676D-02 0.414D-01 0.429D-01-0.154D+00-0.239D+00 0.152D+00
 Coeff-Com:  0.116D+01
 Coeff:      0.251D-04-0.302D-04 0.341D-04 0.234D-03-0.404D-02-0.330D-02
 Coeff:      0.676D-02 0.414D-01 0.429D-01-0.154D+00-0.239D+00 0.152D+00
 Coeff:      0.116D+01
 Gap=     0.036 Goal=   None    Shift=    0.000
 Gap=     0.054 Goal=   None    Shift=    0.000
 RMSDP=5.98D-06 MaxDP=4.19D-04 DE=-7.00D-09 OVMax= 1.21D-04

 Cycle  14  Pass 1  IDiag  1:
 E= -1136.11948804622     Delta-E=       -0.000000002263 Rises=F Damp=F
 DIIS: error= 4.00D-07 at cycle  14 NSaved=  14.
 NSaved=14 IEnMin=14 EnMin= -1136.11948804622     IErMin=14 ErrMin= 4.00D-07
 ErrMax= 4.00D-07  0.00D+00 EMaxC= 1.00D-01 BMatC= 5.54D-11 BMatP= 2.07D-10
 IDIUse=1 WtCom= 1.00D+00 WtEn= 0.00D+00
 Coeff-Com: -0.228D-04 0.310D-04 0.151D-03 0.718D-04 0.137D-03-0.492D-03
 Coeff-Com: -0.268D-02-0.495D-02 0.173D-01 0.558D-01 0.816D-02-0.425D+00
 Coeff-Com:  0.134D+00 0.122D+01
 Coeff:     -0.228D-04 0.310D-04 0.151D-03 0.718D-04 0.137D-03-0.492D-03
 Coeff:     -0.268D-02-0.495D-02 0.173D-01 0.558D-01 0.816D-02-0.425D+00
 Coeff:      0.134D+00 0.122D+01
 Gap=     0.036 Goal=   None    Shift=    0.000
 Gap=     0.054 Goal=   None    Shift=    0.000
 RMSDP=4.36D-06 MaxDP=3.09D-04 DE=-2.26D-09 OVMax= 6.77D-05

 Cycle  15  Pass 1  IDiag  1:
 E= -1136.11948804678     Delta-E=       -0.000000000565 Rises=F Damp=F
 DIIS: error= 1.91D-07 at cycle  15 NSaved=  15.
 NSaved=15 IEnMin=15 EnMin= -1136.11948804678     IErMin=15 ErrMin= 1.91D-07
 ErrMax= 1.91D-07  0.00D+00 EMaxC= 1.00D-01 BMatC= 9.78D-12 BMatP= 5.54D-11
 IDIUse=1 WtCom= 1.00D+00 WtEn= 0.00D+00
 Coeff-Com: -0.116D-04 0.150D-04 0.549D-04-0.156D-04 0.877D-03 0.377D-03
 Coeff-Com: -0.133D-02-0.107D-01-0.670D-02 0.456D-01 0.637D-01-0.133D+00
 Coeff-Com: -0.217D+00 0.217D+00 0.104D+01
 Coeff:     -0.116D-04 0.150D-04 0.549D-04-0.156D-04 0.877D-03 0.377D-03
 Coeff:     -0.133D-02-0.107D-01-0.670D-02 0.456D-01 0.637D-01-0.133D+00
 Coeff:     -0.217D+00 0.217D+00 0.104D+01
 Gap=     0.036 Goal=   None    Shift=    0.000
 Gap=     0.054 Goal=   None    Shift=    0.000
 RMSDP=1.55D-06 MaxDP=1.33D-04 DE=-5.65D-10 OVMax= 2.73D-05

 Cycle  16  Pass 1  IDiag  1:
 E= -1136.11948804686     Delta-E=       -0.000000000075 Rises=F Damp=F
 DIIS: error= 6.81D-08 at cycle  16 NSaved=  16.
 NSaved=16 IEnMin=16 EnMin= -1136.11948804686     IErMin=16 ErrMin= 6.81D-08
 ErrMax= 6.81D-08  0.00D+00 EMaxC= 1.00D-01 BMatC= 1.01D-12 BMatP= 9.78D-12
 IDIUse=1 WtCom= 1.00D+00 WtEn= 0.00D+00
 Coeff-Com:  0.306D-05-0.419D-05-0.102D-04-0.204D-05-0.210D-04 0.910D-04
 Coeff-Com:  0.232D-03 0.260D-03-0.175D-02-0.606D-02-0.964D-03 0.494D-01
 Coeff-Com: -0.223D-01-0.145D+00 0.348D-03 0.113D+01
 Coeff:      0.306D-05-0.419D-05-0.102D-04-0.204D-05-0.210D-04 0.910D-04
 Coeff:      0.232D-03 0.260D-03-0.175D-02-0.606D-02-0.964D-03 0.494D-01
 Coeff:     -0.223D-01-0.145D+00 0.348D-03 0.113D+01
 Gap=     0.036 Goal=   None    Shift=    0.000
 Gap=     0.054 Goal=   None    Shift=    0.000
 RMSDP=2.50D-07 MaxDP=1.36D-05 DE=-7.50D-11 OVMax= 7.86D-06

 Cycle  17  Pass 1  IDiag  1:
 E= -1136.11948804687     Delta-E=       -0.000000000018 Rises=F Damp=F
 DIIS: error= 2.42D-08 at cycle  17 NSaved=  17.
 NSaved=17 IEnMin=17 EnMin= -1136.11948804687     IErMin=17 ErrMin= 2.42D-08
 ErrMax= 2.42D-08  0.00D+00 EMaxC= 1.00D-01 BMatC= 2.38D-13 BMatP= 1.01D-12
 IDIUse=1 WtCom= 1.00D+00 WtEn= 0.00D+00
 Coeff-Com:  0.174D-05-0.228D-05-0.108D-04 0.370D-06-0.114D-03-0.852D-04
 Coeff-Com:  0.189D-03 0.171D-02 0.473D-03-0.699D-02-0.747D-02 0.186D-01
 Coeff-Com:  0.386D-01-0.433D-01-0.168D+00-0.339D-02 0.117D+01
 Coeff:      0.174D-05-0.228D-05-0.108D-04 0.370D-06-0.114D-03-0.852D-04
 Coeff:      0.189D-03 0.171D-02 0.473D-03-0.699D-02-0.747D-02 0.186D-01
 Coeff:      0.386D-01-0.433D-01-0.168D+00-0.339D-02 0.117D+01
 Gap=     0.036 Goal=   None    Shift=    0.000
 Gap=     0.054 Goal=   None    Shift=    0.000
 RMSDP=1.41D-07 MaxDP=9.19D-06 DE=-1.77D-11 OVMax= 2.78D-06

 Cycle  18  Pass 1  IDiag  1:
 E= -1136.11948804688     Delta-E=       -0.000000000006 Rises=F Damp=F
 DIIS: error= 8.70D-09 at cycle  18 NSaved=  18.
 NSaved=18 IEnMin=18 EnMin= -1136.11948804688     IErMin=18 ErrMin= 8.70D-09
 ErrMax= 8.70D-09  0.00D+00 EMaxC= 1.00D-01 BMatC= 4.19D-14 BMatP= 2.38D-13
 IDIUse=1 WtCom= 1.00D+00 WtEn= 0.00D+00
 Coeff-Com:  0.230D-06-0.267D-06-0.301D-05 0.439D-06-0.450D-04-0.376D-04
 Coeff-Com:  0.385D-04 0.620D-03 0.589D-03-0.197D-02-0.379D-02 0.137D-02
 Coeff-Com:  0.173D-01 0.443D-02-0.588D-01-0.153D+00 0.309D+00 0.884D+00
 Coeff:      0.230D-06-0.267D-06-0.301D-05 0.439D-06-0.450D-04-0.376D-04
 Coeff:      0.385D-04 0.620D-03 0.589D-03-0.197D-02-0.379D-02 0.137D-02
 Coeff:      0.173D-01 0.443D-02-0.588D-01-0.153D+00 0.309D+00 0.884D+00
 Gap=     0.036 Goal=   None    Shift=    0.000
 Gap=     0.054 Goal=   None    Shift=    0.000
 RMSDP=6.35D-08 MaxDP=5.19D-06 DE=-5.91D-12 OVMax= 8.80D-07

 Cycle  19  Pass 1  IDiag  1:
 E= -1136.11948804686     Delta-E=        0.000000000021 Rises=F Damp=F
 DIIS: error= 2.96D-09 at cycle  19 NSaved=  19.
 NSaved=19 IEnMin=18 EnMin= -1136.11948804688     IErMin=19 ErrMin= 2.96D-09
 ErrMax= 2.96D-09  0.00D+00 EMaxC= 1.00D-01 BMatC= 6.08D-15 BMatP= 4.19D-14
 IDIUse=1 WtCom= 1.00D+00 WtEn= 0.00D+00
 Coeff-Com: -0.265D-06 0.351D-06 0.101D-05-0.543D-06 0.193D-04 0.137D-04
 Coeff-Com: -0.346D-04-0.249D-03-0.982D-05 0.102D-02 0.925D-03-0.290D-02
 Coeff-Com: -0.554D-02 0.795D-02 0.264D-01-0.265D-01-0.166D+00 0.125D+00
 Coeff-Com:  0.104D+01
 Coeff:     -0.265D-06 0.351D-06 0.101D-05-0.543D-06 0.193D-04 0.137D-04
 Coeff:     -0.346D-04-0.249D-03-0.982D-05 0.102D-02 0.925D-03-0.290D-02
 Coeff:     -0.554D-02 0.795D-02 0.264D-01-0.265D-01-0.166D+00 0.125D+00
 Coeff:      0.104D+01
 Gap=     0.036 Goal=   None    Shift=    0.000
 Gap=     0.054 Goal=   None    Shift=    0.000
 RMSDP=2.52D-08 MaxDP=2.02D-06 DE= 2.09D-11 OVMax= 4.22D-07

 Cycle  20  Pass 1  IDiag  1:
 E= -1136.11948804687     Delta-E=       -0.000000000008 Rises=F Damp=F
 DIIS: error= 1.01D-09 at cycle  20 NSaved=  20.
 NSaved=20 IEnMin=18 EnMin= -1136.11948804688     IErMin=20 ErrMin= 1.01D-09
 ErrMax= 1.01D-09  0.00D+00 EMaxC= 1.00D-01 BMatC= 8.62D-16 BMatP= 6.08D-15
 IDIUse=1 WtCom= 1.00D+00 WtEn= 0.00D+00
 Large coefficients: NSaved= 20 BigCof=    0.00 CofMax=   10.00 Det=-2.26D-15
 Inversion failed.  Reducing to 19 matrices.
 Large coefficients: NSaved= 19 BigCof=    0.00 CofMax=   10.00 Det=-2.71D-15
 Inversion failed.  Reducing to 18 matrices.
 Large coefficients: NSaved= 18 BigCof=    0.00 CofMax=   10.00 Det=-2.80D-15
 Inversion failed.  Reducing to 17 matrices.
 Large coefficients: NSaved= 17 BigCof=    0.00 CofMax=   10.00 Det=-2.85D-15
 Inversion failed.  Reducing to 16 matrices.
 Large coefficients: NSaved= 16 BigCof=    0.00 CofMax=   10.00 Det=-3.06D-15
 Inversion failed.  Reducing to 15 matrices.
 Coeff-Com: -0.110D-05 0.661D-05-0.393D-05-0.333D-04 0.128D-04 0.150D-03
 Coeff-Com:  0.361D-03-0.148D-02-0.133D-02 0.639D-02 0.189D-01-0.465D-01
 Coeff-Com: -0.103D+00 0.877D-01 0.104D+01
 Coeff:     -0.110D-05 0.661D-05-0.393D-05-0.333D-04 0.128D-04 0.150D-03
 Coeff:      0.361D-03-0.148D-02-0.133D-02 0.639D-02 0.189D-01-0.465D-01
 Coeff:     -0.103D+00 0.877D-01 0.104D+01
 Gap=     0.036 Goal=   None    Shift=    0.000
 Gap=     0.054 Goal=   None    Shift=    0.000
 RMSDP=7.33D-09 MaxDP=4.40D-07 DE=-7.73D-12 OVMax= 1.58D-07

 SCF Done:  E(UB3LYP) =  -1136.11948805     A.U. after   20 cycles
            NFock= 20  Conv=0.73D-08     -V/T= 2.0029
 <Sx>= 0.0000 <Sy>= 0.0000 <Sz>= 0.5000 <S**2>= 0.7817 S= 0.5157
 <L.S>= 0.000000000000E+00
 KE= 1.132848965991D+03 PE=-3.283453978127D+03 EE= 7.373063901585D+02
 Annihilation of the first spin contaminant:
 S**2 before annihilation     0.7817,   after     0.7506
 Leave Link  502 at Wed Nov 29 02:15:46 2023, MaxMem=  1879048192 cpu:             174.1 elap:              15.9
 (Enter /home/sekinelabo/g16/l601.exe)
 Copying SCF densities to generalized density rwf, IOpCl= 1 IROHF=0.

 **********************************************************************

            Population analysis using the SCF Density.

 **********************************************************************

 Orbital symmetries:
 Alpha Orbitals:
       Occupied  (A) (A) (A) (A) (A) (A) (A) (A) (A) (A) (A) (A)
                 (A) (A) (A) (A) (A) (A) (A) (A) (A) (A) (A) (A)
                 (A) (A) (A) (A) (A) (A) (A) (A) (A) (A) (A) (A)
                 (A) (A) (A)
       Virtual   (A) (A) (A) (A) (A) (A) (A) (A) (A) (A) (A) (A)
                 (A) (A) (A) (A) (A) (A) (A) (A) (A) (A) (A) (A)
                 (A) (A) (A) (A) (A) (A) (A) (A) (A) (A) (A) (A)
                 (A) (A) (A) (A) (A) (A) (A) (A) (A) (A) (A) (A)
                 (A) (A) (A) (A) (A) (A) (A) (A) (A) (A) (A) (A)
                 (A) (A) (A) (A) (A) (A) (A) (A) (A) (A) (A) (A)
                 (A) (A) (A) (A) (A) (A) (A) (A) (A) (A) (A) (A)
                 (A) (A) (A) (A) (A) (A) (A) (A) (A) (A) (A) (A)
                 (A) (A) (A) (A) (A) (A) (A) (A) (A) (A) (A) (A)
                 (A) (A) (A) (A) (A) (A) (A) (A) (A) (A) (A) (A)
                 (A) (A) (A) (A) (A) (A) (A) (A) (A) (A) (A) (A)
                 (A) (A) (A) (A) (A) (A) (A) (A) (A) (A) (A) (A)
                 (A) (A) (A) (A) (A) (A) (A) (A) (A) (A) (A) (A)
                 (A) (A) (A) (A) (A) (A) (A) (A) (A) (A) (A) (A)
                 (A) (A) (A)
 Beta  Orbitals:
       Occupied  (A) (A) (A) (A) (A) (A) (A) (A) (A) (A) (A) (A)
                 (A) (A) (A) (A) (A) (A) (A) (A) (A) (A) (A) (A)
                 (A) (A) (A) (A) (A) (A) (A) (A) (A) (A) (A) (A)
                 (A) (A)
       Virtual   (A) (A) (A) (A) (A) (A) (A) (A) (A) (A) (A) (A)
                 (A) (A) (A) (A) (A) (A) (A) (A) (A) (A) (A) (A)
                 (A) (A) (A) (A) (A) (A) (A) (A) (A) (A) (A) (A)
                 (A) (A) (A) (A) (A) (A) (A) (A) (A) (A) (A) (A)
                 (A) (A) (A) (A) (A) (A) (A) (A) (A) (A) (A) (A)
                 (A) (A) (A) (A) (A) (A) (A) (A) (A) (A) (A) (A)
                 (A) (A) (A) (A) (A) (A) (A) (A) (A) (A) (A) (A)
                 (A) (A) (A) (A) (A) (A) (A) (A) (A) (A) (A) (A)
                 (A) (A) (A) (A) (A) (A) (A) (A) (A) (A) (A) (A)
                 (A) (A) (A) (A) (A) (A) (A) (A) (A) (A) (A) (A)
                 (A) (A) (A) (A) (A) (A) (A) (A) (A) (A) (A) (A)
                 (A) (A) (A) (A) (A) (A) (A) (A) (A) (A) (A) (A)
                 (A) (A) (A) (A) (A) (A) (A) (A) (A) (A) (A) (A)
                 (A) (A) (A) (A) (A) (A) (A) (A) (A) (A) (A) (A)
                 (A) (A) (A) (A)
 The electronic state is 2-A.
 Alpha  occ. eigenvalues --  -38.45752 -38.44570 -38.44088 -38.44088 -38.43840
 Alpha  occ. eigenvalues --  -38.43765 -38.43239  -2.21540  -2.20351  -2.19937
 Alpha  occ. eigenvalues --   -2.19898  -2.19656  -2.19631  -2.19058  -1.15275
 Alpha  occ. eigenvalues --   -1.15245  -1.15101  -1.14014  -1.14011  -1.13952
 Alpha  occ. eigenvalues --   -1.13679  -1.13622  -1.13607  -1.13547  -1.13533
 Alpha  occ. eigenvalues --   -1.13464  -1.13346  -1.13314  -1.13312  -1.13291
 Alpha  occ. eigenvalues --   -1.13286  -1.13208  -1.12738  -1.12730  -1.12703
 Alpha  occ. eigenvalues --   -0.16797  -0.13531  -0.12992  -0.10419
 Alpha virt. eigenvalues --   -0.06845  -0.05173  -0.04522  -0.03824  -0.02865
 Alpha virt. eigenvalues --   -0.02358  -0.01967  -0.01637  -0.01357  -0.01040
 Alpha virt. eigenvalues --   -0.00300   0.00062   0.00235   0.00331   0.00549
 Alpha virt. eigenvalues --    0.00759   0.00765   0.00957   0.01033   0.01265
 Alpha virt. eigenvalues --    0.01317   0.01441   0.01502   0.01687   0.01801
 Alpha virt. eigenvalues --    0.01863   0.02112   0.02218   0.02278   0.02313
 Alpha virt. eigenvalues --    0.02498   0.02664   0.02751   0.02924   0.03110
 Alpha virt. eigenvalues --    0.03181   0.03233   0.03342   0.03378   0.03470
 Alpha virt. eigenvalues --    0.03573   0.03597   0.03869   0.04189   0.04435
 Alpha virt. eigenvalues --    0.04553   0.04809   0.04863   0.05170   0.05405
 Alpha virt. eigenvalues --    0.05698   0.05834   0.06967   0.07095   0.07415
 Alpha virt. eigenvalues --    0.07521   0.07797   0.08182   0.08431   0.08589
 Alpha virt. eigenvalues --    0.08696   0.08941   0.09379   0.09459   0.09721
 Alpha virt. eigenvalues --    0.10265   0.10956   0.11253   0.11618   0.11873
 Alpha virt. eigenvalues --    0.12171   0.12540   0.13059   0.13493   0.13985
 Alpha virt. eigenvalues --    0.14219   0.14950   0.15613   0.16897   0.17202
 Alpha virt. eigenvalues --    0.26251   0.28310   0.28771   0.29217   0.29492
 Alpha virt. eigenvalues --    0.31145   0.31244   0.31617   0.32607   0.33239
 Alpha virt. eigenvalues --    0.34034   0.34612   0.34942   0.35603   0.35873
 Alpha virt. eigenvalues --    0.36777   0.37266   0.37665   0.39112   0.39900
 Alpha virt. eigenvalues --    0.40618   0.41123   0.42415   0.42897   0.43409
 Alpha virt. eigenvalues --    0.43485   0.43796   0.43946   0.44307   0.44500
 Alpha virt. eigenvalues --    0.44535   0.44893   0.45300   0.45390   0.45984
 Alpha virt. eigenvalues --    0.46261   0.46412   0.46803   0.47522   0.48046
 Alpha virt. eigenvalues --    0.48492   0.49161   0.49645   0.50009   0.50594
 Alpha virt. eigenvalues --    0.51890   0.52080   0.53342   0.54208   0.54588
 Alpha virt. eigenvalues --    0.55497   0.57361   0.60132   0.66850   0.68173
 Alpha virt. eigenvalues --    0.69885   2.01826   2.08401   2.09268   2.12483
 Alpha virt. eigenvalues --    2.15719   2.17385   2.18311   4.42643   4.43050
 Alpha virt. eigenvalues --    4.43615   4.43953   4.44523   4.44548   4.44891
 Alpha virt. eigenvalues --    4.45033   4.45595   4.45736   4.46288   4.46759
 Alpha virt. eigenvalues --    4.47246   4.47379   4.48661   4.49204   4.50403
 Alpha virt. eigenvalues --    4.52528   4.59829   4.61805   4.63014  96.20911
 Alpha virt. eigenvalues --   96.28980  96.30139  96.33638  96.38404  96.39859
 Alpha virt. eigenvalues --   96.41136
  Beta  occ. eigenvalues --  -38.45757 -38.44521 -38.44079 -38.44065 -38.43767
  Beta  occ. eigenvalues --  -38.43724 -38.43239  -2.21552  -2.20258  -2.19923
  Beta  occ. eigenvalues --   -2.19855  -2.19560  -2.19519  -2.19065  -1.15268
  Beta  occ. eigenvalues --   -1.15254  -1.15112  -1.13949  -1.13947  -1.13894
  Beta  occ. eigenvalues --   -1.13658  -1.13612  -1.13590  -1.13518  -1.13502
  Beta  occ. eigenvalues --   -1.13439  -1.13303  -1.13268  -1.13228  -1.13197
  Beta  occ. eigenvalues --   -1.13194  -1.13125  -1.12750  -1.12740  -1.12652
  Beta  occ. eigenvalues --   -0.16265  -0.13068  -0.12548
  Beta virt. eigenvalues --   -0.07178  -0.06446  -0.04884  -0.04136  -0.03612
  Beta virt. eigenvalues --   -0.02699  -0.02109  -0.01773  -0.01396  -0.00916
  Beta virt. eigenvalues --   -0.00734  -0.00106   0.00312   0.00356   0.00492
  Beta virt. eigenvalues --    0.00589   0.00820   0.00850   0.01076   0.01141
  Beta virt. eigenvalues --    0.01352   0.01408   0.01503   0.01619   0.01774
  Beta virt. eigenvalues --    0.01881   0.02006   0.02188   0.02288   0.02358
  Beta virt. eigenvalues --    0.02470   0.02637   0.02741   0.02866   0.02979
  Beta virt. eigenvalues --    0.03170   0.03245   0.03366   0.03381   0.03410
  Beta virt. eigenvalues --    0.03532   0.03630   0.03665   0.03911   0.04223
  Beta virt. eigenvalues --    0.04412   0.04699   0.04908   0.04936   0.05284
  Beta virt. eigenvalues --    0.05480   0.05775   0.05917   0.07093   0.07170
  Beta virt. eigenvalues --    0.07463   0.07718   0.07888   0.08246   0.08662
  Beta virt. eigenvalues --    0.08684   0.08928   0.09189   0.09531   0.09573
  Beta virt. eigenvalues --    0.09888   0.10353   0.11036   0.11355   0.11703
  Beta virt. eigenvalues --    0.12089   0.12337   0.12593   0.13206   0.13610
  Beta virt. eigenvalues --    0.14083   0.14430   0.15122   0.15675   0.17110
  Beta virt. eigenvalues --    0.17314   0.26516   0.28495   0.28973   0.29330
  Beta virt. eigenvalues --    0.29631   0.31262   0.31361   0.31728   0.32837
  Beta virt. eigenvalues --    0.33354   0.34366   0.34939   0.35458   0.36023
  Beta virt. eigenvalues --    0.36373   0.37327   0.37590   0.37970   0.39337
  Beta virt. eigenvalues --    0.40016   0.40777   0.41266   0.42642   0.43101
  Beta virt. eigenvalues --    0.43593   0.43719   0.43932   0.44020   0.44406
  Beta virt. eigenvalues --    0.44605   0.44737   0.45073   0.45400   0.45517
  Beta virt. eigenvalues --    0.46158   0.46304   0.46454   0.46817   0.47624
  Beta virt. eigenvalues --    0.48182   0.48499   0.49261   0.49797   0.50225
  Beta virt. eigenvalues --    0.50684   0.51950   0.52167   0.53339   0.54229
  Beta virt. eigenvalues --    0.54650   0.55630   0.57514   0.60236   0.66915
  Beta virt. eigenvalues --    0.68319   0.69975   2.01911   2.08612   2.09417
  Beta virt. eigenvalues --    2.12568   2.15763   2.17519   2.18348   4.42659
  Beta virt. eigenvalues --    4.43108   4.43645   4.43941   4.44572   4.44615
  Beta virt. eigenvalues --    4.44976   4.45082   4.45662   4.45830   4.46332
  Beta virt. eigenvalues --    4.46794   4.47253   4.47385   4.48686   4.49217
  Beta virt. eigenvalues --    4.50416   4.52616   4.59844   4.61864   4.63037
  Beta virt. eigenvalues --   96.20942  96.29048  96.30188  96.33666  96.38427
  Beta virt. eigenvalues --   96.39900  96.41151
          Condensed to atoms (all electrons):
               1          2          3          4          5          6
     1  Na  12.679860  -0.917956   0.221351   0.427916   0.712296  -0.972880
     2  Na  -0.917956  11.193020  -0.175937  -0.648552  -0.283360   1.203607
     3  Na   0.221351  -0.175937  10.528359   0.412501   0.222153  -0.616040
     4  Na   0.427916  -0.648552   0.412501  12.778142  -1.395227  -2.117932
     5  Na   0.712296  -0.283360   0.222153  -1.395227  14.059362  -0.951643
     6  Na  -0.972880   1.203607  -0.616040  -2.117932  -0.951643  15.054645
     7  Na   0.100539  -0.172808   0.107820   0.396845  -0.007987  -0.646302
               7
     1  Na   0.100539
     2  Na  -0.172808
     3  Na   0.107820
     4  Na   0.396845
     5  Na  -0.007987
     6  Na  -0.646302
     7  Na  10.909799
          Atomic-Atomic Spin Densities.
               1          2          3          4          5          6
     1  Na  -0.330929   0.115673   0.111378   0.022363   0.005811  -0.048715
     2  Na   0.115673   0.198089  -0.113463  -0.123264  -0.110830   0.205862
     3  Na   0.111378  -0.113463   0.066652   0.171766   0.122268  -0.236619
     4  Na   0.022363  -0.123264   0.171766   0.271547   0.456129  -0.418775
     5  Na   0.005811  -0.110830   0.122268   0.456129   0.464077  -0.695103
     6  Na  -0.048715   0.205862  -0.236619  -0.418775  -0.695103   0.851514
     7  Na   0.010178   0.014042  -0.017232  -0.047097  -0.019891   0.248807
               7
     1  Na   0.010178
     2  Na   0.014042
     3  Na  -0.017232
     4  Na  -0.047097
     5  Na  -0.019891
     6  Na   0.248807
     7  Na   0.172473
 Mulliken charges and spin densities:
               1          2
     1  Na  -1.251129  -0.114240
     2  Na   0.801986   0.186108
     3  Na   0.299793   0.104750
     4  Na   1.146306   0.332669
     5  Na  -1.355594   0.222461
     6  Na   0.046544  -0.093029
     7  Na   0.312094   0.361281
 Sum of Mulliken charges =  -0.00000   1.00000
 Mulliken charges and spin densities with hydrogens summed into heavy atoms:
               1          2
     1  Na  -1.251129  -0.114240
     2  Na   0.801986   0.186108
     3  Na   0.299793   0.104750
     4  Na   1.146306   0.332669
     5  Na  -1.355594   0.222461
     6  Na   0.046544  -0.093029
     7  Na   0.312094   0.361281
 Electronic spatial extent (au):  <R**2>=           4283.9341
 Charge=             -0.0000 electrons
 Dipole moment (field-independent basis, Debye):
    X=              1.7526    Y=              0.5317    Z=             -0.0810  Tot=              1.8333
 Quadrupole moment (field-independent basis, Debye-Ang):
   XX=            -63.9562   YY=            -61.6033   ZZ=            -71.5223
   XY=             -3.9661   XZ=              2.0106   YZ=             -0.3681
 Traceless Quadrupole moment (field-independent basis, Debye-Ang):
   XX=              1.7377   YY=              4.0906   ZZ=             -5.8283
   XY=             -3.9661   XZ=              2.0106   YZ=             -0.3681
 Octapole moment (field-independent basis, Debye-Ang**2):
  XXX=             28.1481  YYY=             28.8540  ZZZ=             -0.3104  XYY=             34.9716
  XXY=            -12.3254  XXZ=            -19.2741  XZZ=              1.1438  YZZ=              1.5679
  YYZ=             17.6690  XYZ=             -4.0777
 Hexadecapole moment (field-independent basis, Debye-Ang**3):
 XXXX=          -4111.9463 YYYY=          -2116.6962 ZZZZ=           -352.1519 XXXY=           -159.3778
 XXXZ=            142.7261 YYYX=            -81.9192 YYYZ=             60.6073 ZZZX=             -0.0484
 ZZZY=             -5.7177 XXYY=          -1081.0928 XXZZ=           -831.2977 YYZZ=           -463.6998
 XXYZ=            -14.3407 YYXZ=             10.3338 ZZXY=              5.3941
 N-N= 2.771791339315D+02 E-N=-3.283453978197D+03  KE= 1.132848965991D+03
                          Isotropic Fermi Contact Couplings
        Atom                 a.u.       MegaHertz       Gauss      10(-4) cm-1
     1  Na(23)            -0.00089      -1.04920      -0.37438      -0.34997
     2  Na(23)             0.10389     122.90918      43.85705      40.99809
     3  Na(23)            -0.04441     -52.53556     -18.74599     -17.52397
     4  Na(23)             0.21726     257.02268      91.71208      85.73354
     5  Na(23)             0.12749     150.82595      53.81845      50.31012
     6  Na(23)            -0.08023     -94.91518     -33.86810     -31.66030
     7  Na(23)             0.32347     382.67522     136.54803     127.64671
 --------------------------------------------------------
       Center         ----  Spin Dipole Couplings  ----
                      3XX-RR        3YY-RR        3ZZ-RR
 --------------------------------------------------------
     1   Atom       -0.021265      0.037703     -0.016438
     2   Atom        0.001084     -0.002684      0.001600
     3   Atom        0.020377     -0.011609     -0.008768
     4   Atom       -0.003434      0.001410      0.002023
     5   Atom        0.028898     -0.010289     -0.018609
     6   Atom        0.062776     -0.032251     -0.030525
     7   Atom       -0.006404      0.003576      0.002828
 --------------------------------------------------------
                        XY            XZ            YZ
 --------------------------------------------------------
     1   Atom       -0.013477      0.001858     -0.002286
     2   Atom       -0.001289     -0.000413     -0.001519
     3   Atom        0.010991     -0.000302      0.000130
     4   Atom        0.004290     -0.001002      0.000153
     5   Atom       -0.026793     -0.000714      0.001635
     6   Atom        0.006494      0.004082      0.000245
     7   Atom        0.000572     -0.003593     -0.000162
 --------------------------------------------------------


 ---------------------------------------------------------------------------------
              Anisotropic Spin Dipole Couplings in Principal Axis System
 ---------------------------------------------------------------------------------

       Atom             a.u.   MegaHertz   Gauss  10(-4) cm-1        Axes

              Baa    -0.0244    -3.449    -1.231    -1.150  0.9649  0.2032 -0.1663
     1 Na(23) Bbb    -0.0163    -2.307    -0.823    -0.769  0.1530  0.0798  0.9850
              Bcc     0.0408     5.756     2.054     1.920 -0.2134  0.9759 -0.0459
 
              Baa    -0.0036    -0.503    -0.179    -0.168  0.2797  0.9147  0.2916
     2 Na(23) Bbb     0.0015     0.209     0.074     0.070  0.9601 -0.2674 -0.0823
              Bcc     0.0021     0.294     0.105     0.098 -0.0027 -0.3030  0.9530
 
              Baa    -0.0150    -2.122    -0.757    -0.708 -0.2966  0.9544 -0.0341
     3 Na(23) Bbb    -0.0088    -1.237    -0.442    -0.413 -0.0028  0.0348  0.9994
              Bcc     0.0238     3.360     1.199     1.121  0.9550  0.2965 -0.0077
 
              Baa    -0.0060    -0.854    -0.305    -0.285  0.8599 -0.4970  0.1162
     4 Na(23) Bbb     0.0021     0.291     0.104     0.097 -0.0005  0.2267  0.9740
              Bcc     0.0040     0.563     0.201     0.188  0.5104  0.8376 -0.1947
 
              Baa    -0.0241    -3.406    -1.216    -1.136  0.4395  0.8751 -0.2026
     5 Na(23) Bbb    -0.0184    -2.599    -0.927    -0.867  0.1115  0.1707  0.9790
              Bcc     0.0425     6.006     2.143     2.003  0.8913 -0.4528 -0.0225
 
              Baa    -0.0327    -4.617    -1.647    -1.540 -0.0686  0.9975  0.0166
     6 Na(23) Bbb    -0.0307    -4.336    -1.547    -1.446 -0.0423 -0.0195  0.9989
              Bcc     0.0634     8.952     3.194     2.986  0.9968  0.0678  0.0435
 
              Baa    -0.0077    -1.081    -0.386    -0.361  0.9453 -0.0435  0.3232
     7 Na(23) Bbb     0.0034     0.483     0.172     0.161 -0.1145  0.8838  0.4536
              Bcc     0.0042     0.599     0.214     0.200 -0.3054 -0.4658  0.8305
 

 ---------------------------------------------------------------------------------

 No NMR shielding tensors so no spin-rotation constants.
 Leave Link  601 at Wed Nov 29 02:15:46 2023, MaxMem=  1879048192 cpu:               2.2 elap:               0.2
 (Enter /home/sekinelabo/g16/l701.exe)
 ... and contract with generalized density number  0.
 Compute integral first derivatives.
 Leave Link  701 at Wed Nov 29 02:15:47 2023, MaxMem=  1879048192 cpu:               1.5 elap:               0.1
 (Enter /home/sekinelabo/g16/l702.exe)
 L702 exits ... SP integral derivatives will be done elsewhere.
 Leave Link  702 at Wed Nov 29 02:15:47 2023, MaxMem=  1879048192 cpu:               0.4 elap:               0.0
 (Enter /home/sekinelabo/g16/l703.exe)
 Integral derivatives from FoFJK, PRISM(SPDF).
 Compute integral first derivatives, UseDBF=F ICtDFT=           0.
 Calling FoFJK, ICntrl=      2127 FMM=F ISym2X=0 I1Cent= 0 IOpClX= 1 NMat=1 NMatS=1 NMatT=0.
 FoFJK:  IHMeth= 1 ICntrl=    2127 DoSepK=F KAlg= 0 I1Cent=           0 FoldK=F
 IRaf=         0 NMat=       1 IRICut=       1 DoRegI=T DoRafI=F ISym2E= 0 IDoP0=0 IntGTp=1.
 FoFCou: FMM=F IPFlag=           0 FMFlag=      100000 FMFlg1=         800
         NFxFlg=           0 DoJE=F BraDBF=F KetDBF=F FulRan=T
         wScrn=  0.000000 ICntrl=      2127 IOpCl=  1 I1Cent=           0 NGrid=           0
         NMat0=    1 NMatS0=      1 NMatT0=    0 NMatD0=    1 NMtDS0=    0 NMtDT0=    0
 Symmetry not used in FoFCou.
 Leave Link  703 at Wed Nov 29 02:15:49 2023, MaxMem=  1879048192 cpu:              28.4 elap:               1.9
 (Enter /home/sekinelabo/g16/l716.exe)
 Dipole        = 6.89531280D-01 2.09185441D-01-3.18840694D-02
 ***** Axes restored to original set *****
 -------------------------------------------------------------------
 Center     Atomic                   Forces (Hartrees/Bohr)
 Number     Number              X              Y              Z
 -------------------------------------------------------------------
      1       11          -0.002992005    0.002911328    0.003351301
      2       11           0.003259257    0.000711370   -0.000103031
      3       11           0.000757841    0.000085717   -0.002207439
      4       11          -0.000298499   -0.004242607   -0.001815546
      5       11          -0.003615977    0.000758774    0.000814855
      6       11           0.003280430    0.000814467    0.000164001
      7       11          -0.000391047   -0.001039049   -0.000204141
 -------------------------------------------------------------------
 Cartesian Forces:  Max     0.004242607 RMS     0.002112082
 Z-matrix is all fixed cartesians, so copy forces.
 Force constants in Cartesian coordinates: 
                1             2             3             4             5 
      1  0.743713D-01
      2  0.271103D-02  0.691649D-01
      3 -0.148439D-01  0.363012D-02  0.619118D-01
      4 -0.256415D-01  0.337949D-02  0.104941D-01  0.205640D-01
      5 -0.399842D-02 -0.166113D-01  0.596633D-02 -0.100412D-02  0.139561D-01
      6  0.661977D-02 -0.207545D-02 -0.248362D-01 -0.933150D-02  0.496985D-02
      7 -0.236708D-01  0.898217D-02  0.775370D-02  0.194630D-02  0.154890D-02
      8 -0.757146D-02 -0.158956D-01 -0.297402D-02 -0.172254D-02 -0.968844D-03
      9  0.104644D-02 -0.361965D-02 -0.102917D-01 -0.325969D-02 -0.380564D-02
     10  0.571666D-02 -0.345169D-02 -0.238527D-02 -0.137787D-04  0.753368D-05
     11 -0.289132D-02  0.440613D-03 -0.347649D-03  0.174588D-04  0.000000D+00
     12 -0.262513D-02 -0.145635D-02  0.367082D-02 -0.223423D-04 -0.847851D-05
     13 -0.172110D-01 -0.570335D-02  0.205946D-02  0.243085D-02  0.380255D-02
     14  0.226023D-02 -0.188892D-01 -0.500597D-02  0.469494D-03  0.187428D-02
     15  0.739797D-02  0.236449D-02 -0.167111D-01 -0.123163D-02 -0.381207D-02
     16 -0.116528D-01 -0.197990D-02 -0.379440D-02  0.687967D-03 -0.396477D-03
     17  0.791789D-02 -0.214229D-01 -0.713593D-03 -0.113608D-02  0.175578D-02
     18  0.169100D-02 -0.204217D-03 -0.136276D-01  0.328113D-02 -0.341715D-02
     19 -0.191188D-02 -0.393775D-02  0.716298D-03  0.261237D-04  0.400354D-04
     20  0.157205D-02  0.321346D-02 -0.555221D-03 -0.370160D-05 -0.567283D-05
     21  0.713824D-03  0.136106D-02 -0.116157D-03  0.699250D-04  0.107163D-03
                6             7             8             9            10 
      6  0.222707D-01
      7  0.115945D-02  0.650473D-01
      8 -0.115698D-02 -0.503345D-02  0.457688D-01
      9 -0.154757D-02 -0.116589D-01  0.186061D-01  0.305728D-01
     10 -0.142287D-04 -0.766836D-02  0.101658D-01  0.562969D-02  0.249952D-01
     11  0.150367D-04 -0.577973D-02 -0.116372D-01 -0.382349D-02  0.300955D-02
     12 -0.163371D-04 -0.227122D-02 -0.767039D-02 -0.405528D-02 -0.158679D-02
     13  0.840161D-03 -0.326855D-01  0.385703D-02  0.812109D-02 -0.242496D-01
     14 -0.208697D-03  0.645165D-03 -0.235834D-01 -0.918508D-02 -0.673742D-02
     15  0.187934D-03  0.340361D-02 -0.843980D-02 -0.196275D-01 -0.204707D-02
     16  0.717052D-03 -0.297600D-02  0.342274D-03  0.662197D-04  0.119256D-02
     17 -0.154245D-02 -0.356780D-03  0.628011D-02  0.187536D-02 -0.295987D-02
     18  0.391656D-02  0.161801D-02  0.159780D-02  0.497979D-02  0.465016D-03
     19  0.929890D-05  0.708270D-05 -0.376158D-04  0.551241D-04  0.272984D-04
     20 -0.131761D-05 -0.627313D-05  0.361284D-04 -0.475489D-04 -0.338598D-04
     21  0.248903D-04 -0.465842D-05  0.373438D-04 -0.305448D-04 -0.613452D-04
               11            12            13            14            15 
     11  0.260034D-01
     12  0.798855D-02  0.114890D-01
     13  0.710571D-02  0.636883D-02  0.859317D-01
     14 -0.186521D-01  0.270848D-02 -0.460309D-02  0.800238D-01
     15 -0.280737D-02 -0.137185D-01 -0.102190D-01  0.120050D-01  0.639819D-01
     16 -0.145471D-02  0.255188D-03 -0.152127D-01  0.114323D-01  0.191444D-03
     17  0.383706D-02 -0.170885D-02 -0.390304D-02 -0.227228D-01  0.211958D-02
     18 -0.104071D-02  0.236385D-02 -0.797845D-02  0.243010D-02 -0.159998D-01
     19 -0.695594D-05 -0.118541D-03  0.996115D-03 -0.346665D-02  0.250471D-02
     20  0.862787D-05  0.147033D-03 -0.555798D-03  0.194944D-02 -0.142978D-02
     21  0.156315D-04  0.266386D-03  0.807937D-03 -0.274380D-02  0.188706D-02
               16            17            18            19            20 
     16  0.454365D-01
     17  0.168017D-02  0.606589D-01
     18  0.231227D-02 -0.572661D-02  0.250350D-01
     19 -0.174755D-01 -0.124229D-02 -0.138898D-02  0.183308D-01
     20 -0.962364D-02 -0.283861D-01  0.636079D-02  0.865123D-02  0.231842D-01
     21  0.252223D-03  0.569656D-02 -0.666787D-02 -0.177791D-02 -0.447396D-02
               21 
     21  0.463623D-02
 Leave Link  716 at Wed Nov 29 02:15:49 2023, MaxMem=  1879048192 cpu:               0.4 elap:               0.0
 (Enter /home/sekinelabo/g16/l103.exe)

 GradGradGradGradGradGradGradGradGradGradGradGradGradGradGradGradGradGrad
 Berny optimization.
 Search for a local minimum.
 Step number   1 out of a maximum of    2
 All quantities printed in internal units (Hartrees-Bohrs-Radians)
 Second derivative matrix not updated -- first step.
 ITU=  0
     Eigenvalues ---    0.00609   0.01089   0.01304   0.01705   0.02081
     Eigenvalues ---    0.03102   0.04313   0.05542   0.06218   0.06969
     Eigenvalues ---    0.08297   0.09657   0.10983   0.11837   0.13085
 Quadratic step=3.299D-01 exceeds max=3.000D-01 adjusted using Lamda=-1.699D-03.
 Angle between NR and scaled steps=   1.56 degrees.
 Angle between quadratic step and forces=  40.60 degrees.
 Linear search not attempted -- first point.
 B after Tr=     0.000000   -0.000000    0.000000
         Rot=    1.000000    0.000000    0.000000   -0.000000 Ang=   0.00 deg.
 Variable       Old X    -DE/DX   Delta X   Delta X   Delta X     New X
                                 (Linear)    (Quad)   (Total)
    X1       28.95571  -0.00299   0.00000  -0.03906  -0.03906  28.91665
    Y1       25.95520   0.00291   0.00000   0.06951   0.06951  26.02471
    Z1       27.38327   0.00335   0.00000   0.05800   0.05800  27.44126
    X2       32.65012   0.00326   0.00000   0.09582   0.09582  32.74594
    Y2       24.54849   0.00071   0.00000   0.08054   0.08054  24.62903
    Z2       23.06089  -0.00010   0.00000   0.08389   0.08389  23.14479
    X3       34.51906   0.00076   0.00000  -0.08111  -0.08111  34.43795
    Y3       29.81667   0.00009   0.00000  -0.00930  -0.00930  29.80737
    Z3       28.66450  -0.00221   0.00000  -0.07219  -0.07219  28.59231
    X4       34.74110  -0.00030   0.00000  -0.02868  -0.02868  34.71242
    Y4       36.53861  -0.00424   0.00000  -0.16438  -0.16438  36.37423
    Z4       32.08547  -0.00182   0.00000  -0.07685  -0.07685  32.00862
    X5       29.66454  -0.00362   0.00000  -0.05150  -0.05150  29.61304
    Y5       32.21870   0.00076   0.00000  -0.01704  -0.01704  32.20166
    Z5       31.16990   0.00081   0.00000  -0.00612  -0.00612  31.16378
    X6       22.96565   0.00328   0.00000   0.05762   0.05762  23.02327
    Y6       29.30285   0.00081   0.00000   0.04562   0.04562  29.34846
    Z6       29.79834   0.00016   0.00000   0.03454   0.03454  29.83288
    X7       19.50859  -0.00039   0.00000   0.04691   0.04691  19.55550
    Y7       24.62445  -0.00104   0.00000  -0.00496  -0.00496  24.61950
    Z7       30.84222  -0.00020   0.00000  -0.02127  -0.02127  30.82095
         Item               Value     Threshold  Converged?
 Maximum Force            0.004243     0.000450     NO 
 RMS     Force            0.002112     0.000300     NO 
 Maximum Displacement     0.164377     0.001800     NO 
 RMS     Displacement     0.065575     0.001200     NO 
 Predicted change in Energy=-1.180926D-03
 GradGradGradGradGradGradGradGradGradGradGradGradGradGradGradGradGradGrad

 Leave Link  103 at Wed Nov 29 02:15:49 2023, MaxMem=  1879048192 cpu:               0.2 elap:               0.0
 (Enter /home/sekinelabo/g16/l9999.exe)
 1\1\GINC-SEKINELABO-XA7R-R37\Force\UB3LYP\6-311+G(d)\Na7(2)\SEKINELABO
 \29-Nov-2023\0\\#P B3LYP/6-311+g(d) force\\DPGEN\\0,2\Na,15.3227,13.73
 49,14.4906\Na,17.2777,12.9905,12.2033\Na,18.2667,15.7783,15.1686\Na,18
 .3842,19.3354,16.9789\Na,15.6978,17.0494,16.4944\Na,12.1529,15.5064,15
 .7686\Na,10.3235,13.0307,16.321\\Version=ES64L-G16RevB.01\State=2-A\HF
 =-1136.119488\S2=0.781671\S2-1=0.\S2A=0.750551\RMSD=7.330e-09\RMSF=2.1
 12e-03\Dipole=0.6886308,0.1905559,-0.0985119\Quadrupole=-1.7295524,3.1
 701962,-1.4406439,2.0356762,-1.1054752,3.5955047\PG=C01 [X(Na7)]\\@


 ALTHOUGH J.J. COULD DIAGNOSE THE FAULTS OF AN
 APPARATUS WITH UNCANNY ACCURACY, IT WAS JUST AS
 WELL NOT TO LET HIM HANDLE IT.
   -- GEORGE THOMPSON, ABOUT HIS FATHER
 Job cpu time:       0 days  0 hours  3 minutes 38.1 seconds.
 Elapsed time:       0 days  0 hours  0 minutes 18.9 seconds.
 File lengths (MBytes):  RWF=     32 Int=      0 D2E=      0 Chk=      4 Scr=      1
 Normal termination of Gaussian 16 at Wed Nov 29 02:15:49 2023.
