ITEM: TIMESTEP
9460
ITEM: NUMBER OF ATOMS
7
ITEM: BOX BOUNDS xy xz yz ff ff ff
0.0000000000000000e+00 2.3418709425700001e+01 0.0000000000000000e+00
0.0000000000000000e+00 2.3418709425700001e+01 0.0000000000000000e+00
0.0000000000000000e+00 2.3418709425700001e+01 0.0000000000000000e+00
ITEM: ATOMS id type x y z fx fy fz
2 1 14.0888 9.95904 13.1064 -0.016692 0.136323 -0.152878
3 1 16.2432 9.98629 9.79051 -0.0218177 -0.0335142 0.0791954
4 1 10.6726 12.2408 10.9865 -0.000260088 0.0382693 -0.0980423
1 1 14.2652 12.4668 10.3851 -0.0854008 -0.0508956 0.120486
5 1 7.34185 13.6167 10.2141 0.0957998 -0.0963501 0.107309
7 1 8.17648 11.5772 13.1703 -0.158472 0.0460108 -0.0924444
6 1 11.1775 12.1187 14.3126 0.186843 -0.0398437 0.0363742
