ITEM: TIMESTEP
8520
ITEM: NUMBER OF ATOMS
7
ITEM: BOX BOUNDS xy xz yz ff ff ff
0.0000000000000000e+00 2.4674327904100000e+01 0.0000000000000000e+00
0.0000000000000000e+00 2.4674327904100000e+01 0.0000000000000000e+00
0.0000000000000000e+00 2.4674327904100000e+01 0.0000000000000000e+00
ITEM: ATOMS id type x y z fx fy fz
6 1 12.4256 11.7762 9.52796 -0.0689521 0.0686996 0.0951053
3 1 13.8106 14.7305 10.6349 -0.0051434 -0.113567 0.0270257
5 1 11.5093 10.2155 12.5371 -0.0123901 -0.266086 -0.0426243
4 1 9.50733 12.8203 12.4198 0.0368842 0.0555609 0.00601602
1 1 12.762 12.8411 13.4051 0.105118 0.230551 0.0882196
2 1 15.0687 11.0174 11.3593 -0.0552651 0.0587633 0.0211119
7 1 11.2767 12.9592 16.476 -0.000251819 -0.0339214 -0.194854
