ITEM: TIMESTEP
550
ITEM: NUMBER OF ATOMS
7
ITEM: BOX BOUNDS xy xz yz ff ff ff
0.0000000000000000e+00 2.4953274245799999e+01 0.0000000000000000e+00
0.0000000000000000e+00 2.4953274245799999e+01 0.0000000000000000e+00
0.0000000000000000e+00 2.4953274245799999e+01 0.0000000000000000e+00
ITEM: ATOMS id type x y z fx fy fz
1 1 12.5991 10.1713 12.8434 0.171932 -0.204791 0.0426799
2 1 10.1704 15.3839 12.5289 0.11174 -0.0571375 0.0482343
3 1 10.7549 9.29942 10.5042 -0.0839062 -0.00183731 -0.111587
4 1 11.8291 12.6646 14.4634 -0.0549823 0.219569 0.182783
5 1 15.687 11.7025 12.7806 -0.140018 0.116289 0.00245256
6 1 12.2657 13.0596 11.2188 -0.0323387 -0.0659438 -0.236703
7 1 14.0302 15.0551 12.997 0.027573 -0.00614845 0.0721397
