ITEM: TIMESTEP
2080
ITEM: NUMBER OF ATOMS
7
ITEM: BOX BOUNDS xy xz yz ff ff ff
0.0000000000000000e+00 2.7005690006500000e+01 0.0000000000000000e+00
0.0000000000000000e+00 2.7005690006500000e+01 0.0000000000000000e+00
0.0000000000000000e+00 2.7005690006500000e+01 0.0000000000000000e+00
ITEM: ATOMS id type x y z fx fy fz
2 1 12.7871 14.8437 10.5194 0.014453 -0.0747946 0.277671
3 1 12.865 10.3285 14.9857 -0.0364626 0.0969791 0.0129534
4 1 10.7667 13.0715 13.1023 0.142964 -0.0389057 -0.0654464
5 1 14.6386 11.7745 12.6494 -0.0196886 0.147332 -0.0417999
7 1 16.0626 15.2963 13.2736 -0.0701668 -0.0259436 -0.120185
1 1 12.6196 15.6077 14.1919 0.0187028 0.0227048 -0.11146
6 1 14.7803 13.5977 15.7976 -0.0498016 -0.127372 0.048267
