 Set GAUSS_MDEF to "14GB".
 Entering Gaussian System, Link 0=g16
 Initial command:
 /home/sekinelabo/g16/l1.exe "/home/sekinelabo/g16temp/Gau-336124.inp" -scrdir="/home/sekinelabo/g16temp/"
 Entering Link 1 = /home/sekinelabo/g16/l1.exe PID=    336126.
  
 Copyright (c) 1988-2017, Gaussian, Inc.  All Rights Reserved.
  
 This is part of the Gaussian(R) 16 program.  It is based on
 the Gaussian(R) 09 system (copyright 2009, Gaussian, Inc.),
 the Gaussian(R) 03 system (copyright 2003, Gaussian, Inc.),
 the Gaussian(R) 98 system (copyright 1998, Gaussian, Inc.),
 the Gaussian(R) 94 system (copyright 1995, Gaussian, Inc.),
 the Gaussian 92(TM) system (copyright 1992, Gaussian, Inc.),
 the Gaussian 90(TM) system (copyright 1990, Gaussian, Inc.),
 the Gaussian 88(TM) system (copyright 1988, Gaussian, Inc.),
 the Gaussian 86(TM) system (copyright 1986, Carnegie Mellon
 University), and the Gaussian 82(TM) system (copyright 1983,
 Carnegie Mellon University). Gaussian is a federally registered
 trademark of Gaussian, Inc.
  
 This software contains proprietary and confidential information,
 including trade secrets, belonging to Gaussian, Inc.
  
 This software is provided under written license and may be
 used, copied, transmitted, or stored only in accord with that
 written license.
  
 The following legend is applicable only to US Government
 contracts under FAR:
  
                    RESTRICTED RIGHTS LEGEND
  
 Use, reproduction and disclosure by the US Government is
 subject to restrictions as set forth in subparagraphs (a)
 and (c) of the Commercial Computer Software - Restricted
 Rights clause in FAR 52.227-19.
  
 Gaussian, Inc.
 340 Quinnipiac St., Bldg. 40, Wallingford CT 06492
  
  
 ---------------------------------------------------------------
 Warning -- This program may not be used in any manner that
 competes with the business of Gaussian, Inc. or will provide
 assistance to any competitor of Gaussian, Inc.  The licensee
 of this program is prohibited from giving any competitor of
 Gaussian, Inc. access to this program.  By using this program,
 the user acknowledges that Gaussian, Inc. is engaged in the
 business of creating and licensing software in the field of
 computational chemistry and represents and warrants to the
 licensee that it is not a competitor of Gaussian, Inc. and that
 it will not use this program in any manner prohibited above.
 ---------------------------------------------------------------
  

 Cite this work as:
 Gaussian 16, Revision B.01,
 M. J. Frisch, G. W. Trucks, H. B. Schlegel, G. E. Scuseria, 
 M. A. Robb, J. R. Cheeseman, G. Scalmani, V. Barone, 
 G. A. Petersson, H. Nakatsuji, X. Li, M. Caricato, A. V. Marenich, 
 J. Bloino, B. G. Janesko, R. Gomperts, B. Mennucci, H. P. Hratchian, 
 J. V. Ortiz, A. F. Izmaylov, J. L. Sonnenberg, D. Williams-Young, 
 F. Ding, F. Lipparini, F. Egidi, J. Goings, B. Peng, A. Petrone, 
 T. Henderson, D. Ranasinghe, V. G. Zakrzewski, J. Gao, N. Rega, 
 G. Zheng, W. Liang, M. Hada, M. Ehara, K. Toyota, R. Fukuda, 
 J. Hasegawa, M. Ishida, T. Nakajima, Y. Honda, O. Kitao, H. Nakai, 
 T. Vreven, K. Throssell, J. A. Montgomery, Jr., J. E. Peralta, 
 F. Ogliaro, M. J. Bearpark, J. J. Heyd, E. N. Brothers, K. N. Kudin, 
 V. N. Staroverov, T. A. Keith, R. Kobayashi, J. Normand, 
 K. Raghavachari, A. P. Rendell, J. C. Burant, S. S. Iyengar, 
 J. Tomasi, M. Cossi, J. M. Millam, M. Klene, C. Adamo, R. Cammi, 
 J. W. Ochterski, R. L. Martin, K. Morokuma, O. Farkas, 
 J. B. Foresman, and D. J. Fox, Gaussian, Inc., Wallingford CT, 2016.
 
 ******************************************
 Gaussian 16:  ES64L-G16RevB.01 20-Dec-2017
                29-Nov-2023 
 ******************************************
 %nproc=15
 Will use up to   15 processors via shared memory.
 -------------------------
 #P B3LYP/6-311+g(d) force
 -------------------------
 1/10=7,30=1,38=1/1,3;
 2/12=2,17=6,18=5,40=1/2;
 3/5=4,6=6,7=11,11=2,25=1,30=1,71=1,74=-5/1,2,3;
 4//1;
 5/5=2,38=5/2;
 6/7=2,8=2,9=2,10=2,28=1/1;
 7/29=1/1,2,3,16;
 1/10=7,30=1/3;
 99//99;
 Leave Link    1 at Wed Nov 29 02:59:17 2023, MaxMem=           0 cpu:               0.3 elap:               0.0
 (Enter /home/sekinelabo/g16/l101.exe)
 -----
 DPGEN
 -----
 Symbolic Z-matrix:
 Charge =  0 Multiplicity = 2
 Na                    14.0232   16.1515   15.4155 
 Na                    14.1454   18.1665   17.5044 
 Na                    14.5875   15.2289   18.824 
 Na                    16.8838   14.4436   15.8166 
 Na                    15.9039   14.5101   12.391 
 Na                    16.4968   12.2409   17.8007 
 Na                    15.3849   16.6839   9.67325 
 
 ITRead=  0  0  0  0  0  0  0
 MicOpt= -1 -1 -1 -1 -1 -1 -1
 NAtoms=      7 NQM=        7 NQMF=       0 NMMI=      0 NMMIF=      0
                NMic=       0 NMicF=      0.
                    Isotopes and Nuclear Properties:
 (Nuclear quadrupole moments (NQMom) in fm**2, nuclear magnetic moments (NMagM)
  in nuclear magnetons)

  Atom         1           2           3           4           5           6           7
 IAtWgt=          23          23          23          23          23          23          23
 AtmWgt=  22.9897697  22.9897697  22.9897697  22.9897697  22.9897697  22.9897697  22.9897697
 NucSpn=           3           3           3           3           3           3           3
 AtZEff=  -0.0000000  -0.0000000  -0.0000000  -0.0000000  -0.0000000  -0.0000000  -0.0000000
 NQMom=   10.4000000  10.4000000  10.4000000  10.4000000  10.4000000  10.4000000  10.4000000
 NMagM=    2.2175200   2.2175200   2.2175200   2.2175200   2.2175200   2.2175200   2.2175200
 AtZNuc=  11.0000000  11.0000000  11.0000000  11.0000000  11.0000000  11.0000000  11.0000000
 Leave Link  101 at Wed Nov 29 02:59:18 2023, MaxMem=  1879048192 cpu:               2.4 elap:               0.2
 (Enter /home/sekinelabo/g16/l103.exe)

 GradGradGradGradGradGradGradGradGradGradGradGradGradGradGradGradGradGrad
 Berny optimization.
 Initialization pass.
 Trust Radius=3.00D-01 FncErr=1.00D-07 GrdErr=1.00D-07 EigMax=2.50D+02 EigMin=1.00D-04
 Number of steps in this run=      2 maximum allowed number of steps=      2.
 GradGradGradGradGradGradGradGradGradGradGradGradGradGradGradGradGradGrad

 Leave Link  103 at Wed Nov 29 02:59:18 2023, MaxMem=  1879048192 cpu:               0.2 elap:               0.0
 (Enter /home/sekinelabo/g16/l202.exe)
                          Input orientation:                          
 ---------------------------------------------------------------------
 Center     Atomic      Atomic             Coordinates (Angstroms)
 Number     Number       Type             X           Y           Z
 ---------------------------------------------------------------------
      1         11           0       14.023200   16.151500   15.415500
      2         11           0       14.145400   18.166500   17.504400
      3         11           0       14.587500   15.228900   18.824000
      4         11           0       16.883800   14.443600   15.816600
      5         11           0       15.903900   14.510100   12.391000
      6         11           0       16.496800   12.240900   17.800700
      7         11           0       15.384900   16.683900    9.673250
 ---------------------------------------------------------------------
                    Distance matrix (angstroms):
                    1          2          3          4          5
     1  Na   0.000000
     2  Na   2.904937   0.000000
     3  Na   3.575961   3.250583   0.000000
     4  Na   3.355717   4.920111   3.864472   0.000000
     5  Na   3.921585   6.527514   6.605533   3.563616   0.000000
     6  Na   5.205830   6.381975   3.690625   2.989701   5.896241
     7  Na   5.925463   8.066063   9.299951   6.708681   3.518655
                    6          7
     6  Na   0.000000
     7  Na   9.329095   0.000000
 Stoichiometry    Na7(2)
 Framework group  C1[X(Na7)]
 Deg. of freedom    15
 Full point group                 C1      NOp   1
 Largest Abelian subgroup         C1      NOp   1
 Largest concise Abelian subgroup C1      NOp   1
                         Standard orientation:                         
 ---------------------------------------------------------------------
 Center     Atomic      Atomic             Coordinates (Angstroms)
 Number     Number       Type             X           Y           Z
 ---------------------------------------------------------------------
      1         11           0        0.013743    1.348837   -0.764449
      2         11           0       -1.720516    3.288338    0.527580
      3         11           0       -3.476255    0.694358   -0.341290
      4         11           0       -0.553647   -1.471515    0.963126
      5         11           0        2.801643   -1.357257   -0.232004
      6         11           0       -2.876803   -2.944805   -0.207631
      7         11           0        5.811837    0.442044    0.054667
 ---------------------------------------------------------------------
 Rotational constants (GHZ):           0.7852062           0.3268298           0.2409248
 Leave Link  202 at Wed Nov 29 02:59:18 2023, MaxMem=  1879048192 cpu:               0.0 elap:               0.0
 (Enter /home/sekinelabo/g16/l301.exe)
 Standard basis: 6-311+G(d) (5D, 7F)
 Ernie: Thresh=  0.10000D-02 Tol=  0.10000D-05 Strict=F.
 There are   217 symmetry adapted cartesian basis functions of A   symmetry.
 There are   210 symmetry adapted basis functions of A   symmetry.
   210 basis functions,   350 primitive gaussians,   217 cartesian basis functions
    39 alpha electrons       38 beta electrons
       nuclear repulsion energy       294.3016188665 Hartrees.
 IExCor=  402 DFT=T Ex+Corr=B3LYP ExCW=0 ScaHFX=  0.200000
 ScaDFX=  0.800000  0.720000  1.000000  0.810000 ScalE2=  1.000000  1.000000
 IRadAn=      5 IRanWt=     -1 IRanGd=            0 ICorTp=0 IEmpDi=  4
 NAtoms=    7 NActive=    7 NUniq=    7 SFac= 1.00D+00 NAtFMM=   60 NAOKFM=F Big=F
 Integral buffers will be    131072 words long.
 Raffenetti 2 integral format.
 Two-electron integral symmetry is turned on.
 Leave Link  301 at Wed Nov 29 02:59:18 2023, MaxMem=  1879048192 cpu:               0.5 elap:               0.0
 (Enter /home/sekinelabo/g16/l302.exe)
 NPDir=0 NMtPBC=     1 NCelOv=     1 NCel=       1 NClECP=     1 NCelD=      1
         NCelK=      1 NCelE2=     1 NClLst=     1 CellRange=     0.0.
 One-electron integrals computed using PRISM.
 One-electron integral symmetry used in STVInt
 NBasis=   210 RedAO= T EigKep=  6.07D-06  NBF=   210
 NBsUse=   210 1.00D-06 EigRej= -1.00D+00 NBFU=   210
 Precomputing XC quadrature grid using
 IXCGrd= 4 IRadAn=           5 IRanWt=          -1 IRanGd=           0 AccXCQ= 0.00D+00.
 Generated NRdTot=       0 NPtTot=           0 NUsed=           0 NTot=          32
 NSgBfM=   206   206   206   206   206 MxSgAt=     7 MxSgA2=     7.
 Leave Link  302 at Wed Nov 29 02:59:18 2023, MaxMem=  1879048192 cpu:               2.0 elap:               0.1
 (Enter /home/sekinelabo/g16/l303.exe)
 DipDrv:  MaxL=1.
 Leave Link  303 at Wed Nov 29 02:59:18 2023, MaxMem=  1879048192 cpu:               0.5 elap:               0.0
 (Enter /home/sekinelabo/g16/l401.exe)
 ExpMin= 7.60D-03 ExpMax= 3.62D+04 ExpMxC= 1.21D+03 IAcc=3 IRadAn=         5 AccDes= 0.00D+00
 Harris functional with IExCor=  402 and IRadAn=       5 diagonalized for initial guess.
 HarFok:  IExCor=  402 AccDes= 0.00D+00 IRadAn=         5 IDoV= 1 UseB2=F ITyADJ=14
 ICtDFT=  3500011 ScaDFX=  1.000000  1.000000  1.000000  1.000000
 FoFCou: FMM=F IPFlag=           0 FMFlag=      100000 FMFlg1=           0
         NFxFlg=           0 DoJE=T BraDBF=F KetDBF=T FulRan=T
         wScrn=  0.000000 ICntrl=       500 IOpCl=  0 I1Cent=   200000004 NGrid=           0
         NMat0=    1 NMatS0=      1 NMatT0=    0 NMatD0=    1 NMtDS0=    0 NMtDT0=    0
 Petite list used in FoFCou.
 Harris En= -1135.88725650468    
 JPrj=0 DoOrth=F DoCkMO=F.
 Initial guess <Sx>= 0.0000 <Sy>= 0.0000 <Sz>= 0.5000 <S**2>= 0.7500 S= 0.5000
 Leave Link  401 at Wed Nov 29 02:59:18 2023, MaxMem=  1879048192 cpu:               4.2 elap:               0.3
 (Enter /home/sekinelabo/g16/l502.exe)
 Keep R1 and R2 ints in memory in canonical form, NReq=506573293.
 FoFCou: FMM=F IPFlag=           0 FMFlag=           0 FMFlg1=           0
         NFxFlg=           0 DoJE=F BraDBF=F KetDBF=F FulRan=T
         wScrn=  0.000000 ICntrl=       600 IOpCl=  0 I1Cent=           0 NGrid=           0
         NMat0=    1 NMatS0=  22155 NMatT0=    0 NMatD0=    1 NMtDS0=    0 NMtDT0=    0
 Symmetry not used in FoFCou.
 Two-electron integral symmetry not used.
 UHF open shell SCF:
 Using DIIS extrapolation, IDIIS=  1040.
 NGot=  1879048192 LenX=  1388082607 LenY=  1388035077
 Requested convergence on RMS density matrix=1.00D-08 within 128 cycles.
 Requested convergence on MAX density matrix=1.00D-06.
 Requested convergence on             energy=1.00D-06.
 No special actions if energy rises.

 Cycle   1  Pass 1  IDiag  1:
 E= -1136.09156009437    
 DIIS: error= 9.63D-03 at cycle   1 NSaved=   1.
 NSaved= 1 IEnMin= 1 EnMin= -1136.09156009437     IErMin= 1 ErrMin= 9.63D-03
 ErrMax= 9.63D-03  0.00D+00 EMaxC= 1.00D-01 BMatC= 1.83D-01 BMatP= 1.83D-01
 IDIUse=3 WtCom= 9.04D-01 WtEn= 9.63D-02
 Coeff-Com:  0.100D+01
 Coeff-En:   0.100D+01
 Coeff:      0.100D+01
 Gap=     0.051 Goal=   None    Shift=    0.000
 Gap=     0.044 Goal=   None    Shift=    0.000
 GapD=    0.044 DampG=0.250 DampE=1.000 DampFc=0.2500 IDamp=-1.
 Damping current iteration by 2.50D-01
 RMSDP=1.08D-02 MaxDP=1.42D+00              OVMax= 1.68D-01

 Cycle   2  Pass 1  IDiag  1:
 E= -1136.10048177142     Delta-E=       -0.008921677050 Rises=F Damp=T
 DIIS: error= 6.90D-03 at cycle   2 NSaved=   2.
 NSaved= 2 IEnMin= 2 EnMin= -1136.10048177142     IErMin= 2 ErrMin= 6.90D-03
 ErrMax= 6.90D-03  0.00D+00 EMaxC= 1.00D-01 BMatC= 7.09D-02 BMatP= 1.83D-01
 IDIUse=3 WtCom= 9.31D-01 WtEn= 6.90D-02
 Coeff-Com: -0.130D+01 0.230D+01
 Coeff-En:   0.000D+00 0.100D+01
 Coeff:     -0.121D+01 0.221D+01
 Gap=     0.051 Goal=   None    Shift=    0.000
 Gap=     0.048 Goal=   None    Shift=    0.000
 RMSDP=8.90D-03 MaxDP=1.29D+00 DE=-8.92D-03 OVMax= 1.77D-01

 Cycle   3  Pass 1  IDiag  1:
 E= -1136.11659802672     Delta-E=       -0.016116255299 Rises=F Damp=F
 DIIS: error= 2.51D-03 at cycle   3 NSaved=   3.
 NSaved= 3 IEnMin= 3 EnMin= -1136.11659802672     IErMin= 3 ErrMin= 2.51D-03
 ErrMax= 2.51D-03  0.00D+00 EMaxC= 1.00D-01 BMatC= 1.87D-03 BMatP= 7.09D-02
 IDIUse=3 WtCom= 9.75D-01 WtEn= 2.51D-02
 Coeff-Com: -0.175D+00 0.299D+00 0.876D+00
 Coeff-En:   0.000D+00 0.000D+00 0.100D+01
 Coeff:     -0.171D+00 0.292D+00 0.879D+00
 Gap=     0.054 Goal=   None    Shift=    0.000
 Gap=     0.046 Goal=   None    Shift=    0.000
 RMSDP=2.21D-03 MaxDP=1.40D-01 DE=-1.61D-02 OVMax= 1.07D-01

 Cycle   4  Pass 1  IDiag  1:
 E= -1136.11582726134     Delta-E=        0.000770765382 Rises=F Damp=F
 DIIS: error= 2.97D-03 at cycle   4 NSaved=   4.
 NSaved= 4 IEnMin= 3 EnMin= -1136.11659802672     IErMin= 3 ErrMin= 2.51D-03
 ErrMax= 2.97D-03  0.00D+00 EMaxC= 1.00D-01 BMatC= 2.66D-03 BMatP= 1.87D-03
 IDIUse=3 WtCom= 1.55D-01 WtEn= 8.45D-01
 Coeff-Com: -0.122D-01 0.158D-01 0.544D+00 0.452D+00
 Coeff-En:   0.000D+00 0.000D+00 0.565D+00 0.435D+00
 Coeff:     -0.189D-02 0.245D-02 0.562D+00 0.438D+00
 Gap=     0.050 Goal=   None    Shift=    0.000
 Gap=     0.049 Goal=   None    Shift=    0.000
 RMSDP=1.11D-03 MaxDP=7.74D-02 DE= 7.71D-04 OVMax= 6.58D-02

 Cycle   5  Pass 1  IDiag  1:
 E= -1136.11877843347     Delta-E=       -0.002951172125 Rises=F Damp=F
 DIIS: error= 2.03D-04 at cycle   5 NSaved=   5.
 NSaved= 5 IEnMin= 5 EnMin= -1136.11877843347     IErMin= 5 ErrMin= 2.03D-04
 ErrMax= 2.03D-04  0.00D+00 EMaxC= 1.00D-01 BMatC= 1.67D-05 BMatP= 1.87D-03
 IDIUse=3 WtCom= 9.98D-01 WtEn= 2.03D-03
 Coeff-Com:  0.432D-02-0.663D-02 0.128D+00 0.790D-01 0.795D+00
 Coeff-En:   0.000D+00 0.000D+00 0.000D+00 0.000D+00 0.100D+01
 Coeff:      0.431D-02-0.661D-02 0.128D+00 0.788D-01 0.795D+00
 Gap=     0.049 Goal=   None    Shift=    0.000
 Gap=     0.049 Goal=   None    Shift=    0.000
 RMSDP=2.13D-04 MaxDP=1.35D-02 DE=-2.95D-03 OVMax= 1.03D-02

 Cycle   6  Pass 1  IDiag  1:
 E= -1136.11880613931     Delta-E=       -0.000027705845 Rises=F Damp=F
 DIIS: error= 1.26D-04 at cycle   6 NSaved=   6.
 NSaved= 6 IEnMin= 6 EnMin= -1136.11880613931     IErMin= 6 ErrMin= 1.26D-04
 ErrMax= 1.26D-04  0.00D+00 EMaxC= 1.00D-01 BMatC= 9.27D-06 BMatP= 1.67D-05
 IDIUse=3 WtCom= 9.99D-01 WtEn= 1.26D-03
 Coeff-Com:  0.536D-02-0.755D-02-0.854D-01-0.849D-01 0.487D+00 0.685D+00
 Coeff-En:   0.000D+00 0.000D+00 0.000D+00 0.000D+00 0.000D+00 0.100D+01
 Coeff:      0.535D-02-0.754D-02-0.853D-01-0.848D-01 0.487D+00 0.686D+00
 Gap=     0.049 Goal=   None    Shift=    0.000
 Gap=     0.050 Goal=   None    Shift=    0.000
 RMSDP=1.37D-04 MaxDP=6.99D-03 DE=-2.77D-05 OVMax= 6.73D-03

 Cycle   7  Pass 1  IDiag  1:
 E= -1136.11882508542     Delta-E=       -0.000018946105 Rises=F Damp=F
 DIIS: error= 3.83D-05 at cycle   7 NSaved=   7.
 NSaved= 7 IEnMin= 7 EnMin= -1136.11882508542     IErMin= 7 ErrMin= 3.83D-05
 ErrMax= 3.83D-05  0.00D+00 EMaxC= 1.00D-01 BMatC= 9.43D-07 BMatP= 9.27D-06
 IDIUse=1 WtCom= 1.00D+00 WtEn= 0.00D+00
 Coeff-Com:  0.818D-03-0.979D-03-0.637D-01-0.475D-01 0.250D-02 0.200D+00
 Coeff-Com:  0.909D+00
 Coeff:      0.818D-03-0.979D-03-0.637D-01-0.475D-01 0.250D-02 0.200D+00
 Coeff:      0.909D+00
 Gap=     0.050 Goal=   None    Shift=    0.000
 Gap=     0.050 Goal=   None    Shift=    0.000
 RMSDP=7.35D-05 MaxDP=6.43D-03 DE=-1.89D-05 OVMax= 3.36D-03

 Cycle   8  Pass 1  IDiag  1:
 E= -1136.11882870950     Delta-E=       -0.000003624080 Rises=F Damp=F
 DIIS: error= 1.40D-05 at cycle   8 NSaved=   8.
 NSaved= 8 IEnMin= 8 EnMin= -1136.11882870950     IErMin= 8 ErrMin= 1.40D-05
 ErrMax= 1.40D-05  0.00D+00 EMaxC= 1.00D-01 BMatC= 1.01D-07 BMatP= 9.43D-07
 IDIUse=1 WtCom= 1.00D+00 WtEn= 0.00D+00
 Coeff-Com:  0.315D-04 0.531D-04 0.110D-02 0.462D-02-0.740D-01-0.820D-01
 Coeff-Com:  0.104D+00 0.105D+01
 Coeff:      0.315D-04 0.531D-04 0.110D-02 0.462D-02-0.740D-01-0.820D-01
 Coeff:      0.104D+00 0.105D+01
 Gap=     0.050 Goal=   None    Shift=    0.000
 Gap=     0.050 Goal=   None    Shift=    0.000
 RMSDP=3.17D-05 MaxDP=1.84D-03 DE=-3.62D-06 OVMax= 1.80D-03

 Cycle   9  Pass 1  IDiag  1:
 E= -1136.11882925640     Delta-E=       -0.000000546900 Rises=F Damp=F
 DIIS: error= 8.42D-06 at cycle   9 NSaved=   9.
 NSaved= 9 IEnMin= 9 EnMin= -1136.11882925640     IErMin= 9 ErrMin= 8.42D-06
 ErrMax= 8.42D-06  0.00D+00 EMaxC= 1.00D-01 BMatC= 2.67D-08 BMatP= 1.01D-07
 IDIUse=1 WtCom= 1.00D+00 WtEn= 0.00D+00
 Coeff-Com: -0.271D-04 0.711D-04 0.507D-02 0.487D-02-0.241D-01-0.384D-01
 Coeff-Com: -0.502D-01 0.383D+00 0.720D+00
 Coeff:     -0.271D-04 0.711D-04 0.507D-02 0.487D-02-0.241D-01-0.384D-01
 Coeff:     -0.502D-01 0.383D+00 0.720D+00
 Gap=     0.050 Goal=   None    Shift=    0.000
 Gap=     0.050 Goal=   None    Shift=    0.000
 RMSDP=9.70D-06 MaxDP=5.32D-04 DE=-5.47D-07 OVMax= 4.44D-04

 Cycle  10  Pass 1  IDiag  1:
 E= -1136.11882931916     Delta-E=       -0.000000062765 Rises=F Damp=F
 DIIS: error= 5.90D-06 at cycle  10 NSaved=  10.
 NSaved=10 IEnMin=10 EnMin= -1136.11882931916     IErMin=10 ErrMin= 5.90D-06
 ErrMax= 5.90D-06  0.00D+00 EMaxC= 1.00D-01 BMatC= 1.15D-08 BMatP= 2.67D-08
 IDIUse=1 WtCom= 1.00D+00 WtEn= 0.00D+00
 Coeff-Com: -0.879D-04 0.111D-03 0.329D-02 0.194D-02 0.636D-02 0.813D-03
 Coeff-Com: -0.597D-01-0.902D-01 0.403D+00 0.735D+00
 Coeff:     -0.879D-04 0.111D-03 0.329D-02 0.194D-02 0.636D-02 0.813D-03
 Coeff:     -0.597D-01-0.902D-01 0.403D+00 0.735D+00
 Gap=     0.050 Goal=   None    Shift=    0.000
 Gap=     0.050 Goal=   None    Shift=    0.000
 RMSDP=5.64D-06 MaxDP=3.60D-04 DE=-6.28D-08 OVMax= 3.11D-04

 Cycle  11  Pass 1  IDiag  1:
 E= -1136.11882935405     Delta-E=       -0.000000034890 Rises=F Damp=F
 DIIS: error= 2.62D-06 at cycle  11 NSaved=  11.
 NSaved=11 IEnMin=11 EnMin= -1136.11882935405     IErMin=11 ErrMin= 2.62D-06
 ErrMax= 2.62D-06  0.00D+00 EMaxC= 1.00D-01 BMatC= 1.97D-09 BMatP= 1.15D-08
 IDIUse=1 WtCom= 1.00D+00 WtEn= 0.00D+00
 Coeff-Com: -0.454D-04 0.499D-04-0.300D-03-0.757D-03 0.884D-02 0.969D-02
 Coeff-Com: -0.810D-02-0.127D+00-0.736D-01 0.241D+00 0.950D+00
 Coeff:     -0.454D-04 0.499D-04-0.300D-03-0.757D-03 0.884D-02 0.969D-02
 Coeff:     -0.810D-02-0.127D+00-0.736D-01 0.241D+00 0.950D+00
 Gap=     0.050 Goal=   None    Shift=    0.000
 Gap=     0.050 Goal=   None    Shift=    0.000
 RMSDP=3.80D-06 MaxDP=2.27D-04 DE=-3.49D-08 OVMax= 2.10D-04

 Cycle  12  Pass 1  IDiag  1:
 E= -1136.11882936529     Delta-E=       -0.000000011238 Rises=F Damp=F
 DIIS: error= 1.32D-06 at cycle  12 NSaved=  12.
 NSaved=12 IEnMin=12 EnMin= -1136.11882936529     IErMin=12 ErrMin= 1.32D-06
 ErrMax= 1.32D-06  0.00D+00 EMaxC= 1.00D-01 BMatC= 4.15D-10 BMatP= 1.97D-09
 IDIUse=1 WtCom= 1.00D+00 WtEn= 0.00D+00
 Coeff-Com:  0.221D-04-0.303D-04-0.601D-03-0.329D-03-0.136D-02-0.774D-04
 Coeff-Com:  0.118D-01 0.121D-01-0.995D-01-0.139D+00 0.931D-01 0.112D+01
 Coeff:      0.221D-04-0.303D-04-0.601D-03-0.329D-03-0.136D-02-0.774D-04
 Coeff:      0.118D-01 0.121D-01-0.995D-01-0.139D+00 0.931D-01 0.112D+01
 Gap=     0.050 Goal=   None    Shift=    0.000
 Gap=     0.050 Goal=   None    Shift=    0.000
 RMSDP=2.33D-06 MaxDP=1.33D-04 DE=-1.12D-08 OVMax= 1.38D-04

 Cycle  13  Pass 1  IDiag  1:
 E= -1136.11882936879     Delta-E=       -0.000000003502 Rises=F Damp=F
 DIIS: error= 6.16D-07 at cycle  13 NSaved=  13.
 NSaved=13 IEnMin=13 EnMin= -1136.11882936879     IErMin=13 ErrMin= 6.16D-07
 ErrMax= 6.16D-07  0.00D+00 EMaxC= 1.00D-01 BMatC= 1.16D-10 BMatP= 4.15D-10
 IDIUse=1 WtCom= 1.00D+00 WtEn= 0.00D+00
 Coeff-Com:  0.279D-04-0.347D-04-0.552D-04 0.181D-03-0.314D-02-0.312D-02
 Coeff-Com:  0.543D-02 0.432D-01 0.117D-01-0.105D+00-0.305D+00 0.194D+00
 Coeff-Com:  0.116D+01
 Coeff:      0.279D-04-0.347D-04-0.552D-04 0.181D-03-0.314D-02-0.312D-02
 Coeff:      0.543D-02 0.432D-01 0.117D-01-0.105D+00-0.305D+00 0.194D+00
 Coeff:      0.116D+01
 Gap=     0.050 Goal=   None    Shift=    0.000
 Gap=     0.050 Goal=   None    Shift=    0.000
 RMSDP=1.47D-06 MaxDP=8.26D-05 DE=-3.50D-09 OVMax= 8.67D-05

 Cycle  14  Pass 1  IDiag  1:
 E= -1136.11882936986     Delta-E=       -0.000000001074 Rises=F Damp=F
 DIIS: error= 2.16D-07 at cycle  14 NSaved=  14.
 NSaved=14 IEnMin=14 EnMin= -1136.11882936986     IErMin=14 ErrMin= 2.16D-07
 ErrMax= 2.16D-07  0.00D+00 EMaxC= 1.00D-01 BMatC= 1.85D-11 BMatP= 1.16D-10
 IDIUse=1 WtCom= 1.00D+00 WtEn= 0.00D+00
 Coeff-Com: -0.110D-04 0.148D-04 0.820D-04 0.105D-04 0.275D-03 0.254D-03
 Coeff-Com: -0.119D-02-0.509D-02 0.111D-01 0.335D-01 0.147D-01-0.235D+00
 Coeff-Com: -0.680D-01 0.125D+01
 Coeff:     -0.110D-04 0.148D-04 0.820D-04 0.105D-04 0.275D-03 0.254D-03
 Coeff:     -0.119D-02-0.509D-02 0.111D-01 0.335D-01 0.147D-01-0.235D+00
 Coeff:     -0.680D-01 0.125D+01
 Gap=     0.050 Goal=   None    Shift=    0.000
 Gap=     0.050 Goal=   None    Shift=    0.000
 RMSDP=5.82D-07 MaxDP=2.62D-05 DE=-1.07D-09 OVMax= 3.21D-05

 Cycle  15  Pass 1  IDiag  1:
 E= -1136.11882937003     Delta-E=       -0.000000000170 Rises=F Damp=F
 DIIS: error= 7.90D-08 at cycle  15 NSaved=  15.
 NSaved=15 IEnMin=15 EnMin= -1136.11882937003     IErMin=15 ErrMin= 7.90D-08
 ErrMax= 7.90D-08  0.00D+00 EMaxC= 1.00D-01 BMatC= 5.14D-12 BMatP= 1.85D-11
 IDIUse=1 WtCom= 1.00D+00 WtEn= 0.00D+00
 Coeff-Com: -0.882D-05 0.115D-04 0.590D-04-0.127D-04 0.493D-03 0.508D-03
 Coeff-Com: -0.127D-02-0.778D-02 0.626D-03 0.297D-01 0.531D-01-0.106D+00
 Coeff-Com: -0.238D+00 0.461D+00 0.807D+00
 Coeff:     -0.882D-05 0.115D-04 0.590D-04-0.127D-04 0.493D-03 0.508D-03
 Coeff:     -0.127D-02-0.778D-02 0.626D-03 0.297D-01 0.531D-01-0.106D+00
 Coeff:     -0.238D+00 0.461D+00 0.807D+00
 Gap=     0.050 Goal=   None    Shift=    0.000
 Gap=     0.050 Goal=   None    Shift=    0.000
 RMSDP=1.94D-07 MaxDP=9.75D-06 DE=-1.70D-10 OVMax= 9.35D-06

 Cycle  16  Pass 1  IDiag  1:
 E= -1136.11882937005     Delta-E=       -0.000000000020 Rises=F Damp=F
 DIIS: error= 3.11D-08 at cycle  16 NSaved=  16.
 NSaved=16 IEnMin=16 EnMin= -1136.11882937005     IErMin=16 ErrMin= 3.11D-08
 ErrMax= 3.11D-08  0.00D+00 EMaxC= 1.00D-01 BMatC= 6.06D-13 BMatP= 5.14D-12
 IDIUse=1 WtCom= 1.00D+00 WtEn= 0.00D+00
 Coeff-Com:  0.102D-05-0.146D-05-0.973D-05-0.588D-05 0.182D-04 0.344D-04
 Coeff-Com:  0.220D-03-0.707D-03-0.234D-02-0.141D-02 0.592D-02 0.320D-01
 Coeff-Com: -0.227D-01-0.190D+00 0.859D-01 0.109D+01
 Coeff:      0.102D-05-0.146D-05-0.973D-05-0.588D-05 0.182D-04 0.344D-04
 Coeff:      0.220D-03-0.707D-03-0.234D-02-0.141D-02 0.592D-02 0.320D-01
 Coeff:     -0.227D-01-0.190D+00 0.859D-01 0.109D+01
 Gap=     0.050 Goal=   None    Shift=    0.000
 Gap=     0.050 Goal=   None    Shift=    0.000
 RMSDP=9.26D-08 MaxDP=7.08D-06 DE=-2.05D-11 OVMax= 4.23D-06

 Cycle  17  Pass 1  IDiag  1:
 E= -1136.11882937007     Delta-E=       -0.000000000011 Rises=F Damp=F
 DIIS: error= 1.38D-08 at cycle  17 NSaved=  17.
 NSaved=17 IEnMin=17 EnMin= -1136.11882937007     IErMin=17 ErrMin= 1.38D-08
 ErrMax= 1.38D-08  0.00D+00 EMaxC= 1.00D-01 BMatC= 8.71D-14 BMatP= 6.06D-13
 IDIUse=1 WtCom= 1.00D+00 WtEn= 0.00D+00
 Coeff-Com:  0.140D-05-0.184D-05-0.789D-05 0.181D-05-0.650D-04-0.740D-04
 Coeff-Com:  0.130D-03 0.121D-02 0.258D-03-0.455D-02-0.725D-02 0.114D-01
 Coeff-Com:  0.378D-01-0.567D-01-0.139D+00-0.411D-01 0.120D+01
 Coeff:      0.140D-05-0.184D-05-0.789D-05 0.181D-05-0.650D-04-0.740D-04
 Coeff:      0.130D-03 0.121D-02 0.258D-03-0.455D-02-0.725D-02 0.114D-01
 Coeff:      0.378D-01-0.567D-01-0.139D+00-0.411D-01 0.120D+01
 Gap=     0.050 Goal=   None    Shift=    0.000
 Gap=     0.050 Goal=   None    Shift=    0.000
 RMSDP=4.17D-08 MaxDP=2.27D-06 DE=-1.11D-11 OVMax= 1.80D-06

 Cycle  18  Pass 1  IDiag  1:
 E= -1136.11882937006     Delta-E=        0.000000000007 Rises=F Damp=F
 DIIS: error= 5.43D-09 at cycle  18 NSaved=  18.
 NSaved=18 IEnMin=17 EnMin= -1136.11882937007     IErMin=18 ErrMin= 5.43D-09
 ErrMax= 5.43D-09  0.00D+00 EMaxC= 1.00D-01 BMatC= 1.78D-14 BMatP= 8.71D-14
 IDIUse=1 WtCom= 1.00D+00 WtEn= 0.00D+00
 Coeff-Com:  0.259D-06-0.323D-06-0.114D-05 0.108D-05-0.207D-04-0.226D-04
 Coeff-Com: -0.103D-06 0.456D-03 0.192D-03-0.128D-02-0.284D-02 0.927D-03
 Coeff-Com:  0.123D-01 0.494D-02-0.357D-01-0.158D+00 0.279D+00 0.901D+00
 Coeff:      0.259D-06-0.323D-06-0.114D-05 0.108D-05-0.207D-04-0.226D-04
 Coeff:     -0.103D-06 0.456D-03 0.192D-03-0.128D-02-0.284D-02 0.927D-03
 Coeff:      0.123D-01 0.494D-02-0.357D-01-0.158D+00 0.279D+00 0.901D+00
 Gap=     0.050 Goal=   None    Shift=    0.000
 Gap=     0.050 Goal=   None    Shift=    0.000
 RMSDP=1.43D-08 MaxDP=1.12D-06 DE= 7.05D-12 OVMax= 5.17D-07

 Cycle  19  Pass 1  IDiag  1:
 E= -1136.11882937006     Delta-E=       -0.000000000004 Rises=F Damp=F
 DIIS: error= 2.68D-09 at cycle  19 NSaved=  19.
 NSaved=19 IEnMin=17 EnMin= -1136.11882937007     IErMin=19 ErrMin= 2.68D-09
 ErrMax= 2.68D-09  0.00D+00 EMaxC= 1.00D-01 BMatC= 4.10D-15 BMatP= 1.78D-14
 IDIUse=1 WtCom= 1.00D+00 WtEn= 0.00D+00
 Coeff-Com: -0.173D-06 0.233D-06 0.104D-05-0.223D-07 0.912D-05 0.615D-05
 Coeff-Com: -0.314D-04-0.963D-04 0.929D-04 0.531D-03 0.317D-03-0.252D-02
 Coeff-Com: -0.222D-02 0.130D-01 0.155D-01-0.488D-01-0.141D+00 0.246D+00
 Coeff-Com:  0.919D+00
 Coeff:     -0.173D-06 0.233D-06 0.104D-05-0.223D-07 0.912D-05 0.615D-05
 Coeff:     -0.314D-04-0.963D-04 0.929D-04 0.531D-03 0.317D-03-0.252D-02
 Coeff:     -0.222D-02 0.130D-01 0.155D-01-0.488D-01-0.141D+00 0.246D+00
 Coeff:      0.919D+00
 Gap=     0.050 Goal=   None    Shift=    0.000
 Gap=     0.050 Goal=   None    Shift=    0.000
 RMSDP=7.84D-09 MaxDP=6.56D-07 DE=-4.32D-12 OVMax= 2.50D-07

 SCF Done:  E(UB3LYP) =  -1136.11882937     A.U. after   19 cycles
            NFock= 19  Conv=0.78D-08     -V/T= 2.0028
 <Sx>= 0.0000 <Sy>= 0.0000 <Sz>= 0.5000 <S**2>= 0.7825 S= 0.5161
 <L.S>= 0.000000000000E+00
 KE= 1.132936499154D+03 PE=-3.317854491049D+03 EE= 7.544975436584D+02
 Annihilation of the first spin contaminant:
 S**2 before annihilation     0.7825,   after     0.7503
 Leave Link  502 at Wed Nov 29 02:59:34 2023, MaxMem=  1879048192 cpu:             167.5 elap:              15.3
 (Enter /home/sekinelabo/g16/l601.exe)
 Copying SCF densities to generalized density rwf, IOpCl= 1 IROHF=0.

 **********************************************************************

            Population analysis using the SCF Density.

 **********************************************************************

 Orbital symmetries:
 Alpha Orbitals:
       Occupied  (A) (A) (A) (A) (A) (A) (A) (A) (A) (A) (A) (A)
                 (A) (A) (A) (A) (A) (A) (A) (A) (A) (A) (A) (A)
                 (A) (A) (A) (A) (A) (A) (A) (A) (A) (A) (A) (A)
                 (A) (A) (A)
       Virtual   (A) (A) (A) (A) (A) (A) (A) (A) (A) (A) (A) (A)
                 (A) (A) (A) (A) (A) (A) (A) (A) (A) (A) (A) (A)
                 (A) (A) (A) (A) (A) (A) (A) (A) (A) (A) (A) (A)
                 (A) (A) (A) (A) (A) (A) (A) (A) (A) (A) (A) (A)
                 (A) (A) (A) (A) (A) (A) (A) (A) (A) (A) (A) (A)
                 (A) (A) (A) (A) (A) (A) (A) (A) (A) (A) (A) (A)
                 (A) (A) (A) (A) (A) (A) (A) (A) (A) (A) (A) (A)
                 (A) (A) (A) (A) (A) (A) (A) (A) (A) (A) (A) (A)
                 (A) (A) (A) (A) (A) (A) (A) (A) (A) (A) (A) (A)
                 (A) (A) (A) (A) (A) (A) (A) (A) (A) (A) (A) (A)
                 (A) (A) (A) (A) (A) (A) (A) (A) (A) (A) (A) (A)
                 (A) (A) (A) (A) (A) (A) (A) (A) (A) (A) (A) (A)
                 (A) (A) (A) (A) (A) (A) (A) (A) (A) (A) (A) (A)
                 (A) (A) (A) (A) (A) (A) (A) (A) (A) (A) (A) (A)
                 (A) (A) (A)
 Beta  Orbitals:
       Occupied  (A) (A) (A) (A) (A) (A) (A) (A) (A) (A) (A) (A)
                 (A) (A) (A) (A) (A) (A) (A) (A) (A) (A) (A) (A)
                 (A) (A) (A) (A) (A) (A) (A) (A) (A) (A) (A) (A)
                 (A) (A)
       Virtual   (A) (A) (A) (A) (A) (A) (A) (A) (A) (A) (A) (A)
                 (A) (A) (A) (A) (A) (A) (A) (A) (A) (A) (A) (A)
                 (A) (A) (A) (A) (A) (A) (A) (A) (A) (A) (A) (A)
                 (A) (A) (A) (A) (A) (A) (A) (A) (A) (A) (A) (A)
                 (A) (A) (A) (A) (A) (A) (A) (A) (A) (A) (A) (A)
                 (A) (A) (A) (A) (A) (A) (A) (A) (A) (A) (A) (A)
                 (A) (A) (A) (A) (A) (A) (A) (A) (A) (A) (A) (A)
                 (A) (A) (A) (A) (A) (A) (A) (A) (A) (A) (A) (A)
                 (A) (A) (A) (A) (A) (A) (A) (A) (A) (A) (A) (A)
                 (A) (A) (A) (A) (A) (A) (A) (A) (A) (A) (A) (A)
                 (A) (A) (A) (A) (A) (A) (A) (A) (A) (A) (A) (A)
                 (A) (A) (A) (A) (A) (A) (A) (A) (A) (A) (A) (A)
                 (A) (A) (A) (A) (A) (A) (A) (A) (A) (A) (A) (A)
                 (A) (A) (A) (A) (A) (A) (A) (A) (A) (A) (A) (A)
                 (A) (A) (A) (A)
 The electronic state is 2-A.
 Alpha  occ. eigenvalues --  -38.44504 -38.44424 -38.44289 -38.44181 -38.43724
 Alpha  occ. eigenvalues --  -38.43663 -38.43396  -2.20356  -2.20334  -2.20170
 Alpha  occ. eigenvalues --   -2.19975  -2.19579  -2.19555  -2.19183  -1.14129
 Alpha  occ. eigenvalues --   -1.14054  -1.14044  -1.14004  -1.13976  -1.13953
 Alpha  occ. eigenvalues --   -1.13801  -1.13792  -1.13741  -1.13611  -1.13610
 Alpha  occ. eigenvalues --   -1.13584  -1.13383  -1.13256  -1.13228  -1.13198
 Alpha  occ. eigenvalues --   -1.13181  -1.13104  -1.12879  -1.12856  -1.12829
 Alpha  occ. eigenvalues --   -0.17518  -0.13582  -0.12758  -0.10802
 Alpha virt. eigenvalues --   -0.05844  -0.05613  -0.05035  -0.03596  -0.02484
 Alpha virt. eigenvalues --   -0.02279  -0.02159  -0.01414  -0.01023  -0.00542
 Alpha virt. eigenvalues --   -0.00350  -0.00169   0.00427   0.00553   0.00583
 Alpha virt. eigenvalues --    0.00682   0.00912   0.01024   0.01245   0.01341
 Alpha virt. eigenvalues --    0.01414   0.01454   0.01537   0.01607   0.01930
 Alpha virt. eigenvalues --    0.01971   0.02064   0.02139   0.02204   0.02491
 Alpha virt. eigenvalues --    0.02667   0.02839   0.02881   0.02951   0.03036
 Alpha virt. eigenvalues --    0.03160   0.03233   0.03331   0.03347   0.03493
 Alpha virt. eigenvalues --    0.03702   0.03785   0.04094   0.04314   0.04457
 Alpha virt. eigenvalues --    0.04653   0.04899   0.05151   0.05325   0.05541
 Alpha virt. eigenvalues --    0.05928   0.06221   0.06768   0.07138   0.07250
 Alpha virt. eigenvalues --    0.07737   0.07899   0.08098   0.08300   0.08537
 Alpha virt. eigenvalues --    0.08723   0.09176   0.09278   0.09615   0.09715
 Alpha virt. eigenvalues --    0.10266   0.11274   0.12020   0.12208   0.12443
 Alpha virt. eigenvalues --    0.12739   0.13275   0.13338   0.13677   0.14157
 Alpha virt. eigenvalues --    0.14636   0.15688   0.15810   0.16626   0.17276
 Alpha virt. eigenvalues --    0.25622   0.26536   0.27679   0.29053   0.30021
 Alpha virt. eigenvalues --    0.30354   0.30605   0.32213   0.32466   0.33652
 Alpha virt. eigenvalues --    0.33931   0.35001   0.35331   0.35824   0.36187
 Alpha virt. eigenvalues --    0.36730   0.37369   0.39034   0.40125   0.40657
 Alpha virt. eigenvalues --    0.41578   0.41867   0.42529   0.43557   0.43618
 Alpha virt. eigenvalues --    0.43761   0.43905   0.44127   0.44399   0.44738
 Alpha virt. eigenvalues --    0.44917   0.45412   0.45719   0.45972   0.46420
 Alpha virt. eigenvalues --    0.46864   0.47305   0.47620   0.48093   0.48565
 Alpha virt. eigenvalues --    0.49519   0.50128   0.51733   0.52084   0.52671
 Alpha virt. eigenvalues --    0.54270   0.55102   0.55633   0.56859   0.57530
 Alpha virt. eigenvalues --    0.58907   0.60476   0.61437   0.64644   0.73644
 Alpha virt. eigenvalues --    0.76509   2.03842   2.07355   2.12640   2.14055
 Alpha virt. eigenvalues --    2.17819   2.18366   2.21999   4.42663   4.43202
 Alpha virt. eigenvalues --    4.43337   4.43954   4.44637   4.44768   4.44894
 Alpha virt. eigenvalues --    4.45199   4.46000   4.46226   4.46573   4.47246
 Alpha virt. eigenvalues --    4.47818   4.48491   4.49594   4.49918   4.52312
 Alpha virt. eigenvalues --    4.54882   4.56732   4.67510   4.70751  96.23391
 Alpha virt. eigenvalues --   96.27752  96.34174  96.35898  96.40839  96.41195
 Alpha virt. eigenvalues --   96.46445
  Beta  occ. eigenvalues --  -38.44466 -38.44397 -38.44286 -38.44070 -38.43718
  Beta  occ. eigenvalues --  -38.43636 -38.43404  -2.20288  -2.20284  -2.20165
  Beta  occ. eigenvalues --   -2.19767  -2.19551  -2.19525  -2.19204  -1.14106
  Beta  occ. eigenvalues --   -1.14007  -1.14003  -1.13963  -1.13937  -1.13907
  Beta  occ. eigenvalues --   -1.13798  -1.13773  -1.13727  -1.13470  -1.13467
  Beta  occ. eigenvalues --   -1.13448  -1.13367  -1.13227  -1.13207  -1.13177
  Beta  occ. eigenvalues --   -1.13162  -1.13074  -1.12900  -1.12877  -1.12789
  Beta  occ. eigenvalues --   -0.17066  -0.12994  -0.12332
  Beta virt. eigenvalues --   -0.07325  -0.05677  -0.05300  -0.04690  -0.03155
  Beta virt. eigenvalues --   -0.02305  -0.02012  -0.01882  -0.01267  -0.00698
  Beta virt. eigenvalues --   -0.00153  -0.00051   0.00002   0.00516   0.00634
  Beta virt. eigenvalues --    0.00678   0.00777   0.00958   0.01103   0.01359
  Beta virt. eigenvalues --    0.01420   0.01474   0.01519   0.01634   0.01708
  Beta virt. eigenvalues --    0.02013   0.02045   0.02188   0.02263   0.02351
  Beta virt. eigenvalues --    0.02532   0.02756   0.02872   0.02938   0.02977
  Beta virt. eigenvalues --    0.03093   0.03230   0.03266   0.03392   0.03426
  Beta virt. eigenvalues --    0.03519   0.03724   0.03859   0.04144   0.04370
  Beta virt. eigenvalues --    0.04491   0.04845   0.04941   0.05228   0.05435
  Beta virt. eigenvalues --    0.05610   0.05977   0.06326   0.06847   0.07288
  Beta virt. eigenvalues --    0.07339   0.07809   0.07990   0.08183   0.08525
  Beta virt. eigenvalues --    0.08821   0.09078   0.09214   0.09408   0.09747
  Beta virt. eigenvalues --    0.10043   0.10407   0.11462   0.12073   0.12463
  Beta virt. eigenvalues --    0.12531   0.12878   0.13437   0.13493   0.13803
  Beta virt. eigenvalues --    0.14241   0.14765   0.15842   0.15972   0.16856
  Beta virt. eigenvalues --    0.17389   0.25797   0.26836   0.27952   0.29256
  Beta virt. eigenvalues --    0.30180   0.30646   0.30874   0.32480   0.32833
  Beta virt. eigenvalues --    0.33811   0.34112   0.35347   0.36094   0.36401
  Beta virt. eigenvalues --    0.36721   0.37144   0.37577   0.39193   0.40288
  Beta virt. eigenvalues --    0.40902   0.41700   0.42026   0.42736   0.43699
  Beta virt. eigenvalues --    0.43745   0.43928   0.44200   0.44271   0.44418
  Beta virt. eigenvalues --    0.45037   0.45122   0.45488   0.45739   0.45952
  Beta virt. eigenvalues --    0.46566   0.47075   0.47378   0.47728   0.48068
  Beta virt. eigenvalues --    0.48715   0.49616   0.50233   0.51847   0.52220
  Beta virt. eigenvalues --    0.52828   0.54393   0.55205   0.55718   0.56948
  Beta virt. eigenvalues --    0.57719   0.59103   0.60665   0.61571   0.64813
  Beta virt. eigenvalues --    0.73739   0.76597   2.03972   2.07670   2.12670
  Beta virt. eigenvalues --    2.14141   2.17877   2.18481   2.22103   4.42692
  Beta virt. eigenvalues --    4.43240   4.43365   4.43996   4.44681   4.44886
  Beta virt. eigenvalues --    4.45030   4.45317   4.46036   4.46250   4.46557
  Beta virt. eigenvalues --    4.47273   4.47843   4.48516   4.49635   4.49970
  Beta virt. eigenvalues --    4.52358   4.54929   4.56781   4.67530   4.70773
  Beta virt. eigenvalues --   96.23436  96.27857  96.34189  96.35928  96.40878
  Beta virt. eigenvalues --   96.41211  96.46476
          Condensed to atoms (all electrons):
               1          2          3          4          5          6
     1  Na  11.295121   0.002202   0.090421  -0.121977   0.095956   0.087401
     2  Na   0.002202  10.664494   0.068974  -0.170206  -0.072277   0.232751
     3  Na   0.090421   0.068974  10.542710   0.251136  -0.057119  -0.010431
     4  Na  -0.121977  -0.170206   0.251136  12.474027  -0.368042  -0.950111
     5  Na   0.095956  -0.072277  -0.057119  -0.368042  11.193104   0.192456
     6  Na   0.087401   0.232751  -0.010431  -0.950111   0.192456  11.224286
     7  Na  -0.025340  -0.005720   0.009289   0.080532   0.172962  -0.029746
               7
     1  Na  -0.025340
     2  Na  -0.005720
     3  Na   0.009289
     4  Na   0.080532
     5  Na   0.172962
     6  Na  -0.029746
     7  Na  10.660032
          Atomic-Atomic Spin Densities.
               1          2          3          4          5          6
     1  Na   0.111881   0.052381   0.044275  -0.287312   0.026209   0.152219
     2  Na   0.052381   0.075404  -0.056937  -0.152909  -0.018631   0.110867
     3  Na   0.044275  -0.056937   0.254508   0.195395  -0.020638  -0.096173
     4  Na  -0.287312  -0.152909   0.195395   0.565116   0.092877  -0.450086
     5  Na   0.026209  -0.018631  -0.020638   0.092877  -0.115364   0.004542
     6  Na   0.152219   0.110867  -0.096173  -0.450086   0.004542   0.349465
     7  Na  -0.059405  -0.022541   0.013152   0.031838   0.127244  -0.025024
               7
     1  Na  -0.059405
     2  Na  -0.022541
     3  Na   0.013152
     4  Na   0.031838
     5  Na   0.127244
     6  Na  -0.025024
     7  Na   0.436306
 Mulliken charges and spin densities:
               1          2
     1  Na  -0.423785   0.040249
     2  Na   0.279781  -0.012367
     3  Na   0.105020   0.333582
     4  Na  -0.195360  -0.005082
     5  Na  -0.157041   0.096239
     6  Na   0.253394   0.045810
     7  Na   0.137991   0.501569
 Sum of Mulliken charges =  -0.00000   1.00000
 Mulliken charges and spin densities with hydrogens summed into heavy atoms:
               1          2
     1  Na  -0.423785   0.040249
     2  Na   0.279781  -0.012367
     3  Na   0.105020   0.333582
     4  Na  -0.195360  -0.005082
     5  Na  -0.157041   0.096239
     6  Na   0.253394   0.045810
     7  Na   0.137991   0.501569
 Electronic spatial extent (au):  <R**2>=           3812.9286
 Charge=             -0.0000 electrons
 Dipole moment (field-independent basis, Debye):
    X=             -1.5436    Y=              0.9444    Z=              0.0559  Tot=              1.8105
 Quadrupole moment (field-independent basis, Debye-Ang):
   XX=            -71.5733   YY=            -61.3645   ZZ=            -68.6909
   XY=              0.9720   XZ=              0.8792   YZ=              2.9852
 Traceless Quadrupole moment (field-independent basis, Debye-Ang):
   XX=             -4.3638   YY=              5.8450   ZZ=             -1.4813
   XY=              0.9720   XZ=              0.8792   YZ=              2.9852
 Octapole moment (field-independent basis, Debye-Ang**2):
  XXX=            -28.9492  YYY=              9.2063  ZZZ=              1.9639  XYY=            -23.0798
  XXY=             19.3963  XXZ=             -2.5914  XZZ=            -10.9423  YZZ=              4.3129
  YYZ=              8.1424  XYZ=             -8.8729
 Hexadecapole moment (field-independent basis, Debye-Ang**3):
 XXXX=          -4317.4743 YYYY=          -1601.5599 ZZZZ=           -360.3161 XXXY=            103.9145
 XXXZ=             68.0523 YYYX=             17.7248 YYYZ=             87.3845 ZZZX=              1.9742
 ZZZY=              7.2472 XXYY=           -978.1974 XXZZ=           -829.7562 YYZZ=           -355.8780
 XXYZ=             30.1730 YYXZ=            -13.7243 ZZXY=             -7.7259
 N-N= 2.943016188665D+02 E-N=-3.317854490549D+03  KE= 1.132936499154D+03
                          Isotropic Fermi Contact Couplings
        Atom                 a.u.       MegaHertz       Gauss      10(-4) cm-1
     1  Na(23)             0.10018     118.51509      42.28913      39.53238
     2  Na(23)            -0.00262      -3.10425      -1.10767      -1.03547
     3  Na(23)             0.15597     184.51801      65.84061      61.54858
     4  Na(23)             0.08879     105.03888      37.48049      35.03720
     5  Na(23)            -0.11016    -130.31736     -46.50047     -43.46919
     6  Na(23)             0.01626      19.23739       6.86438       6.41690
     7  Na(23)             0.48367     572.19289     204.17265     190.86300
 --------------------------------------------------------
       Center         ----  Spin Dipole Couplings  ----
                      3XX-RR        3YY-RR        3ZZ-RR
 --------------------------------------------------------
     1   Atom       -0.007643      0.008877     -0.001234
     2   Atom        0.012841     -0.006154     -0.006687
     3   Atom       -0.000218      0.004736     -0.004518
     4   Atom        0.013832     -0.006556     -0.007276
     5   Atom        0.058426     -0.028466     -0.029960
     6   Atom        0.003621      0.001818     -0.005439
     7   Atom       -0.004574      0.001975      0.002599
 --------------------------------------------------------
                        XY            XZ            YZ
 --------------------------------------------------------
     1   Atom       -0.007519      0.007892     -0.008635
     2   Atom        0.001058      0.001623     -0.000321
     3   Atom        0.004399     -0.001054      0.001398
     4   Atom        0.010912     -0.012386     -0.005412
     5   Atom        0.006960     -0.005184      0.000247
     6   Atom       -0.008768     -0.001238     -0.002159
     7   Atom       -0.003660     -0.000791     -0.000114
 --------------------------------------------------------


 ---------------------------------------------------------------------------------
              Anisotropic Spin Dipole Couplings in Principal Axis System
 ---------------------------------------------------------------------------------

       Atom             a.u.   MegaHertz   Gauss  10(-4) cm-1        Axes

              Baa    -0.0131    -1.849    -0.660    -0.617  0.8598  0.0972 -0.5013
     1 Na(23) Bbb    -0.0050    -0.711    -0.254    -0.237  0.3408  0.6219  0.7051
              Bcc     0.0181     2.560     0.914     0.854 -0.3803  0.7771 -0.5015
 
              Baa    -0.0070    -0.992    -0.354    -0.331 -0.0964  0.4457  0.8900
     2 Na(23) Bbb    -0.0060    -0.848    -0.303    -0.283 -0.0115  0.8936 -0.4487
              Bcc     0.0130     1.840     0.657     0.614  0.9953  0.0535  0.0810
 
              Baa    -0.0055    -0.778    -0.278    -0.260  0.4173 -0.2963  0.8591
     3 Na(23) Bbb    -0.0018    -0.259    -0.092    -0.086  0.7616 -0.4017 -0.5085
              Bcc     0.0073     1.037     0.370     0.346  0.4958  0.8665  0.0580
 
              Baa    -0.0131    -1.843    -0.658    -0.615  0.3542  0.1708  0.9194
     4 Na(23) Bbb    -0.0113    -1.595    -0.569    -0.532 -0.4042  0.9146 -0.0142
              Bcc     0.0243     3.438     1.227     1.147  0.8433  0.3666 -0.3930
 
              Baa    -0.0305    -4.313    -1.539    -1.439  0.0840 -0.3912  0.9165
     5 Na(23) Bbb    -0.0287    -4.058    -1.448    -1.354 -0.0497  0.9169  0.3959
              Bcc     0.0593     8.371     2.987     2.792  0.9952  0.0788 -0.0576
 
              Baa    -0.0082    -1.162    -0.415    -0.388  0.4906  0.5699  0.6592
     6 Na(23) Bbb    -0.0033    -0.469    -0.167    -0.157 -0.4616 -0.4717  0.7513
              Bcc     0.0116     1.631     0.582     0.544  0.7391 -0.6729  0.0316
 
              Baa    -0.0063    -0.886    -0.316    -0.296  0.9102  0.4050  0.0863
     7 Na(23) Bbb     0.0026     0.370     0.132     0.123  0.0102 -0.2305  0.9730
              Bcc     0.0037     0.517     0.184     0.172 -0.4139  0.8848  0.2139
 

 ---------------------------------------------------------------------------------

 No NMR shielding tensors so no spin-rotation constants.
 Leave Link  601 at Wed Nov 29 02:59:34 2023, MaxMem=  1879048192 cpu:               2.2 elap:               0.2
 (Enter /home/sekinelabo/g16/l701.exe)
 ... and contract with generalized density number  0.
 Compute integral first derivatives.
 Leave Link  701 at Wed Nov 29 02:59:34 2023, MaxMem=  1879048192 cpu:               1.5 elap:               0.1
 (Enter /home/sekinelabo/g16/l702.exe)
 L702 exits ... SP integral derivatives will be done elsewhere.
 Leave Link  702 at Wed Nov 29 02:59:34 2023, MaxMem=  1879048192 cpu:               0.4 elap:               0.0
 (Enter /home/sekinelabo/g16/l703.exe)
 Integral derivatives from FoFJK, PRISM(SPDF).
 Compute integral first derivatives, UseDBF=F ICtDFT=           0.
 Calling FoFJK, ICntrl=      2127 FMM=F ISym2X=0 I1Cent= 0 IOpClX= 1 NMat=1 NMatS=1 NMatT=0.
 FoFJK:  IHMeth= 1 ICntrl=    2127 DoSepK=F KAlg= 0 I1Cent=           0 FoldK=F
 IRaf=         0 NMat=       1 IRICut=       1 DoRegI=T DoRafI=F ISym2E= 0 IDoP0=0 IntGTp=1.
 FoFCou: FMM=F IPFlag=           0 FMFlag=      100000 FMFlg1=         800
         NFxFlg=           0 DoJE=F BraDBF=F KetDBF=F FulRan=T
         wScrn=  0.000000 ICntrl=      2127 IOpCl=  1 I1Cent=           0 NGrid=           0
         NMat0=    1 NMatS0=      1 NMatT0=    0 NMatD0=    1 NMtDS0=    0 NMtDT0=    0
 Symmetry not used in FoFCou.
 Leave Link  703 at Wed Nov 29 02:59:36 2023, MaxMem=  1879048192 cpu:              29.5 elap:               2.0
 (Enter /home/sekinelabo/g16/l716.exe)
 Dipole        =-6.07296724D-01 3.71568857D-01 2.19820546D-02
 ***** Axes restored to original set *****
 -------------------------------------------------------------------
 Center     Atomic                   Forces (Hartrees/Bohr)
 Number     Number              X              Y              Z
 -------------------------------------------------------------------
      1       11           0.000094715   -0.004732285   -0.008068101
      2       11          -0.000677145    0.006688234    0.004924832
      3       11           0.002355197   -0.003382330   -0.000209761
      4       11           0.000794477    0.002570705   -0.003385587
      5       11          -0.001163678    0.002786937    0.000334402
      6       11          -0.001625680   -0.002391517    0.004631699
      7       11           0.000222114   -0.001539744    0.001772515
 -------------------------------------------------------------------
 Cartesian Forces:  Max     0.008068101 RMS     0.003361445
 Z-matrix is all fixed cartesians, so copy forces.
 Force constants in Cartesian coordinates: 
                1             2             3             4             5 
      1  0.800338D-01
      2 -0.122925D-01  0.775477D-01
      3  0.112279D-01  0.918418D-02  0.903409D-01
      4 -0.221332D-01 -0.938415D-02 -0.828524D-02  0.227430D-01
      5  0.132369D-02 -0.324301D-01 -0.593065D-02 -0.516562D-02  0.607319D-01
      6 -0.917316D-03 -0.246838D-01 -0.325764D-01 -0.214370D-02  0.121214D-01
      7 -0.134481D-01  0.104042D-01 -0.109927D-01 -0.101942D-01  0.282552D-02
      8  0.429628D-02 -0.133968D-01 -0.466753D-03  0.139248D-03 -0.270828D-01
      9  0.726783D-02  0.194150D-02 -0.253357D-01  0.803446D-02 -0.594712D-02
     10 -0.305728D-01  0.125093D-02  0.190872D-02  0.216292D-02 -0.159372D-05
     11  0.640038D-02 -0.143112D-01 -0.351761D-03  0.828518D-02 -0.244664D-02
     12 -0.732264D-02  0.391529D-02 -0.222900D-01  0.377775D-02 -0.137757D-02
     13 -0.181740D-01  0.646688D-02  0.850805D-02  0.507052D-02  0.103284D-02
     14  0.726962D-03 -0.181323D-01 -0.161759D-02  0.381287D-02  0.176790D-02
     15 -0.664940D-02  0.303422D-02 -0.106455D-01  0.106713D-02 -0.324529D-03
     16  0.340420D-02  0.569817D-02 -0.408347D-02  0.239064D-02 -0.788283D-04
     17  0.229223D-03 -0.171845D-02  0.932789D-03  0.233650D-02 -0.579041D-03
     18 -0.288924D-02  0.424667D-02  0.223449D-02 -0.243876D-02  0.143970D-02
     19  0.890089D-03 -0.214350D-02  0.171675D-02 -0.396892D-04  0.639964D-04
     20 -0.684042D-03  0.244123D-02 -0.175021D-02 -0.240280D-04  0.387437D-04
     21 -0.717110D-03  0.236196D-02 -0.172776D-02 -0.116396D-04  0.187681D-04
                6             7             8             9            10 
      6  0.467289D-01
      7  0.396345D-02  0.441565D-01
      8  0.193794D-01 -0.105483D-01  0.598268D-01
      9 -0.220216D-01 -0.149319D-01 -0.787922D-02  0.845146D-01
     10  0.140174D-02 -0.176137D-01 -0.133047D-02 -0.299874D-02  0.815774D-01
     11 -0.281578D-02  0.122103D-02 -0.744043D-02  0.208048D-02 -0.233733D-02
     12  0.349854D-02  0.112336D-01  0.189772D-02 -0.177566D-01 -0.496574D-02
     13 -0.130864D-02  0.653540D-02 -0.128048D-02  0.242696D-02 -0.179406D-01
     14 -0.198722D-02 -0.253146D-02  0.365582D-02  0.385083D-03 -0.139052D-02
     15  0.253976D-03  0.138542D-02 -0.219597D-02 -0.194652D-02  0.315812D-02
     16 -0.936121D-03 -0.945016D-02  0.877526D-02  0.192753D-03 -0.181211D-01
     17 -0.197803D-02 -0.139679D-02 -0.155955D-01  0.941768D-02  0.318301D-02
     18  0.413396D-02  0.932430D-02 -0.107714D-01 -0.174538D-01  0.109217D-02
     19 -0.594106D-04  0.142815D-04 -0.515709D-04  0.868480D-05  0.507785D-03
     20 -0.359674D-04  0.257942D-04  0.329373D-04  0.159804D-05  0.625978D-03
     21 -0.174232D-04  0.179043D-04  0.361933D-04  0.000000D+00  0.403720D-03
               11            12            13            14            15 
     11  0.740486D-01
     12 -0.120687D-01  0.799610D-01
     13 -0.403048D-02 -0.146652D-01  0.278577D-01
     14 -0.221415D-01  0.768872D-03 -0.583275D-02  0.511295D-01
     15 -0.579962D-02 -0.181461D-01  0.400197D-02 -0.145719D-03  0.438263D-01
     16 -0.114726D-01  0.120500D-01  0.117985D-02  0.282031D-02 -0.294484D-03
     17 -0.322927D-01  0.695442D-02  0.142484D-02  0.345667D-02 -0.347948D-03
     18  0.156582D-01 -0.252153D-01  0.184084D-02  0.441557D-02 -0.440937D-03
     19  0.193380D-02 -0.107713D-03 -0.452885D-02  0.239457D-02 -0.266875D-02
     20  0.458387D-02 -0.900773D-04  0.221915D-02 -0.197361D-01  0.577957D-02
     21  0.329713D-02 -0.514790D-04 -0.803981D-03 -0.181900D-02 -0.129012D-01
               16            17            18            19            20 
     16  0.204886D-01
     17 -0.572918D-02  0.467233D-01
     18 -0.689751D-02 -0.149926D-01  0.367325D-01
     19  0.107924D-03 -0.476020D-04 -0.317959D-04  0.304846D-02
     20 -0.131490D-04  0.579961D-05  0.387387D-05 -0.214971D-02  0.126336D-01
     21 -0.311271D-04  0.137292D-04  0.917049D-05  0.114223D-02 -0.390879D-02
               21 
     21  0.146891D-01
 Leave Link  716 at Wed Nov 29 02:59:36 2023, MaxMem=  1879048192 cpu:               0.4 elap:               0.0
 (Enter /home/sekinelabo/g16/l103.exe)

 GradGradGradGradGradGradGradGradGradGradGradGradGradGradGradGradGradGrad
 Berny optimization.
 Search for a local minimum.
 Step number   1 out of a maximum of    2
 All quantities printed in internal units (Hartrees-Bohrs-Radians)
 Second derivative matrix not updated -- first step.
 ITU=  0
     Eigenvalues ---    0.00705   0.01032   0.01437   0.02988   0.03939
     Eigenvalues ---    0.04342   0.05774   0.06570   0.08241   0.09587
     Eigenvalues ---    0.10513   0.11554   0.11979   0.12903   0.13899
 Angle between quadratic step and forces=  35.24 degrees.
 Linear search not attempted -- first point.
 B after Tr=    -0.000000   -0.000000    0.000000
         Rot=    1.000000    0.000000   -0.000000   -0.000000 Ang=   0.00 deg.
 Variable       Old X    -DE/DX   Delta X   Delta X   Delta X     New X
                                 (Linear)    (Quad)   (Total)
    X1       26.50001   0.00009   0.00000   0.01486   0.01486  26.51487
    Y1       30.52191  -0.00473   0.00000  -0.01584  -0.01584  30.50607
    Z1       29.13107  -0.00807   0.00000  -0.09571  -0.09571  29.03537
    X2       26.73093  -0.00068   0.00000  -0.01994  -0.01994  26.71100
    Y2       34.32971   0.00669   0.00000   0.06502   0.06502  34.39473
    Z2       33.07852   0.00492   0.00000   0.01651   0.01651  33.09504
    X3       27.56638   0.00236   0.00000   0.02194   0.02194  27.58832
    Y3       28.77845  -0.00338   0.00000  -0.03444  -0.03444  28.74401
    Z3       35.57220  -0.00021   0.00000  -0.01875  -0.01875  35.55346
    X4       31.90576   0.00079   0.00000   0.01579   0.01579  31.92155
    Y4       27.29445   0.00257   0.00000   0.00954   0.00954  27.30399
    Z4       29.88904  -0.00339   0.00000  -0.05206  -0.05206  29.83698
    X5       30.05402  -0.00116   0.00000  -0.00486  -0.00486  30.04915
    Y5       27.42012   0.00279   0.00000   0.04368   0.04368  27.46380
    Z5       23.41560   0.00033   0.00000  -0.00007  -0.00007  23.41552
    X6       31.17443  -0.00163   0.00000  -0.01455  -0.01455  31.15989
    Y6       23.13195  -0.00239   0.00000  -0.03146  -0.03146  23.10049
    Z6       33.63845   0.00463   0.00000   0.04385   0.04385  33.68230
    X7       29.07325   0.00022   0.00000  -0.01324  -0.01324  29.06001
    Y7       31.52800  -0.00154   0.00000  -0.03650  -0.03650  31.49150
    Z7       18.27979   0.00177   0.00000   0.10622   0.10622  18.38602
         Item               Value     Threshold  Converged?
 Maximum Force            0.008068     0.000450     NO 
 RMS     Force            0.003361     0.000300     NO 
 Maximum Displacement     0.106223     0.001800     NO 
 RMS     Displacement     0.042227     0.001200     NO 
 Predicted change in Energy=-1.217273D-03
 GradGradGradGradGradGradGradGradGradGradGradGradGradGradGradGradGradGrad

 Leave Link  103 at Wed Nov 29 02:59:36 2023, MaxMem=  1879048192 cpu:               0.2 elap:               0.0
 (Enter /home/sekinelabo/g16/l9999.exe)
 1\1\GINC-SEKINELABO-XA7R-R37\Force\UB3LYP\6-311+G(d)\Na7(2)\SEKINELABO
 \29-Nov-2023\0\\#P B3LYP/6-311+g(d) force\\DPGEN\\0,2\Na,14.0232,16.15
 15,15.4155\Na,14.1454,18.1665,17.5044\Na,14.5875,15.2289,18.824\Na,16.
 8838,14.4436,15.8166\Na,15.9039,14.5101,12.391\Na,16.4968,12.2409,17.8
 007\Na,15.3849,16.6839,9.67325\\Version=ES64L-G16RevB.01\State=2-A\HF=
 -1136.1188294\S2=0.782451\S2-1=0.\S2A=0.750312\RMSD=7.835e-09\RMSF=3.3
 61e-03\Dipole=-0.18319,0.2347385,0.6470666\Quadrupole=-1.6837694,5.044
 401,-3.3606316,-1.0757914,-0.340079,0.3557105\PG=C01 [X(Na7)]\\@


 FORGIVE MY NONSENSE AS I ALSO FORGIVE THOSE WHO THINK THEY TALK SENSE

                                                       -- ROBERT FROST
 Job cpu time:       0 days  0 hours  3 minutes 32.8 seconds.
 Elapsed time:       0 days  0 hours  0 minutes 18.3 seconds.
 File lengths (MBytes):  RWF=     32 Int=      0 D2E=      0 Chk=      4 Scr=      1
 Normal termination of Gaussian 16 at Wed Nov 29 02:59:36 2023.
