 Set GAUSS_MDEF to "14GB".
 Entering Gaussian System, Link 0=g16
 Initial command:
 /home/sekinelabo/g16/l1.exe "/home/sekinelabo/g16temp/Gau-2061939.inp" -scrdir="/home/sekinelabo/g16temp/"
 Entering Link 1 = /home/sekinelabo/g16/l1.exe PID=   2061941.
  
 Copyright (c) 1988-2017, Gaussian, Inc.  All Rights Reserved.
  
 This is part of the Gaussian(R) 16 program.  It is based on
 the Gaussian(R) 09 system (copyright 2009, Gaussian, Inc.),
 the Gaussian(R) 03 system (copyright 2003, Gaussian, Inc.),
 the Gaussian(R) 98 system (copyright 1998, Gaussian, Inc.),
 the Gaussian(R) 94 system (copyright 1995, Gaussian, Inc.),
 the Gaussian 92(TM) system (copyright 1992, Gaussian, Inc.),
 the Gaussian 90(TM) system (copyright 1990, Gaussian, Inc.),
 the Gaussian 88(TM) system (copyright 1988, Gaussian, Inc.),
 the Gaussian 86(TM) system (copyright 1986, Carnegie Mellon
 University), and the Gaussian 82(TM) system (copyright 1983,
 Carnegie Mellon University). Gaussian is a federally registered
 trademark of Gaussian, Inc.
  
 This software contains proprietary and confidential information,
 including trade secrets, belonging to Gaussian, Inc.
  
 This software is provided under written license and may be
 used, copied, transmitted, or stored only in accord with that
 written license.
  
 The following legend is applicable only to US Government
 contracts under FAR:
  
                    RESTRICTED RIGHTS LEGEND
  
 Use, reproduction and disclosure by the US Government is
 subject to restrictions as set forth in subparagraphs (a)
 and (c) of the Commercial Computer Software - Restricted
 Rights clause in FAR 52.227-19.
  
 Gaussian, Inc.
 340 Quinnipiac St., Bldg. 40, Wallingford CT 06492
  
  
 ---------------------------------------------------------------
 Warning -- This program may not be used in any manner that
 competes with the business of Gaussian, Inc. or will provide
 assistance to any competitor of Gaussian, Inc.  The licensee
 of this program is prohibited from giving any competitor of
 Gaussian, Inc. access to this program.  By using this program,
 the user acknowledges that Gaussian, Inc. is engaged in the
 business of creating and licensing software in the field of
 computational chemistry and represents and warrants to the
 licensee that it is not a competitor of Gaussian, Inc. and that
 it will not use this program in any manner prohibited above.
 ---------------------------------------------------------------
  

 Cite this work as:
 Gaussian 16, Revision B.01,
 M. J. Frisch, G. W. Trucks, H. B. Schlegel, G. E. Scuseria, 
 M. A. Robb, J. R. Cheeseman, G. Scalmani, V. Barone, 
 G. A. Petersson, H. Nakatsuji, X. Li, M. Caricato, A. V. Marenich, 
 J. Bloino, B. G. Janesko, R. Gomperts, B. Mennucci, H. P. Hratchian, 
 J. V. Ortiz, A. F. Izmaylov, J. L. Sonnenberg, D. Williams-Young, 
 F. Ding, F. Lipparini, F. Egidi, J. Goings, B. Peng, A. Petrone, 
 T. Henderson, D. Ranasinghe, V. G. Zakrzewski, J. Gao, N. Rega, 
 G. Zheng, W. Liang, M. Hada, M. Ehara, K. Toyota, R. Fukuda, 
 J. Hasegawa, M. Ishida, T. Nakajima, Y. Honda, O. Kitao, H. Nakai, 
 T. Vreven, K. Throssell, J. A. Montgomery, Jr., J. E. Peralta, 
 F. Ogliaro, M. J. Bearpark, J. J. Heyd, E. N. Brothers, K. N. Kudin, 
 V. N. Staroverov, T. A. Keith, R. Kobayashi, J. Normand, 
 K. Raghavachari, A. P. Rendell, J. C. Burant, S. S. Iyengar, 
 J. Tomasi, M. Cossi, J. M. Millam, M. Klene, C. Adamo, R. Cammi, 
 J. W. Ochterski, R. L. Martin, K. Morokuma, O. Farkas, 
 J. B. Foresman, and D. J. Fox, Gaussian, Inc., Wallingford CT, 2016.
 
 ******************************************
 Gaussian 16:  ES64L-G16RevB.01 20-Dec-2017
                 8-Dec-2023 
 ******************************************
 %nproc=15
 Will use up to   15 processors via shared memory.
 -------------------------
 #P B3LYP/6-311+g(d) force
 -------------------------
 1/10=7,30=1,38=1/1,3;
 2/12=2,17=6,18=5,40=1/2;
 3/5=4,6=6,7=11,11=2,25=1,30=1,71=1,74=-5/1,2,3;
 4//1;
 5/5=2,38=5/2;
 6/7=2,8=2,9=2,10=2,28=1/1;
 7/29=1/1,2,3,16;
 1/10=7,30=1/3;
 99//99;
 Leave Link    1 at Fri Dec  8 00:07:16 2023, MaxMem=           0 cpu:               0.3 elap:               0.0
 (Enter /home/sekinelabo/g16/l101.exe)
 -----
 DPGEN
 -----
 Symbolic Z-matrix:
 Charge =  0 Multiplicity = 2
 Na                    10.7527   12.0763   12.3073 
 Na                    13.2642   11.5183   9.57779 
 Na                    14.0238   9.475     12.4915 
 Na                    14.4315   12.844    12.1602 
 Na                    10.1275   14.7369   14.5926 
 Na                    11.6949   14.6013   11.1763 
 Na                    12.7904   11.8331   14.7791 
 
 ITRead=  0  0  0  0  0  0  0
 MicOpt= -1 -1 -1 -1 -1 -1 -1
 NAtoms=      7 NQM=        7 NQMF=       0 NMMI=      0 NMMIF=      0
                NMic=       0 NMicF=      0.
                    Isotopes and Nuclear Properties:
 (Nuclear quadrupole moments (NQMom) in fm**2, nuclear magnetic moments (NMagM)
  in nuclear magnetons)

  Atom         1           2           3           4           5           6           7
 IAtWgt=          23          23          23          23          23          23          23
 AtmWgt=  22.9897697  22.9897697  22.9897697  22.9897697  22.9897697  22.9897697  22.9897697
 NucSpn=           3           3           3           3           3           3           3
 AtZEff=  -0.0000000  -0.0000000  -0.0000000  -0.0000000  -0.0000000  -0.0000000  -0.0000000
 NQMom=   10.4000000  10.4000000  10.4000000  10.4000000  10.4000000  10.4000000  10.4000000
 NMagM=    2.2175200   2.2175200   2.2175200   2.2175200   2.2175200   2.2175200   2.2175200
 AtZNuc=  11.0000000  11.0000000  11.0000000  11.0000000  11.0000000  11.0000000  11.0000000
 Leave Link  101 at Fri Dec  8 00:07:16 2023, MaxMem=  1879048192 cpu:               2.4 elap:               0.2
 (Enter /home/sekinelabo/g16/l103.exe)

 GradGradGradGradGradGradGradGradGradGradGradGradGradGradGradGradGradGrad
 Berny optimization.
 Initialization pass.
 Trust Radius=3.00D-01 FncErr=1.00D-07 GrdErr=1.00D-07 EigMax=2.50D+02 EigMin=1.00D-04
 Number of steps in this run=      2 maximum allowed number of steps=      2.
 GradGradGradGradGradGradGradGradGradGradGradGradGradGradGradGradGradGrad

 Leave Link  103 at Fri Dec  8 00:07:16 2023, MaxMem=  1879048192 cpu:               0.2 elap:               0.0
 (Enter /home/sekinelabo/g16/l202.exe)
                          Input orientation:                          
 ---------------------------------------------------------------------
 Center     Atomic      Atomic             Coordinates (Angstroms)
 Number     Number       Type             X           Y           Z
 ---------------------------------------------------------------------
      1         11           0       10.752700   12.076300   12.307300
      2         11           0       13.264200   11.518300    9.577790
      3         11           0       14.023800    9.475000   12.491500
      4         11           0       14.431500   12.844000   12.160200
      5         11           0       10.127500   14.736900   14.592600
      6         11           0       11.694900   14.601300   11.176300
      7         11           0       12.790400   11.833100   14.779100
 ---------------------------------------------------------------------
                    Distance matrix (angstroms):
                    1          2          3          4          5
     1  Na   0.000000
     2  Na   3.750896   0.000000
     3  Na   4.183394   3.638925   0.000000
     4  Na   3.760927   3.128724   3.409713   0.000000
     5  Na   3.562620   6.733988   6.876290   5.293775   0.000000
     6  Na   2.922760   3.810883   5.782082   3.397814   3.761148
     7  Na   3.212657   5.232324   3.509277   3.251733   3.944347
                    6          7
     6  Na   0.000000
     7  Na   4.673673   0.000000
 Stoichiometry    Na7(2)
 Framework group  C1[X(Na7)]
 Deg. of freedom    15
 Full point group                 C1      NOp   1
 Largest Abelian subgroup         C1      NOp   1
 Largest concise Abelian subgroup C1      NOp   1
                         Standard orientation:                         
 ---------------------------------------------------------------------
 Center     Atomic      Atomic             Coordinates (Angstroms)
 Number     Number       Type             X           Y           Z
 ---------------------------------------------------------------------
      1         11           0       -0.716658    0.164659   -1.568203
      2         11           0        2.385503    1.956108   -0.456210
      3         11           0        2.892129   -1.647325   -0.475427
      4         11           0        1.058341    0.175309    1.747493
      5         11           0       -3.873820   -0.494704   -0.054984
      6         11           0       -1.312940    2.217883    0.424596
      7         11           0       -0.432556   -2.371931    0.382736
 ---------------------------------------------------------------------
 Rotational constants (GHZ):           0.9289301           0.5653563           0.4397101
 Leave Link  202 at Fri Dec  8 00:07:16 2023, MaxMem=  1879048192 cpu:               0.0 elap:               0.0
 (Enter /home/sekinelabo/g16/l301.exe)
 Standard basis: 6-311+G(d) (5D, 7F)
 Ernie: Thresh=  0.10000D-02 Tol=  0.10000D-05 Strict=F.
 There are   217 symmetry adapted cartesian basis functions of A   symmetry.
 There are   210 symmetry adapted basis functions of A   symmetry.
   210 basis functions,   350 primitive gaussians,   217 cartesian basis functions
    39 alpha electrons       38 beta electrons
       nuclear repulsion energy       340.8218414115 Hartrees.
 IExCor=  402 DFT=T Ex+Corr=B3LYP ExCW=0 ScaHFX=  0.200000
 ScaDFX=  0.800000  0.720000  1.000000  0.810000 ScalE2=  1.000000  1.000000
 IRadAn=      5 IRanWt=     -1 IRanGd=            0 ICorTp=0 IEmpDi=  4
 NAtoms=    7 NActive=    7 NUniq=    7 SFac= 1.00D+00 NAtFMM=   60 NAOKFM=F Big=F
 Integral buffers will be    131072 words long.
 Raffenetti 2 integral format.
 Two-electron integral symmetry is turned on.
 Leave Link  301 at Fri Dec  8 00:07:16 2023, MaxMem=  1879048192 cpu:               0.5 elap:               0.0
 (Enter /home/sekinelabo/g16/l302.exe)
 NPDir=0 NMtPBC=     1 NCelOv=     1 NCel=       1 NClECP=     1 NCelD=      1
         NCelK=      1 NCelE2=     1 NClLst=     1 CellRange=     0.0.
 One-electron integrals computed using PRISM.
 One-electron integral symmetry used in STVInt
 NBasis=   210 RedAO= T EigKep=  2.12D-06  NBF=   210
 NBsUse=   210 1.00D-06 EigRej= -1.00D+00 NBFU=   210
 Precomputing XC quadrature grid using
 IXCGrd= 4 IRadAn=           5 IRanWt=          -1 IRanGd=           0 AccXCQ= 0.00D+00.
 Generated NRdTot=       0 NPtTot=           0 NUsed=           0 NTot=          32
 NSgBfM=   210   210   210   210   210 MxSgAt=     7 MxSgA2=     7.
 Leave Link  302 at Fri Dec  8 00:07:16 2023, MaxMem=  1879048192 cpu:               1.9 elap:               0.1
 (Enter /home/sekinelabo/g16/l303.exe)
 DipDrv:  MaxL=1.
 Leave Link  303 at Fri Dec  8 00:07:16 2023, MaxMem=  1879048192 cpu:               0.5 elap:               0.0
 (Enter /home/sekinelabo/g16/l401.exe)
 ExpMin= 7.60D-03 ExpMax= 3.62D+04 ExpMxC= 1.21D+03 IAcc=3 IRadAn=         5 AccDes= 0.00D+00
 Harris functional with IExCor=  402 and IRadAn=       5 diagonalized for initial guess.
 HarFok:  IExCor=  402 AccDes= 0.00D+00 IRadAn=         5 IDoV= 1 UseB2=F ITyADJ=14
 ICtDFT=  3500011 ScaDFX=  1.000000  1.000000  1.000000  1.000000
 FoFCou: FMM=F IPFlag=           0 FMFlag=      100000 FMFlg1=           0
         NFxFlg=           0 DoJE=T BraDBF=F KetDBF=T FulRan=T
         wScrn=  0.000000 ICntrl=       500 IOpCl=  0 I1Cent=   200000004 NGrid=           0
         NMat0=    1 NMatS0=      1 NMatT0=    0 NMatD0=    1 NMtDS0=    0 NMtDT0=    0
 Petite list used in FoFCou.
 Harris En= -1135.89846543096    
 JPrj=0 DoOrth=F DoCkMO=F.
 Initial guess <Sx>= 0.0000 <Sy>= 0.0000 <Sz>= 0.5000 <S**2>= 0.7500 S= 0.5000
 Leave Link  401 at Fri Dec  8 00:07:17 2023, MaxMem=  1879048192 cpu:               4.3 elap:               0.3
 (Enter /home/sekinelabo/g16/l502.exe)
 Keep R1 and R2 ints in memory in canonical form, NReq=506573321.
 FoFCou: FMM=F IPFlag=           0 FMFlag=           0 FMFlg1=           0
         NFxFlg=           0 DoJE=F BraDBF=F KetDBF=F FulRan=T
         wScrn=  0.000000 ICntrl=       600 IOpCl=  0 I1Cent=           0 NGrid=           0
         NMat0=    1 NMatS0=  22155 NMatT0=    0 NMatD0=    1 NMtDS0=    0 NMtDT0=    0
 Symmetry not used in FoFCou.
 Two-electron integral symmetry not used.
 UHF open shell SCF:
 Using DIIS extrapolation, IDIIS=  1040.
 NGot=  1879048192 LenX=  1388082579 LenY=  1388035049
 Requested convergence on RMS density matrix=1.00D-08 within 128 cycles.
 Requested convergence on MAX density matrix=1.00D-06.
 Requested convergence on             energy=1.00D-06.
 No special actions if energy rises.

 Cycle   1  Pass 1  IDiag  1:
 E= -1136.08515963451    
 DIIS: error= 1.24D-02 at cycle   1 NSaved=   1.
 NSaved= 1 IEnMin= 1 EnMin= -1136.08515963451     IErMin= 1 ErrMin= 1.24D-02
 ErrMax= 1.24D-02  0.00D+00 EMaxC= 1.00D-01 BMatC= 1.97D-01 BMatP= 1.97D-01
 IDIUse=3 WtCom= 8.76D-01 WtEn= 1.24D-01
 Coeff-Com:  0.100D+01
 Coeff-En:   0.100D+01
 Coeff:      0.100D+01
 Gap=     0.018 Goal=   None    Shift=    0.000
 Gap=     0.051 Goal=   None    Shift=    0.000
 GapD=    0.018 DampG=0.250 DampE=0.500 DampFc=0.2500 IDamp=-1.
 Damping current iteration by 2.50D-01
 RMSDP=2.09D-02 MaxDP=1.10D+00              OVMax= 2.98D-01

 Cycle   2  Pass 1  IDiag  1:
 E= -1136.09976685594     Delta-E=       -0.014607221435 Rises=F Damp=T
 DIIS: error= 8.71D-03 at cycle   2 NSaved=   2.
 NSaved= 2 IEnMin= 2 EnMin= -1136.09976685594     IErMin= 2 ErrMin= 8.71D-03
 ErrMax= 8.71D-03  0.00D+00 EMaxC= 1.00D-01 BMatC= 7.40D-02 BMatP= 1.97D-01
 IDIUse=3 WtCom= 9.13D-01 WtEn= 8.71D-02
 Coeff-Com: -0.122D+01 0.222D+01
 Coeff-En:   0.000D+00 0.100D+01
 Coeff:     -0.112D+01 0.212D+01
 Gap=     0.040 Goal=   None    Shift=    0.000
 Gap=     0.055 Goal=   None    Shift=    0.000
 RMSDP=1.34D-02 MaxDP=1.12D+00 DE=-1.46D-02 OVMax= 2.43D-01

 Cycle   3  Pass 1  IDiag  1:
 E= -1136.12085593700     Delta-E=       -0.021089081059 Rises=F Damp=F
 DIIS: error= 4.28D-03 at cycle   3 NSaved=   3.
 NSaved= 3 IEnMin= 3 EnMin= -1136.12085593700     IErMin= 3 ErrMin= 4.28D-03
 ErrMax= 4.28D-03  0.00D+00 EMaxC= 1.00D-01 BMatC= 6.32D-03 BMatP= 7.40D-02
 IDIUse=3 WtCom= 9.57D-01 WtEn= 4.28D-02
 Coeff-Com: -0.361D+00 0.642D+00 0.719D+00
 Coeff-En:   0.000D+00 0.000D+00 0.100D+01
 Coeff:     -0.345D+00 0.615D+00 0.731D+00
 Gap=     0.031 Goal=   None    Shift=    0.000
 Gap=     0.052 Goal=   None    Shift=    0.000
 RMSDP=9.49D-03 MaxDP=1.05D+00 DE=-2.11D-02 OVMax= 1.60D-01

 Cycle   4  Pass 1  IDiag  1:
 E= -1136.11844317109     Delta-E=        0.002412765912 Rises=F Damp=F
 DIIS: error= 5.41D-03 at cycle   4 NSaved=   4.
 NSaved= 4 IEnMin= 3 EnMin= -1136.12085593700     IErMin= 3 ErrMin= 4.28D-03
 ErrMax= 5.41D-03  0.00D+00 EMaxC= 1.00D-01 BMatC= 7.23D-03 BMatP= 6.32D-03
 IDIUse=3 WtCom= 1.20D-01 WtEn= 8.80D-01
 Coeff-Com: -0.321D-01 0.562D-01 0.510D+00 0.466D+00
 Coeff-En:   0.000D+00 0.000D+00 0.565D+00 0.435D+00
 Coeff:     -0.385D-02 0.672D-02 0.558D+00 0.439D+00
 Gap=     0.035 Goal=   None    Shift=    0.000
 Gap=     0.050 Goal=   None    Shift=    0.000
 RMSDP=2.71D-03 MaxDP=3.38D-01 DE= 2.41D-03 OVMax= 9.55D-02

 Cycle   5  Pass 1  IDiag  1:
 E= -1136.12617291741     Delta-E=       -0.007729746319 Rises=F Damp=F
 DIIS: error= 1.52D-03 at cycle   5 NSaved=   5.
 NSaved= 5 IEnMin= 5 EnMin= -1136.12617291741     IErMin= 5 ErrMin= 1.52D-03
 ErrMax= 1.52D-03  0.00D+00 EMaxC= 1.00D-01 BMatC= 7.75D-04 BMatP= 6.32D-03
 IDIUse=3 WtCom= 9.85D-01 WtEn= 1.52D-02
 Coeff-Com:  0.271D-02-0.485D-02 0.324D+00 0.284D+00 0.394D+00
 Coeff-En:   0.000D+00 0.000D+00 0.000D+00 0.000D+00 0.100D+01
 Coeff:      0.267D-02-0.478D-02 0.319D+00 0.280D+00 0.403D+00
 Gap=     0.036 Goal=   None    Shift=    0.000
 Gap=     0.050 Goal=   None    Shift=    0.000
 RMSDP=1.20D-03 MaxDP=1.39D-01 DE=-7.73D-03 OVMax= 2.46D-02

 Cycle   6  Pass 1  IDiag  1:
 E= -1136.12689974492     Delta-E=       -0.000726827514 Rises=F Damp=F
 DIIS: error= 1.67D-04 at cycle   6 NSaved=   6.
 NSaved= 6 IEnMin= 6 EnMin= -1136.12689974492     IErMin= 6 ErrMin= 1.67D-04
 ErrMax= 1.67D-04  0.00D+00 EMaxC= 1.00D-01 BMatC= 9.18D-06 BMatP= 7.75D-04
 IDIUse=3 WtCom= 9.98D-01 WtEn= 1.67D-03
 Coeff-Com: -0.134D-02 0.122D-02 0.816D-04-0.139D-01 0.713D-01 0.943D+00
 Coeff-En:   0.000D+00 0.000D+00 0.000D+00 0.000D+00 0.000D+00 0.100D+01
 Coeff:     -0.134D-02 0.122D-02 0.814D-04-0.139D-01 0.711D-01 0.943D+00
 Gap=     0.036 Goal=   None    Shift=    0.000
 Gap=     0.051 Goal=   None    Shift=    0.000
 RMSDP=6.68D-04 MaxDP=9.40D-02 DE=-7.27D-04 OVMax= 7.88D-03

 Cycle   7  Pass 1  IDiag  1:
 E= -1136.12690913312     Delta-E=       -0.000009388195 Rises=F Damp=F
 DIIS: error= 1.46D-04 at cycle   7 NSaved=   7.
 NSaved= 7 IEnMin= 7 EnMin= -1136.12690913312     IErMin= 7 ErrMin= 1.46D-04
 ErrMax= 1.46D-04  0.00D+00 EMaxC= 1.00D-01 BMatC= 5.39D-06 BMatP= 9.18D-06
 IDIUse=3 WtCom= 9.99D-01 WtEn= 1.46D-03
 Coeff-Com: -0.887D-03 0.905D-03-0.240D-01-0.311D-01 0.172D-01 0.609D+00
 Coeff-Com:  0.429D+00
 Coeff-En:   0.000D+00 0.000D+00 0.000D+00 0.000D+00 0.000D+00 0.140D+00
 Coeff-En:   0.860D+00
 Coeff:     -0.886D-03 0.904D-03-0.240D-01-0.311D-01 0.172D-01 0.608D+00
 Coeff:      0.430D+00
 Gap=     0.036 Goal=   None    Shift=    0.000
 Gap=     0.051 Goal=   None    Shift=    0.000
 RMSDP=1.88D-04 MaxDP=1.93D-02 DE=-9.39D-06 OVMax= 2.91D-03

 Cycle   8  Pass 1  IDiag  1:
 E= -1136.12691649280     Delta-E=       -0.000007359688 Rises=F Damp=F
 DIIS: error= 2.89D-05 at cycle   8 NSaved=   8.
 NSaved= 8 IEnMin= 8 EnMin= -1136.12691649280     IErMin= 8 ErrMin= 2.89D-05
 ErrMax= 2.89D-05  0.00D+00 EMaxC= 1.00D-01 BMatC= 2.55D-07 BMatP= 5.39D-06
 IDIUse=1 WtCom= 1.00D+00 WtEn= 0.00D+00
 Coeff-Com:  0.675D-03-0.891D-03-0.395D-02-0.237D-02-0.108D-01-0.994D-01
 Coeff-Com:  0.589D-01 0.106D+01
 Coeff:      0.675D-03-0.891D-03-0.395D-02-0.237D-02-0.108D-01-0.994D-01
 Coeff:      0.589D-01 0.106D+01
 Gap=     0.036 Goal=   None    Shift=    0.000
 Gap=     0.051 Goal=   None    Shift=    0.000
 RMSDP=1.68D-04 MaxDP=1.96D-02 DE=-7.36D-06 OVMax= 3.77D-03

 Cycle   9  Pass 1  IDiag  1:
 E= -1136.12691800289     Delta-E=       -0.000001510083 Rises=F Damp=F
 DIIS: error= 2.05D-05 at cycle   9 NSaved=   9.
 NSaved= 9 IEnMin= 9 EnMin= -1136.12691800289     IErMin= 9 ErrMin= 2.05D-05
 ErrMax= 2.05D-05  0.00D+00 EMaxC= 1.00D-01 BMatC= 1.15D-07 BMatP= 2.55D-07
 IDIUse=1 WtCom= 1.00D+00 WtEn= 0.00D+00
 Coeff-Com:  0.462D-03-0.574D-03 0.110D-02 0.369D-02-0.954D-02-0.135D+00
 Coeff-Com: -0.524D-01 0.442D+00 0.751D+00
 Coeff:      0.462D-03-0.574D-03 0.110D-02 0.369D-02-0.954D-02-0.135D+00
 Coeff:     -0.524D-01 0.442D+00 0.751D+00
 Gap=     0.036 Goal=   None    Shift=    0.000
 Gap=     0.051 Goal=   None    Shift=    0.000
 RMSDP=1.25D-04 MaxDP=1.73D-02 DE=-1.51D-06 OVMax= 2.47D-03

 Cycle  10  Pass 1  IDiag  1:
 E= -1136.12691860505     Delta-E=       -0.000000602160 Rises=F Damp=F
 DIIS: error= 1.49D-05 at cycle  10 NSaved=  10.
 NSaved=10 IEnMin=10 EnMin= -1136.12691860505     IErMin=10 ErrMin= 1.49D-05
 ErrMax= 1.49D-05  0.00D+00 EMaxC= 1.00D-01 BMatC= 5.56D-08 BMatP= 1.15D-07
 IDIUse=1 WtCom= 1.00D+00 WtEn= 0.00D+00
 Coeff-Com: -0.144D-04 0.442D-04 0.205D-02 0.262D-02-0.177D-02-0.240D-01
 Coeff-Com: -0.605D-01-0.246D+00 0.406D+00 0.922D+00
 Coeff:     -0.144D-04 0.442D-04 0.205D-02 0.262D-02-0.177D-02-0.240D-01
 Coeff:     -0.605D-01-0.246D+00 0.406D+00 0.922D+00
 Gap=     0.036 Goal=   None    Shift=    0.000
 Gap=     0.051 Goal=   None    Shift=    0.000
 RMSDP=9.66D-05 MaxDP=9.46D-03 DE=-6.02D-07 OVMax= 2.47D-03

 Cycle  11  Pass 1  IDiag  1:
 E= -1136.12691899462     Delta-E=       -0.000000389571 Rises=F Damp=F
 DIIS: error= 8.88D-06 at cycle  11 NSaved=  11.
 NSaved=11 IEnMin=11 EnMin= -1136.12691899462     IErMin=11 ErrMin= 8.88D-06
 ErrMax= 8.88D-06  0.00D+00 EMaxC= 1.00D-01 BMatC= 1.38D-08 BMatP= 5.56D-08
 IDIUse=1 WtCom= 1.00D+00 WtEn= 0.00D+00
 Coeff-Com: -0.710D-04 0.975D-04 0.162D-02 0.240D-03 0.305D-02 0.268D-01
 Coeff-Com: -0.163D-01-0.232D+00-0.102D+00 0.216D+00 0.110D+01
 Coeff:     -0.710D-04 0.975D-04 0.162D-02 0.240D-03 0.305D-02 0.268D-01
 Coeff:     -0.163D-01-0.232D+00-0.102D+00 0.216D+00 0.110D+01
 Gap=     0.036 Goal=   None    Shift=    0.000
 Gap=     0.051 Goal=   None    Shift=    0.000
 RMSDP=1.02D-04 MaxDP=1.50D-02 DE=-3.90D-07 OVMax= 2.04D-03

 Cycle  12  Pass 1  IDiag  1:
 E= -1136.12691914236     Delta-E=       -0.000000147747 Rises=F Damp=F
 DIIS: error= 3.29D-06 at cycle  12 NSaved=  12.
 NSaved=12 IEnMin=12 EnMin= -1136.12691914236     IErMin=12 ErrMin= 3.29D-06
 ErrMax= 3.29D-06  0.00D+00 EMaxC= 1.00D-01 BMatC= 1.83D-09 BMatP= 1.38D-08
 IDIUse=1 WtCom= 1.00D+00 WtEn= 0.00D+00
 Coeff-Com: -0.262D-04 0.280D-04 0.566D-05-0.457D-03 0.144D-02 0.136D-01
 Coeff-Com:  0.674D-02-0.141D-01-0.842D-01-0.147D+00 0.195D+00 0.103D+01
 Coeff:     -0.262D-04 0.280D-04 0.566D-05-0.457D-03 0.144D-02 0.136D-01
 Coeff:      0.674D-02-0.141D-01-0.842D-01-0.147D+00 0.195D+00 0.103D+01
 Gap=     0.036 Goal=   None    Shift=    0.000
 Gap=     0.051 Goal=   None    Shift=    0.000
 RMSDP=3.95D-05 MaxDP=6.14D-03 DE=-1.48D-07 OVMax= 7.85D-04

 Cycle  13  Pass 1  IDiag  1:
 E= -1136.12691916084     Delta-E=       -0.000000018478 Rises=F Damp=F
 DIIS: error= 9.21D-07 at cycle  13 NSaved=  13.
 NSaved=13 IEnMin=13 EnMin= -1136.12691916084     IErMin=13 ErrMin= 9.21D-07
 ErrMax= 9.21D-07  0.00D+00 EMaxC= 1.00D-01 BMatC= 2.72D-10 BMatP= 1.83D-09
 IDIUse=1 WtCom= 1.00D+00 WtEn= 0.00D+00
 Coeff-Com:  0.313D-05-0.659D-05-0.255D-03-0.116D-03-0.126D-03-0.113D-02
 Coeff-Com:  0.384D-02 0.351D-01-0.333D-04-0.706D-01-0.156D+00 0.240D+00
 Coeff-Com:  0.949D+00
 Coeff:      0.313D-05-0.659D-05-0.255D-03-0.116D-03-0.126D-03-0.113D-02
 Coeff:      0.384D-02 0.351D-01-0.333D-04-0.706D-01-0.156D+00 0.240D+00
 Coeff:      0.949D+00
 Gap=     0.036 Goal=   None    Shift=    0.000
 Gap=     0.051 Goal=   None    Shift=    0.000
 RMSDP=1.32D-05 MaxDP=2.24D-03 DE=-1.85D-08 OVMax= 2.37D-04

 Cycle  14  Pass 1  IDiag  1:
 E= -1136.12691916256     Delta-E=       -0.000000001719 Rises=F Damp=F
 DIIS: error= 3.44D-07 at cycle  14 NSaved=  14.
 NSaved=14 IEnMin=14 EnMin= -1136.12691916256     IErMin=14 ErrMin= 3.44D-07
 ErrMax= 3.44D-07  0.00D+00 EMaxC= 1.00D-01 BMatC= 3.09D-11 BMatP= 2.72D-10
 IDIUse=1 WtCom= 1.00D+00 WtEn= 0.00D+00
 Coeff-Com:  0.431D-05-0.518D-05-0.460D-04 0.318D-04-0.251D-03-0.143D-02
 Coeff-Com: -0.841D-03 0.918D-03 0.878D-02 0.167D-01-0.137D-01-0.138D+00
 Coeff-Com: -0.402D-02 0.113D+01
 Coeff:      0.431D-05-0.518D-05-0.460D-04 0.318D-04-0.251D-03-0.143D-02
 Coeff:     -0.841D-03 0.918D-03 0.878D-02 0.167D-01-0.137D-01-0.138D+00
 Coeff:     -0.402D-02 0.113D+01
 Gap=     0.036 Goal=   None    Shift=    0.000
 Gap=     0.051 Goal=   None    Shift=    0.000
 RMSDP=3.60D-06 MaxDP=5.52D-04 DE=-1.72D-09 OVMax= 5.33D-05

 Cycle  15  Pass 1  IDiag  1:
 E= -1136.12691916274     Delta-E=       -0.000000000175 Rises=F Damp=F
 DIIS: error= 1.23D-07 at cycle  15 NSaved=  15.
 NSaved=15 IEnMin=15 EnMin= -1136.12691916274     IErMin=15 ErrMin= 1.23D-07
 ErrMax= 1.23D-07  0.00D+00 EMaxC= 1.00D-01 BMatC= 4.19D-12 BMatP= 3.09D-11
 IDIUse=1 WtCom= 1.00D+00 WtEn= 0.00D+00
 Coeff-Com:  0.677D-06-0.491D-06 0.435D-04 0.253D-04 0.779D-05-0.144D-03
 Coeff-Com: -0.647D-03-0.452D-02 0.510D-03 0.101D-01 0.262D-01-0.447D-01
 Coeff-Com: -0.131D+00 0.442D-01 0.110D+01
 Coeff:      0.677D-06-0.491D-06 0.435D-04 0.253D-04 0.779D-05-0.144D-03
 Coeff:     -0.647D-03-0.452D-02 0.510D-03 0.101D-01 0.262D-01-0.447D-01
 Coeff:     -0.131D+00 0.442D-01 0.110D+01
 Gap=     0.036 Goal=   None    Shift=    0.000
 Gap=     0.051 Goal=   None    Shift=    0.000
 RMSDP=1.00D-06 MaxDP=1.19D-04 DE=-1.75D-10 OVMax= 1.09D-05

 Cycle  16  Pass 1  IDiag  1:
 E= -1136.12691916277     Delta-E=       -0.000000000038 Rises=F Damp=F
 DIIS: error= 6.37D-08 at cycle  16 NSaved=  16.
 NSaved=16 IEnMin=16 EnMin= -1136.12691916277     IErMin=16 ErrMin= 6.37D-08
 ErrMax= 6.37D-08  0.00D+00 EMaxC= 1.00D-01 BMatC= 9.38D-13 BMatP= 4.19D-12
 IDIUse=1 WtCom= 1.00D+00 WtEn= 0.00D+00
 Coeff-Com: -0.127D-05 0.163D-05 0.125D-04-0.488D-05 0.553D-04 0.268D-03
 Coeff-Com:  0.132D-03-0.159D-03-0.142D-02-0.265D-02 0.199D-02 0.254D-01
 Coeff-Com: -0.740D-02-0.190D+00 0.903D-01 0.108D+01
 Coeff:     -0.127D-05 0.163D-05 0.125D-04-0.488D-05 0.553D-04 0.268D-03
 Coeff:      0.132D-03-0.159D-03-0.142D-02-0.265D-02 0.199D-02 0.254D-01
 Coeff:     -0.740D-02-0.190D+00 0.903D-01 0.108D+01
 Gap=     0.036 Goal=   None    Shift=    0.000
 Gap=     0.051 Goal=   None    Shift=    0.000
 RMSDP=2.79D-07 MaxDP=2.40D-05 DE=-3.77D-11 OVMax= 5.97D-06

 Cycle  17  Pass 1  IDiag  1:
 E= -1136.12691916278     Delta-E=       -0.000000000004 Rises=F Damp=F
 DIIS: error= 3.53D-08 at cycle  17 NSaved=  17.
 NSaved=17 IEnMin=17 EnMin= -1136.12691916278     IErMin=17 ErrMin= 3.53D-08
 ErrMax= 3.53D-08  0.00D+00 EMaxC= 1.00D-01 BMatC= 2.15D-13 BMatP= 9.38D-13
 IDIUse=1 WtCom= 1.00D+00 WtEn= 0.00D+00
 Coeff-Com: -0.202D-06 0.185D-06-0.801D-05-0.520D-05-0.145D-05 0.699D-04
 Coeff-Com:  0.144D-03 0.760D-03-0.173D-03-0.207D-02-0.538D-02 0.106D-01
 Coeff-Com:  0.243D-01-0.136D-01-0.237D+00 0.834D-01 0.114D+01
 Coeff:     -0.202D-06 0.185D-06-0.801D-05-0.520D-05-0.145D-05 0.699D-04
 Coeff:      0.144D-03 0.760D-03-0.173D-03-0.207D-02-0.538D-02 0.106D-01
 Coeff:      0.243D-01-0.136D-01-0.237D+00 0.834D-01 0.114D+01
 Gap=     0.036 Goal=   None    Shift=    0.000
 Gap=     0.051 Goal=   None    Shift=    0.000
 RMSDP=1.67D-07 MaxDP=1.56D-05 DE=-4.09D-12 OVMax= 3.89D-06

 Cycle  18  Pass 1  IDiag  1:
 E= -1136.12691916278     Delta-E=        0.000000000001 Rises=F Damp=F
 DIIS: error= 1.67D-08 at cycle  18 NSaved=  18.
 NSaved=18 IEnMin=17 EnMin= -1136.12691916278     IErMin=18 ErrMin= 1.67D-08
 ErrMax= 1.67D-08  0.00D+00 EMaxC= 1.00D-01 BMatC= 4.84D-14 BMatP= 2.15D-13
 IDIUse=1 WtCom= 1.00D+00 WtEn= 0.00D+00
 Coeff-Com:  0.528D-06-0.691D-06-0.328D-05 0.874D-06-0.144D-04-0.728D-04
 Coeff-Com: -0.419D-04 0.887D-05 0.393D-03 0.705D-03-0.416D-03-0.700D-02
 Coeff-Com:  0.385D-02 0.448D-01-0.309D-01-0.282D+00 0.781D-01 0.119D+01
 Coeff:      0.528D-06-0.691D-06-0.328D-05 0.874D-06-0.144D-04-0.728D-04
 Coeff:     -0.419D-04 0.887D-05 0.393D-03 0.705D-03-0.416D-03-0.700D-02
 Coeff:      0.385D-02 0.448D-01-0.309D-01-0.282D+00 0.781D-01 0.119D+01
 Gap=     0.036 Goal=   None    Shift=    0.000
 Gap=     0.051 Goal=   None    Shift=    0.000
 RMSDP=7.01D-08 MaxDP=4.39D-06 DE= 1.36D-12 OVMax= 2.13D-06

 Cycle  19  Pass 1  IDiag  1:
 E= -1136.12691916277     Delta-E=        0.000000000008 Rises=F Damp=F
 DIIS: error= 5.56D-09 at cycle  19 NSaved=  19.
 NSaved=19 IEnMin=17 EnMin= -1136.12691916278     IErMin=19 ErrMin= 5.56D-09
 ErrMax= 5.56D-09  0.00D+00 EMaxC= 1.00D-01 BMatC= 8.44D-15 BMatP= 4.84D-14
 IDIUse=1 WtCom= 1.00D+00 WtEn= 0.00D+00
 Large coefficients: NSaved= 19 BigCof=    0.00 CofMax=   10.00 Det=-8.19D-15
 Inversion failed.  Reducing to 18 matrices.
 Large coefficients: NSaved= 18 BigCof=    0.00 CofMax=   10.00 Det=-9.98D-15
 Inversion failed.  Reducing to 17 matrices.
 Coeff-Com:  0.100D-05 0.479D-06 0.221D-05-0.361D-05-0.109D-04-0.681D-04
 Coeff-Com: -0.418D-04 0.161D-03 0.899D-03-0.754D-03-0.453D-02-0.229D-02
 Coeff-Com:  0.444D-01 0.313D-01-0.229D+00-0.193D+00 0.135D+01
 Coeff:      0.100D-05 0.479D-06 0.221D-05-0.361D-05-0.109D-04-0.681D-04
 Coeff:     -0.418D-04 0.161D-03 0.899D-03-0.754D-03-0.453D-02-0.229D-02
 Coeff:      0.444D-01 0.313D-01-0.229D+00-0.193D+00 0.135D+01
 Gap=     0.036 Goal=   None    Shift=    0.000
 Gap=     0.051 Goal=   None    Shift=    0.000
 RMSDP=2.97D-08 MaxDP=1.77D-06 DE= 8.19D-12 OVMax= 9.70D-07

 Cycle  20  Pass 1  IDiag  1:
 E= -1136.12691916276     Delta-E=        0.000000000010 Rises=F Damp=F
 DIIS: error= 2.90D-09 at cycle  20 NSaved=  18.
 NSaved=18 IEnMin=15 EnMin= -1136.12691916278     IErMin=18 ErrMin= 2.90D-09
 ErrMax= 2.90D-09  0.00D+00 EMaxC= 1.00D-01 BMatC= 1.74D-15 BMatP= 8.44D-15
 IDIUse=1 WtCom= 1.00D+00 WtEn= 0.00D+00
 Large coefficients: NSaved= 18 BigCof=    0.00 CofMax=   10.00 Det=-9.88D-16
 Inversion failed.  Reducing to 17 matrices.
 Large coefficients: NSaved= 17 BigCof=    0.00 CofMax=   10.00 Det=-1.00D-15
 Inversion failed.  Reducing to 16 matrices.
 Large coefficients: NSaved= 16 BigCof=    0.00 CofMax=   10.00 Det=-1.01D-15
 Inversion failed.  Reducing to 15 matrices.
 Coeff-Com:  0.137D-05 0.110D-04 0.681D-04-0.947D-05-0.164D-03-0.549D-03
 Coeff-Com:  0.121D-02 0.182D-02-0.463D-02-0.136D-01 0.264D-01 0.731D-01
 Coeff-Com: -0.121D+00-0.444D+00 0.148D+01
 Coeff:      0.137D-05 0.110D-04 0.681D-04-0.947D-05-0.164D-03-0.549D-03
 Coeff:      0.121D-02 0.182D-02-0.463D-02-0.136D-01 0.264D-01 0.731D-01
 Coeff:     -0.121D+00-0.444D+00 0.148D+01
 Gap=     0.036 Goal=   None    Shift=    0.000
 Gap=     0.051 Goal=   None    Shift=    0.000
 RMSDP=1.15D-08 MaxDP=8.35D-07 DE= 1.00D-11 OVMax= 4.46D-07

 Cycle  21  Pass 1  IDiag  1:
 E= -1136.12691916277     Delta-E=       -0.000000000010 Rises=F Damp=F
 DIIS: error= 1.37D-09 at cycle  21 NSaved=  16.
 NSaved=16 IEnMin=12 EnMin= -1136.12691916278     IErMin=16 ErrMin= 1.37D-09
 ErrMax= 1.37D-09  0.00D+00 EMaxC= 1.00D-01 BMatC= 4.81D-16 BMatP= 1.74D-15
 IDIUse=1 WtCom= 1.00D+00 WtEn= 0.00D+00
 Large coefficients: NSaved= 16 BigCof=    0.00 CofMax=   10.00 Det=-4.11D-16
 Inversion failed.  Reducing to 15 matrices.
 Coeff-Com:  0.253D-05 0.193D-04-0.199D-05-0.614D-04-0.158D-03 0.392D-03
 Coeff-Com:  0.836D-03-0.941D-03-0.102D-01-0.587D-04 0.621D-01 0.163D-01
 Coeff-Com: -0.384D+00 0.256D+00 0.106D+01
 Coeff:      0.253D-05 0.193D-04-0.199D-05-0.614D-04-0.158D-03 0.392D-03
 Coeff:      0.836D-03-0.941D-03-0.102D-01-0.587D-04 0.621D-01 0.163D-01
 Coeff:     -0.384D+00 0.256D+00 0.106D+01
 Gap=     0.036 Goal=   None    Shift=    0.000
 Gap=     0.051 Goal=   None    Shift=    0.000
 RMSDP=5.79D-09 MaxDP=5.90D-07 DE=-9.55D-12 OVMax= 1.86D-07

 SCF Done:  E(UB3LYP) =  -1136.12691916     A.U. after   21 cycles
            NFock= 21  Conv=0.58D-08     -V/T= 2.0028
 <Sx>= 0.0000 <Sy>= 0.0000 <Sz>= 0.5000 <S**2>= 0.7600 S= 0.5050
 <L.S>= 0.000000000000E+00
 KE= 1.132932378303D+03 PE=-3.411058153796D+03 EE= 8.011770149182D+02
 Annihilation of the first spin contaminant:
 S**2 before annihilation     0.7600,   after     0.7501
 Leave Link  502 at Fri Dec  8 00:07:34 2023, MaxMem=  1879048192 cpu:             195.3 elap:              17.4
 (Enter /home/sekinelabo/g16/l601.exe)
 Copying SCF densities to generalized density rwf, IOpCl= 1 IROHF=0.

 **********************************************************************

            Population analysis using the SCF Density.

 **********************************************************************

 Orbital symmetries:
 Alpha Orbitals:
       Occupied  (A) (A) (A) (A) (A) (A) (A) (A) (A) (A) (A) (A)
                 (A) (A) (A) (A) (A) (A) (A) (A) (A) (A) (A) (A)
                 (A) (A) (A) (A) (A) (A) (A) (A) (A) (A) (A) (A)
                 (A) (A) (A)
       Virtual   (A) (A) (A) (A) (A) (A) (A) (A) (A) (A) (A) (A)
                 (A) (A) (A) (A) (A) (A) (A) (A) (A) (A) (A) (A)
                 (A) (A) (A) (A) (A) (A) (A) (A) (A) (A) (A) (A)
                 (A) (A) (A) (A) (A) (A) (A) (A) (A) (A) (A) (A)
                 (A) (A) (A) (A) (A) (A) (A) (A) (A) (A) (A) (A)
                 (A) (A) (A) (A) (A) (A) (A) (A) (A) (A) (A) (A)
                 (A) (A) (A) (A) (A) (A) (A) (A) (A) (A) (A) (A)
                 (A) (A) (A) (A) (A) (A) (A) (A) (A) (A) (A) (A)
                 (A) (A) (A) (A) (A) (A) (A) (A) (A) (A) (A) (A)
                 (A) (A) (A) (A) (A) (A) (A) (A) (A) (A) (A) (A)
                 (A) (A) (A) (A) (A) (A) (A) (A) (A) (A) (A) (A)
                 (A) (A) (A) (A) (A) (A) (A) (A) (A) (A) (A) (A)
                 (A) (A) (A) (A) (A) (A) (A) (A) (A) (A) (A) (A)
                 (A) (A) (A) (A) (A) (A) (A) (A) (A) (A) (A) (A)
                 (A) (A) (A)
 Beta  Orbitals:
       Occupied  (A) (A) (A) (A) (A) (A) (A) (A) (A) (A) (A) (A)
                 (A) (A) (A) (A) (A) (A) (A) (A) (A) (A) (A) (A)
                 (A) (A) (A) (A) (A) (A) (A) (A) (A) (A) (A) (A)
                 (A) (A)
       Virtual   (A) (A) (A) (A) (A) (A) (A) (A) (A) (A) (A) (A)
                 (A) (A) (A) (A) (A) (A) (A) (A) (A) (A) (A) (A)
                 (A) (A) (A) (A) (A) (A) (A) (A) (A) (A) (A) (A)
                 (A) (A) (A) (A) (A) (A) (A) (A) (A) (A) (A) (A)
                 (A) (A) (A) (A) (A) (A) (A) (A) (A) (A) (A) (A)
                 (A) (A) (A) (A) (A) (A) (A) (A) (A) (A) (A) (A)
                 (A) (A) (A) (A) (A) (A) (A) (A) (A) (A) (A) (A)
                 (A) (A) (A) (A) (A) (A) (A) (A) (A) (A) (A) (A)
                 (A) (A) (A) (A) (A) (A) (A) (A) (A) (A) (A) (A)
                 (A) (A) (A) (A) (A) (A) (A) (A) (A) (A) (A) (A)
                 (A) (A) (A) (A) (A) (A) (A) (A) (A) (A) (A) (A)
                 (A) (A) (A) (A) (A) (A) (A) (A) (A) (A) (A) (A)
                 (A) (A) (A) (A) (A) (A) (A) (A) (A) (A) (A) (A)
                 (A) (A) (A) (A) (A) (A) (A) (A) (A) (A) (A) (A)
                 (A) (A) (A) (A)
 The electronic state is 2-A.
 Alpha  occ. eigenvalues --  -38.45274 -38.44049 -38.43879 -38.43744 -38.43472
 Alpha  occ. eigenvalues --  -38.43084 -38.42902  -2.21036  -2.19876  -2.19836
 Alpha  occ. eigenvalues --   -2.19598  -2.19364  -2.18964  -2.18892  -1.14713
 Alpha  occ. eigenvalues --   -1.14694  -1.14666  -1.13609  -1.13550  -1.13531
 Alpha  occ. eigenvalues --   -1.13522  -1.13515  -1.13410  -1.13306  -1.13252
 Alpha  occ. eigenvalues --   -1.13214  -1.13063  -1.13028  -1.12938  -1.12699
 Alpha  occ. eigenvalues --   -1.12651  -1.12560  -1.12547  -1.12538  -1.12477
 Alpha  occ. eigenvalues --   -0.18645  -0.13541  -0.11949  -0.10331
 Alpha virt. eigenvalues --   -0.06733  -0.05302  -0.03928  -0.03326  -0.02598
 Alpha virt. eigenvalues --   -0.02465  -0.01991  -0.01261  -0.00414  -0.00137
 Alpha virt. eigenvalues --   -0.00010   0.00215   0.00616   0.00751   0.00783
 Alpha virt. eigenvalues --    0.00903   0.01066   0.01112   0.01337   0.01384
 Alpha virt. eigenvalues --    0.01435   0.01490   0.01811   0.01890   0.02086
 Alpha virt. eigenvalues --    0.02210   0.02264   0.02456   0.02578   0.02760
 Alpha virt. eigenvalues --    0.02804   0.02983   0.03031   0.03052   0.03125
 Alpha virt. eigenvalues --    0.03206   0.03284   0.03324   0.03581   0.03691
 Alpha virt. eigenvalues --    0.03812   0.03940   0.04485   0.04728   0.04998
 Alpha virt. eigenvalues --    0.05136   0.05259   0.05306   0.05558   0.06018
 Alpha virt. eigenvalues --    0.06180   0.06294   0.06692   0.07480   0.07565
 Alpha virt. eigenvalues --    0.07714   0.07868   0.08178   0.08664   0.08797
 Alpha virt. eigenvalues --    0.09341   0.09557   0.10085   0.10163   0.11491
 Alpha virt. eigenvalues --    0.12057   0.12384   0.12646   0.13380   0.13755
 Alpha virt. eigenvalues --    0.14017   0.14240   0.14694   0.14788   0.14926
 Alpha virt. eigenvalues --    0.15239   0.15757   0.16044   0.17546   0.17634
 Alpha virt. eigenvalues --    0.24581   0.26044   0.27152   0.27900   0.29226
 Alpha virt. eigenvalues --    0.30240   0.30598   0.31945   0.32387   0.33330
 Alpha virt. eigenvalues --    0.33467   0.35457   0.35639   0.37138   0.38254
 Alpha virt. eigenvalues --    0.40091   0.40449   0.41130   0.41604   0.42023
 Alpha virt. eigenvalues --    0.43255   0.43689   0.44075   0.44530   0.44790
 Alpha virt. eigenvalues --    0.44845   0.44994   0.45509   0.45779   0.46308
 Alpha virt. eigenvalues --    0.46994   0.47199   0.48330   0.48516   0.49123
 Alpha virt. eigenvalues --    0.49635   0.50195   0.50607   0.51925   0.52594
 Alpha virt. eigenvalues --    0.53948   0.54117   0.54464   0.55171   0.55662
 Alpha virt. eigenvalues --    0.56430   0.57617   0.59010   0.60638   0.61847
 Alpha virt. eigenvalues --    0.62537   0.64030   0.65907   0.66838   0.71403
 Alpha virt. eigenvalues --    0.76852   2.03589   2.10744   2.16085   2.19094
 Alpha virt. eigenvalues --    2.20679   2.25841   2.28426   4.43078   4.43532
 Alpha virt. eigenvalues --    4.44234   4.44613   4.44723   4.45182   4.45700
 Alpha virt. eigenvalues --    4.46672   4.46838   4.47322   4.48364   4.48855
 Alpha virt. eigenvalues --    4.49417   4.49971   4.52749   4.54465   4.57241
 Alpha virt. eigenvalues --    4.57697   4.62618   4.65106   4.70799  96.23036
 Alpha virt. eigenvalues --   96.31648  96.37945  96.41394  96.43943  96.50787
 Alpha virt. eigenvalues --   96.53891
  Beta  occ. eigenvalues --  -38.45277 -38.44035 -38.43836 -38.43729 -38.43457
  Beta  occ. eigenvalues --  -38.43068 -38.42825  -2.21043  -2.19852  -2.19757
  Beta  occ. eigenvalues --   -2.19572  -2.19342  -2.18938  -2.18753  -1.14710
  Beta  occ. eigenvalues --   -1.14700  -1.14671  -1.13555  -1.13533  -1.13511
  Beta  occ. eigenvalues --   -1.13489  -1.13465  -1.13350  -1.13286  -1.13225
  Beta  occ. eigenvalues --   -1.13189  -1.13046  -1.12981  -1.12927  -1.12676
  Beta  occ. eigenvalues --   -1.12599  -1.12541  -1.12465  -1.12435  -1.12379
  Beta  occ. eigenvalues --   -0.17950  -0.13334  -0.11713
  Beta virt. eigenvalues --   -0.06616  -0.06456  -0.05268  -0.03858  -0.02725
  Beta virt. eigenvalues --   -0.02357  -0.01871  -0.01225  -0.01069  -0.00318
  Beta virt. eigenvalues --   -0.00037   0.00055   0.00271   0.00735   0.00788
  Beta virt. eigenvalues --    0.00846   0.00927   0.01139   0.01198   0.01466
  Beta virt. eigenvalues --    0.01527   0.01557   0.01643   0.01901   0.01919
  Beta virt. eigenvalues --    0.02166   0.02252   0.02364   0.02452   0.02602
  Beta virt. eigenvalues --    0.02771   0.02922   0.03026   0.03079   0.03095
  Beta virt. eigenvalues --    0.03212   0.03231   0.03338   0.03406   0.03710
  Beta virt. eigenvalues --    0.03833   0.03945   0.04002   0.04613   0.04793
  Beta virt. eigenvalues --    0.05102   0.05201   0.05386   0.05542   0.05727
  Beta virt. eigenvalues --    0.06165   0.06307   0.06506   0.06769   0.07531
  Beta virt. eigenvalues --    0.07696   0.07872   0.08147   0.08220   0.08727
  Beta virt. eigenvalues --    0.08876   0.09585   0.09800   0.10222   0.10325
  Beta virt. eigenvalues --    0.11700   0.12272   0.12502   0.12808   0.13687
  Beta virt. eigenvalues --    0.14009   0.14198   0.14591   0.14829   0.15060
  Beta virt. eigenvalues --    0.15154   0.15445   0.16203   0.16335   0.17631
  Beta virt. eigenvalues --    0.17978   0.24800   0.26269   0.27510   0.28209
  Beta virt. eigenvalues --    0.29560   0.30588   0.30807   0.32207   0.32759
  Beta virt. eigenvalues --    0.33523   0.33631   0.35592   0.35703   0.37303
  Beta virt. eigenvalues --    0.38363   0.40289   0.40688   0.41447   0.41882
  Beta virt. eigenvalues --    0.42236   0.43362   0.43849   0.44156   0.44699
  Beta virt. eigenvalues --    0.44856   0.45007   0.45181   0.45650   0.46018
  Beta virt. eigenvalues --    0.46413   0.47175   0.47299   0.48527   0.48705
  Beta virt. eigenvalues --    0.49310   0.49837   0.50333   0.50773   0.52055
  Beta virt. eigenvalues --    0.52762   0.54153   0.54243   0.54560   0.55322
  Beta virt. eigenvalues --    0.55860   0.56544   0.57732   0.59244   0.60744
  Beta virt. eigenvalues --    0.62087   0.62942   0.64240   0.66081   0.67079
  Beta virt. eigenvalues --    0.71678   0.76989   2.03661   2.10764   2.16132
  Beta virt. eigenvalues --    2.19178   2.20728   2.26020   2.28686   4.43144
  Beta virt. eigenvalues --    4.43596   4.44260   4.44666   4.44774   4.45190
  Beta virt. eigenvalues --    4.45715   4.46717   4.46883   4.47350   4.48385
  Beta virt. eigenvalues --    4.48884   4.49463   4.49995   4.52764   4.54554
  Beta virt. eigenvalues --    4.57293   4.57775   4.62683   4.65177   4.70838
  Beta virt. eigenvalues --   96.23062  96.31656  96.37963  96.41420  96.43960
  Beta virt. eigenvalues --   96.50845  96.53969
          Condensed to atoms (all electrons):
               1          2          3          4          5          6
     1  Na  16.760762   1.476458   1.384991  -3.024365  -0.606934  -2.703508
     2  Na   1.476458  12.170478   1.064803  -2.380889  -0.588828  -0.475897
     3  Na   1.384991   1.064803  11.304783  -1.732626  -0.291042  -0.481371
     4  Na  -3.024365  -2.380889  -1.732626  16.269262   0.744735   0.770545
     5  Na  -0.606934  -0.588828  -0.291042   0.744735  10.797792   0.319578
     6  Na  -2.703508  -0.475897  -0.481371   0.770545   0.319578  12.451745
     7  Na  -1.950089  -0.384656  -0.202193   0.300044   0.340063   1.089220
               7
     1  Na  -1.950089
     2  Na  -0.384656
     3  Na  -0.202193
     4  Na   0.300044
     5  Na   0.340063
     6  Na   1.089220
     7  Na  11.909096
          Atomic-Atomic Spin Densities.
               1          2          3          4          5          6
     1  Na   4.497492   1.398826   1.248597  -3.470567  -0.394447  -1.528575
     2  Na   1.398826   0.308875   0.320370  -1.073646  -0.028160  -0.435370
     3  Na   1.248597   0.320370   0.435678  -1.035577  -0.060431  -0.376849
     4  Na  -3.470567  -1.073646  -1.035577   3.417938   0.307305   1.263014
     5  Na  -0.394447  -0.028160  -0.060431   0.307305  -0.016472   0.086532
     6  Na  -1.528575  -0.435370  -0.376849   1.263014   0.086532   0.492337
     7  Na  -1.062674  -0.347114  -0.389008   1.044185   0.058031   0.291448
               7
     1  Na  -1.062674
     2  Na  -0.347114
     3  Na  -0.389008
     4  Na   1.044185
     5  Na   0.058031
     6  Na   0.291448
     7  Na   0.232369
 Mulliken charges and spin densities:
               1          2
     1  Na  -0.337316   0.688653
     2  Na   0.118530   0.143781
     3  Na  -0.047345   0.142780
     4  Na   0.053294   0.452653
     5  Na   0.284635  -0.047642
     6  Na   0.029688  -0.207464
     7  Na  -0.101485  -0.172762
 Sum of Mulliken charges =  -0.00000   1.00000
 Mulliken charges and spin densities with hydrogens summed into heavy atoms:
               1          2
     1  Na  -0.337316   0.688653
     2  Na   0.118530   0.143781
     3  Na  -0.047345   0.142780
     4  Na   0.053294   0.452653
     5  Na   0.284635  -0.047642
     6  Na   0.029688  -0.207464
     7  Na  -0.101485  -0.172762
 Electronic spatial extent (au):  <R**2>=           2352.2404
 Charge=             -0.0000 electrons
 Dipole moment (field-independent basis, Debye):
    X=             -0.7890    Y=             -0.0670    Z=             -0.0006  Tot=              0.7918
 Quadrupole moment (field-independent basis, Debye-Ang):
   XX=            -46.8521   YY=            -69.1005   ZZ=            -74.8130
   XY=              0.6404   XZ=             -2.7150   YZ=              0.3934
 Traceless Quadrupole moment (field-independent basis, Debye-Ang):
   XX=             16.7364   YY=             -5.5119   ZZ=            -11.2244
   XY=              0.6404   XZ=             -2.7150   YZ=              0.3934
 Octapole moment (field-independent basis, Debye-Ang**2):
  XXX=            -40.0494  YYY=              4.5827  ZZZ=             -0.7003  XYY=              4.9867
  XXY=             -9.4961  XXZ=              4.2910  XZZ=             -0.1104  YZZ=              0.8028
  YYZ=              0.8758  XYZ=             -0.0168
 Hexadecapole moment (field-independent basis, Debye-Ang**3):
 XXXX=          -1578.9308 YYYY=          -1320.7678 ZZZZ=           -723.0608 XXXY=             25.5039
 XXXZ=            -54.1212 YYYX=             -1.9252 YYYZ=             -2.5452 ZZZX=             13.4806
 ZZZY=              2.9052 XXYY=           -499.1094 XXZZ=           -490.4469 YYZZ=           -371.7802
 XXYZ=              9.7864 YYXZ=            -37.9541 ZZXY=             -0.3559
 N-N= 3.408218414115D+02 E-N=-3.411058153617D+03  KE= 1.132932378303D+03
                          Isotropic Fermi Contact Couplings
        Atom                 a.u.       MegaHertz       Gauss      10(-4) cm-1
     1  Na(23)             0.16175     191.35215      68.27921      63.82821
     2  Na(23)             0.02757      32.61158      11.63662      10.87805
     3  Na(23)             0.03272      38.70928      13.81243      12.91202
     4  Na(23)             0.29808     352.63737     125.82978     117.62717
     5  Na(23)            -0.02583     -30.56327     -10.90574     -10.19481
     6  Na(23)             0.01715      20.28526       7.23829       6.76643
     7  Na(23)             0.02606      30.83505      11.00271      10.28547
 --------------------------------------------------------
       Center         ----  Spin Dipole Couplings  ----
                      3XX-RR        3YY-RR        3ZZ-RR
 --------------------------------------------------------
     1   Atom       -0.001905     -0.009319      0.011224
     2   Atom       -0.012992     -0.010305      0.023297
     3   Atom       -0.010151     -0.006406      0.016558
     4   Atom        0.004759      0.001475     -0.006234
     5   Atom       -0.002264     -0.006691      0.008955
     6   Atom       -0.015704     -0.014015      0.029719
     7   Atom       -0.019689     -0.010754      0.030443
 --------------------------------------------------------
                        XY            XZ            YZ
 --------------------------------------------------------
     1   Atom        0.001253     -0.005697     -0.002453
     2   Atom       -0.001844     -0.006026      0.013751
     3   Atom        0.000686     -0.003070     -0.011935
     4   Atom        0.000613     -0.010758     -0.000554
     5   Atom        0.000267     -0.000116     -0.000814
     6   Atom       -0.005205      0.014976     -0.009848
     7   Atom        0.002406      0.007299      0.013834
 --------------------------------------------------------


 ---------------------------------------------------------------------------------
              Anisotropic Spin Dipole Couplings in Principal Axis System
 ---------------------------------------------------------------------------------

       Atom             a.u.   MegaHertz   Gauss  10(-4) cm-1        Axes

              Baa    -0.0097    -1.364    -0.487    -0.455 -0.0934  0.9915  0.0910
     1 Na(23) Bbb    -0.0040    -0.567    -0.202    -0.189  0.9323  0.0550  0.3574
              Bcc     0.0137     1.931     0.689     0.644 -0.3494 -0.1182  0.9295
 
              Baa    -0.0153    -2.157    -0.770    -0.720 -0.2064  0.9110 -0.3570
     2 Na(23) Bbb    -0.0139    -1.959    -0.699    -0.653  0.9672  0.2451  0.0661
              Bcc     0.0291     4.116     1.469     1.373 -0.1478  0.3317  0.9318
 
              Baa    -0.0117    -1.657    -0.591    -0.553  0.4024  0.8270  0.3925
     3 Na(23) Bbb    -0.0102    -1.440    -0.514    -0.480  0.9104 -0.4065 -0.0769
              Bcc     0.0219     3.098     1.105     1.033 -0.0960 -0.3883  0.9165
 
              Baa    -0.0128    -1.810    -0.646    -0.604  0.5217  0.0107  0.8531
     4 Na(23) Bbb     0.0014     0.199     0.071     0.066 -0.0750  0.9966  0.0334
              Bcc     0.0114     1.611     0.575     0.537  0.8498  0.0814 -0.5207
 
              Baa    -0.0067    -0.953    -0.340    -0.318 -0.0579  0.9970  0.0512
     5 Na(23) Bbb    -0.0023    -0.318    -0.113    -0.106  0.9983  0.0573  0.0145
              Bcc     0.0090     1.271     0.453     0.424 -0.0115 -0.0520  0.9986
 
              Baa    -0.0211    -2.984    -1.065    -0.995  0.8983  0.3973 -0.1876
     6 Na(23) Bbb    -0.0154    -2.181    -0.778    -0.727 -0.3313  0.8930  0.3046
              Bcc     0.0366     5.165     1.843     1.723  0.2886 -0.2115  0.9338
 
              Baa    -0.0208    -2.932    -1.046    -0.978  0.9901 -0.0685 -0.1226
     7 Na(23) Bbb    -0.0150    -2.113    -0.754    -0.705  0.0295  0.9548 -0.2957
              Bcc     0.0357     5.045     1.800     1.683  0.1374  0.2891  0.9474
 

 ---------------------------------------------------------------------------------

 No NMR shielding tensors so no spin-rotation constants.
 Leave Link  601 at Fri Dec  8 00:07:34 2023, MaxMem=  1879048192 cpu:               2.3 elap:               0.2
 (Enter /home/sekinelabo/g16/l701.exe)
 ... and contract with generalized density number  0.
 Compute integral first derivatives.
 Leave Link  701 at Fri Dec  8 00:07:34 2023, MaxMem=  1879048192 cpu:               1.6 elap:               0.1
 (Enter /home/sekinelabo/g16/l702.exe)
 L702 exits ... SP integral derivatives will be done elsewhere.
 Leave Link  702 at Fri Dec  8 00:07:35 2023, MaxMem=  1879048192 cpu:               0.5 elap:               0.0
 (Enter /home/sekinelabo/g16/l703.exe)
 Integral derivatives from FoFJK, PRISM(SPDF).
 Compute integral first derivatives, UseDBF=F ICtDFT=           0.
 Calling FoFJK, ICntrl=      2127 FMM=F ISym2X=0 I1Cent= 0 IOpClX= 1 NMat=1 NMatS=1 NMatT=0.
 FoFJK:  IHMeth= 1 ICntrl=    2127 DoSepK=F KAlg= 0 I1Cent=           0 FoldK=F
 IRaf=         0 NMat=       1 IRICut=       1 DoRegI=T DoRafI=F ISym2E= 0 IDoP0=0 IntGTp=1.
 FoFCou: FMM=F IPFlag=           0 FMFlag=      100000 FMFlg1=         800
         NFxFlg=           0 DoJE=F BraDBF=F KetDBF=F FulRan=T
         wScrn=  0.000000 ICntrl=      2127 IOpCl=  1 I1Cent=           0 NGrid=           0
         NMat0=    1 NMatS0=      1 NMatT0=    0 NMatD0=    1 NMtDS0=    0 NMtDT0=    0
 Symmetry not used in FoFCou.
 Leave Link  703 at Fri Dec  8 00:07:37 2023, MaxMem=  1879048192 cpu:              33.2 elap:               2.2
 (Enter /home/sekinelabo/g16/l716.exe)
 Dipole        =-3.10411203D-01-2.63572274D-02-2.54386492D-04
 ***** Axes restored to original set *****
 -------------------------------------------------------------------
 Center     Atomic                   Forces (Hartrees/Bohr)
 Number     Number              X              Y              Z
 -------------------------------------------------------------------
      1       11          -0.002863167   -0.006736312    0.000155257
      2       11          -0.004226580    0.000686452   -0.001643058
      3       11          -0.002746579    0.001139290    0.001227402
      4       11           0.003515865    0.003773285    0.002006225
      5       11           0.002831878   -0.004223810   -0.002862925
      6       11           0.002840729    0.005609030   -0.003686413
      7       11           0.000647854   -0.000247935    0.004803513
 -------------------------------------------------------------------
 Cartesian Forces:  Max     0.006736312 RMS     0.003282991
 Z-matrix is all fixed cartesians, so copy forces.
 Force constants in Cartesian coordinates: 
                1             2             3             4             5 
      1  0.121460D+00
      2  0.226754D-01  0.121543D+00
      3  0.337932D-03  0.410464D-02  0.927749D-01
      4 -0.198661D-01  0.547973D-02  0.168699D-01  0.449247D-01
      5 -0.123768D-01 -0.132312D-01  0.821364D-02 -0.827384D-03  0.581091D-01
      6 -0.829094D-02 -0.480606D-02 -0.187698D-01 -0.182214D-02  0.111488D-01
      7 -0.529687D-02  0.119495D-01 -0.756987D-03 -0.546915D-02  0.648546D-02
      8  0.225670D-02 -0.236243D-02  0.269520D-03  0.313132D-02 -0.132886D-01
      9 -0.105360D-02  0.116153D-02  0.412477D-02 -0.159092D-02  0.156446D-01
     10 -0.237563D-01 -0.735342D-02 -0.218700D-02 -0.249968D-01 -0.303793D-02
     11 -0.118515D-01 -0.151472D-01 -0.348632D-02 -0.128861D-01 -0.225483D-01
     12 -0.525240D-03 -0.298544D-02 -0.824020D-02 -0.238696D-01 -0.160806D-01
     13 -0.149755D-01 -0.164212D-01 -0.944415D-02  0.297479D-02  0.324047D-02
     14  0.454949D-02 -0.239361D-01 -0.120320D-01  0.196340D-02  0.566026D-02
     15  0.701257D-02 -0.361647D-02 -0.148920D-01 -0.196589D-03 -0.277187D-02
     16 -0.281008D-01 -0.215550D-01  0.119989D-01 -0.481294D-02  0.613826D-02
     17  0.245247D-02 -0.489749D-01  0.134419D-01  0.271283D-02 -0.206096D-01
     18 -0.183520D-02  0.382497D-02 -0.240204D-01  0.906066D-02 -0.157626D-01
     19 -0.294641D-01  0.522501D-02 -0.168186D-01  0.724559D-02  0.377949D-03
     20 -0.770578D-02 -0.178915D-01 -0.105114D-01  0.426203D-03  0.590821D-02
     21  0.435448D-02  0.231684D-02 -0.309773D-01  0.154869D-02 -0.391923D-03
                6             7             8             9            10 
      6  0.967565D-01
      7  0.449064D-02  0.332326D-01
      8 -0.122870D-01 -0.129090D-01  0.635740D-01
      9 -0.213446D-01  0.130367D-02 -0.143576D-02  0.434858D-01
     10  0.720233D-02 -0.171048D-01  0.424136D-02 -0.263037D-02  0.123439D+00
     11 -0.245877D-02 -0.205779D-01 -0.283492D-01 -0.133159D-02  0.228286D-01
     12 -0.329210D-01 -0.872123D-04  0.181525D-02 -0.106689D-01  0.415181D-02
     13  0.299924D-02  0.108881D-02  0.252818D-03  0.340085D-03 -0.384604D-02
     14 -0.400168D-02  0.116913D-02  0.380927D-04  0.468353D-03 -0.426385D-03
     15  0.957302D-03  0.276156D-02 -0.225714D-02  0.388919D-02  0.234523D-02
     16 -0.471870D-02  0.326021D-02  0.413219D-03  0.133629D-02 -0.277734D-01
     17  0.138415D-01  0.602202D-02 -0.200031D-02  0.674842D-03 -0.139935D-01
     18 -0.168681D-01 -0.151187D-02  0.367266D-02  0.414652D-02  0.518278D-04
     19  0.139552D-03 -0.971082D-02  0.261353D-02  0.229486D-02 -0.259616D-01
     20 -0.143675D-02  0.786082D-02 -0.176116D-01 -0.151820D-01 -0.225872D-02
     21 -0.781023D-02 -0.619979D-02  0.102225D-01 -0.236327D-01 -0.893382D-02
               11            12            13            14            15 
     11  0.103271D+00
     12  0.558275D-02  0.971910D-01
     13  0.630797D-02  0.763991D-02  0.341989D-01
     14  0.312047D-02 -0.219625D-02 -0.944387D-02  0.387143D-01
     15 -0.357590D-02  0.296475D-02 -0.882224D-02  0.600779D-02  0.409857D-01
     16  0.200035D-01 -0.837522D-02 -0.937396D-02 -0.818035D-03  0.593361D-02
     17 -0.185702D-01 -0.187322D-03  0.959990D-02 -0.128884D-01 -0.649148D-02
     18  0.685706D-02 -0.218178D-01 -0.106746D-02  0.181062D-01 -0.179572D-01
     19 -0.382454D-02  0.210656D-01 -0.100670D-01  0.300628D-02 -0.903413D-02
     20 -0.217764D-01  0.140516D-01  0.646391D-02 -0.107086D-01  0.127051D-01
     21 -0.158723D-02 -0.265079D-01  0.835461D-02 -0.635236D-02 -0.159477D-01
               16            17            18            19            20 
     16  0.609554D-01
     17 -0.760361D-02  0.103709D+00
     18 -0.285415D-02 -0.255706D-01  0.805798D-01
     19  0.584550D-02  0.809882D-03 -0.184379D-02  0.621125D-01
     20  0.342168D-02 -0.665805D-03  0.887241D-02 -0.820811D-02  0.627458D-01
     21 -0.332074D-02  0.429123D-02 -0.406278D-02  0.419657D-02 -0.849902D-02
               21 
     21  0.108939D+00
 Leave Link  716 at Fri Dec  8 00:07:37 2023, MaxMem=  1879048192 cpu:               0.4 elap:               0.0
 (Enter /home/sekinelabo/g16/l103.exe)

 GradGradGradGradGradGradGradGradGradGradGradGradGradGradGradGradGradGrad
 Berny optimization.
 Search for a local minimum.
 Step number   1 out of a maximum of    2
 All quantities printed in internal units (Hartrees-Bohrs-Radians)
 Second derivative matrix not updated -- first step.
 ITU=  0
     Eigenvalues ---    0.03723   0.04580   0.04799   0.05573   0.06673
     Eigenvalues ---    0.08339   0.09021   0.11101   0.11621   0.12462
     Eigenvalues ---    0.13937   0.14718   0.15560   0.17564   0.18743
 Angle between quadratic step and forces=  33.96 degrees.
 Linear search not attempted -- first point.
 B after Tr=     0.000000    0.000000    0.000000
         Rot=    1.000000    0.000000    0.000000    0.000000 Ang=   0.00 deg.
 Variable       Old X    -DE/DX   Delta X   Delta X   Delta X     New X
                                 (Linear)    (Quad)   (Total)
    X1       20.31966  -0.00286   0.00000   0.00057   0.00057  20.32022
    Y1       22.82090  -0.00674   0.00000  -0.03290  -0.03290  22.78800
    Z1       23.25743   0.00016   0.00000  -0.00609  -0.00609  23.25134
    X2       25.06571  -0.00423   0.00000  -0.06590  -0.06590  24.99981
    Y2       21.76643   0.00069   0.00000   0.02538   0.02538  21.79181
    Z2       18.09940  -0.00164   0.00000  -0.01618  -0.01618  18.08322
    X3       26.50114  -0.00275   0.00000  -0.04486  -0.04486  26.45628
    Y3       17.90516   0.00114   0.00000   0.02084   0.02084  17.92599
    Z3       23.60551   0.00123   0.00000   0.04519   0.04519  23.65071
    X4       27.27158   0.00352   0.00000   0.02609   0.02609  27.29767
    Y4       24.27164   0.00377   0.00000   0.02390   0.02390  24.29554
    Z4       22.97945   0.00201   0.00000   0.00515   0.00515  22.98460
    X5       19.13820   0.00283   0.00000   0.02410   0.02410  19.16230
    Y5       27.84870  -0.00422   0.00000  -0.09057  -0.09057  27.75813
    Z5       27.57602  -0.00286   0.00000  -0.04812  -0.04812  27.52790
    X6       22.10016   0.00284   0.00000   0.04306   0.04306  22.14321
    Y6       27.59246   0.00561   0.00000   0.03923   0.03923  27.63169
    Z6       21.12015  -0.00369   0.00000  -0.01732  -0.01732  21.10283
    X7       24.17035   0.00065   0.00000   0.01696   0.01696  24.18731
    Y7       22.36132  -0.00025   0.00000   0.01412   0.01412  22.37544
    Z7       27.92845   0.00480   0.00000   0.03736   0.03736  27.96581
         Item               Value     Threshold  Converged?
 Maximum Force            0.006736     0.000450     NO 
 RMS     Force            0.003283     0.000300     NO 
 Maximum Displacement     0.090575     0.001800     NO 
 RMS     Displacement     0.037040     0.001200     NO 
 Predicted change in Energy=-1.058975D-03
 GradGradGradGradGradGradGradGradGradGradGradGradGradGradGradGradGradGrad

 Leave Link  103 at Fri Dec  8 00:07:37 2023, MaxMem=  1879048192 cpu:               0.2 elap:               0.0
 (Enter /home/sekinelabo/g16/l9999.exe)
 1\1\GINC-SEKINELABO-XA7R-R37\Force\UB3LYP\6-311+G(d)\Na7(2)\SEKINELABO
 \08-Dec-2023\0\\#P B3LYP/6-311+g(d) force\\DPGEN\\0,2\Na,10.7527,12.07
 63,12.3073\Na,13.2642,11.5183,9.57779\Na,14.0238,9.475,12.4915\Na,14.4
 315,12.844,12.1602\Na,10.1275,14.7369,14.5926\Na,11.6949,14.6013,11.17
 63\Na,12.7904,11.8331,14.7791\\Version=ES64L-G16RevB.01\State=2-A\HF=-
 1136.1269192\S2=0.760039\S2-1=0.\S2A=0.750071\RMSD=5.789e-09\RMSF=3.28
 3e-03\Dipole=-0.1838209,0.1926763,0.1616651\Quadrupole=-2.7743857,3.10
 78863,-0.3335006,-7.940388,-5.0767284,5.2404653\PG=C01 [X(Na7)]\\@


 OF ALL THE WONDERS OF THE UNIVERSE, THE GREATEST IS MAN.

                                    -- ARISTOTLE
 Job cpu time:       0 days  0 hours  4 minutes  4.3 seconds.
 Elapsed time:       0 days  0 hours  0 minutes 20.6 seconds.
 File lengths (MBytes):  RWF=     32 Int=      0 D2E=      0 Chk=      4 Scr=      1
 Normal termination of Gaussian 16 at Fri Dec  8 00:07:37 2023.
