ITEM: TIMESTEP
1180
ITEM: NUMBER OF ATOMS
7
ITEM: BOX BOUNDS xy xz yz ff ff ff
0.0000000000000000e+00 2.7083309315800001e+01 0.0000000000000000e+00
0.0000000000000000e+00 2.7083309315800001e+01 0.0000000000000000e+00
0.0000000000000000e+00 2.7083309315800001e+01 0.0000000000000000e+00
ITEM: ATOMS id type x y z fx fy fz
3 1 9.8019 12.3838 12.3766 0.00666642 0.00720918 -0.0115103
4 1 12.401 14.4435 10.2438 -0.0276782 0.0030095 0.0216784
1 1 10.563 10.7651 15.0024 0.0596726 0.00383026 -0.028192
2 1 14.5351 16.5226 11.241 0.000737048 -0.0111027 -0.0181843
7 1 17.0391 15.8517 14.1734 0.112226 0.272087 -0.304132
5 1 14.2237 10.7034 15.5077 0.0263259 0.137114 0.062118
6 1 16.2278 14.1215 16.2467 -0.177949 -0.412147 0.278222
