ITEM: TIMESTEP
3550
ITEM: NUMBER OF ATOMS
7
ITEM: BOX BOUNDS xy xz yz ff ff ff
0.0000000000000000e+00 2.5536355612700000e+01 0.0000000000000000e+00
0.0000000000000000e+00 2.5536355612700000e+01 0.0000000000000000e+00
0.0000000000000000e+00 2.5536355612700000e+01 0.0000000000000000e+00
ITEM: ATOMS id type x y z fx fy fz
6 1 10.2426 13.7666 11.4381 -0.215374 0.132967 0.0141599
7 1 14.6773 10.7545 11.7764 -0.00649766 0.0876886 0.0379943
3 1 11.3528 10.9873 12.4891 0.00608096 -0.179494 0.0680753
2 1 13.3551 14.015 10.8064 0.0992577 -0.00924883 -0.106997
1 1 12.8654 13.4095 14.173 0.0642037 0.0342473 0.0465548
5 1 16.2437 13.9203 12.3854 0.0491769 -0.0385984 0.0302798
4 1 10.6404 12.5242 16.3088 0.0031523 -0.0275617 -0.0900673
