 Set GAUSS_MDEF to "14GB".
 Entering Gaussian System, Link 0=g16
 Initial command:
 /home/sekinelabo/g16/l1.exe "/home/sekinelabo/g16temp/Gau-1150709.inp" -scrdir="/home/sekinelabo/g16temp/"
 Entering Link 1 = /home/sekinelabo/g16/l1.exe PID=   1150711.
  
 Copyright (c) 1988-2017, Gaussian, Inc.  All Rights Reserved.
  
 This is part of the Gaussian(R) 16 program.  It is based on
 the Gaussian(R) 09 system (copyright 2009, Gaussian, Inc.),
 the Gaussian(R) 03 system (copyright 2003, Gaussian, Inc.),
 the Gaussian(R) 98 system (copyright 1998, Gaussian, Inc.),
 the Gaussian(R) 94 system (copyright 1995, Gaussian, Inc.),
 the Gaussian 92(TM) system (copyright 1992, Gaussian, Inc.),
 the Gaussian 90(TM) system (copyright 1990, Gaussian, Inc.),
 the Gaussian 88(TM) system (copyright 1988, Gaussian, Inc.),
 the Gaussian 86(TM) system (copyright 1986, Carnegie Mellon
 University), and the Gaussian 82(TM) system (copyright 1983,
 Carnegie Mellon University). Gaussian is a federally registered
 trademark of Gaussian, Inc.
  
 This software contains proprietary and confidential information,
 including trade secrets, belonging to Gaussian, Inc.
  
 This software is provided under written license and may be
 used, copied, transmitted, or stored only in accord with that
 written license.
  
 The following legend is applicable only to US Government
 contracts under FAR:
  
                    RESTRICTED RIGHTS LEGEND
  
 Use, reproduction and disclosure by the US Government is
 subject to restrictions as set forth in subparagraphs (a)
 and (c) of the Commercial Computer Software - Restricted
 Rights clause in FAR 52.227-19.
  
 Gaussian, Inc.
 340 Quinnipiac St., Bldg. 40, Wallingford CT 06492
  
  
 ---------------------------------------------------------------
 Warning -- This program may not be used in any manner that
 competes with the business of Gaussian, Inc. or will provide
 assistance to any competitor of Gaussian, Inc.  The licensee
 of this program is prohibited from giving any competitor of
 Gaussian, Inc. access to this program.  By using this program,
 the user acknowledges that Gaussian, Inc. is engaged in the
 business of creating and licensing software in the field of
 computational chemistry and represents and warrants to the
 licensee that it is not a competitor of Gaussian, Inc. and that
 it will not use this program in any manner prohibited above.
 ---------------------------------------------------------------
  

 Cite this work as:
 Gaussian 16, Revision B.01,
 M. J. Frisch, G. W. Trucks, H. B. Schlegel, G. E. Scuseria, 
 M. A. Robb, J. R. Cheeseman, G. Scalmani, V. Barone, 
 G. A. Petersson, H. Nakatsuji, X. Li, M. Caricato, A. V. Marenich, 
 J. Bloino, B. G. Janesko, R. Gomperts, B. Mennucci, H. P. Hratchian, 
 J. V. Ortiz, A. F. Izmaylov, J. L. Sonnenberg, D. Williams-Young, 
 F. Ding, F. Lipparini, F. Egidi, J. Goings, B. Peng, A. Petrone, 
 T. Henderson, D. Ranasinghe, V. G. Zakrzewski, J. Gao, N. Rega, 
 G. Zheng, W. Liang, M. Hada, M. Ehara, K. Toyota, R. Fukuda, 
 J. Hasegawa, M. Ishida, T. Nakajima, Y. Honda, O. Kitao, H. Nakai, 
 T. Vreven, K. Throssell, J. A. Montgomery, Jr., J. E. Peralta, 
 F. Ogliaro, M. J. Bearpark, J. J. Heyd, E. N. Brothers, K. N. Kudin, 
 V. N. Staroverov, T. A. Keith, R. Kobayashi, J. Normand, 
 K. Raghavachari, A. P. Rendell, J. C. Burant, S. S. Iyengar, 
 J. Tomasi, M. Cossi, J. M. Millam, M. Klene, C. Adamo, R. Cammi, 
 J. W. Ochterski, R. L. Martin, K. Morokuma, O. Farkas, 
 J. B. Foresman, and D. J. Fox, Gaussian, Inc., Wallingford CT, 2016.
 
 ******************************************
 Gaussian 16:  ES64L-G16RevB.01 20-Dec-2017
                 7-Dec-2023 
 ******************************************
 %nproc=15
 Will use up to   15 processors via shared memory.
 -------------------------
 #P B3LYP/6-311+g(d) force
 -------------------------
 1/10=7,30=1,38=1/1,3;
 2/12=2,17=6,18=5,40=1/2;
 3/5=4,6=6,7=11,11=2,25=1,30=1,71=1,74=-5/1,2,3;
 4//1;
 5/5=2,38=5/2;
 6/7=2,8=2,9=2,10=2,28=1/1;
 7/29=1/1,2,3,16;
 1/10=7,30=1/3;
 99//99;
 Leave Link    1 at Thu Dec  7 11:17:20 2023, MaxMem=           0 cpu:               0.3 elap:               0.0
 (Enter /home/sekinelabo/g16/l101.exe)
 -----
 DPGEN
 -----
 Symbolic Z-matrix:
 Charge =  0 Multiplicity = 2
 Na                    10.2947   11.3145   11.3942 
 Na                    13.5083   9.39985   11.7179 
 Na                    12.0359   10.623    14.6552 
 Na                    10.7014   13.2926   14.7318 
 Na                    10.4211   14.2223   10.3184 
 Na                    13.5502   13.127    12.2168 
 Na                    13.2448   11.7771   8.72217 
 
 ITRead=  0  0  0  0  0  0  0
 MicOpt= -1 -1 -1 -1 -1 -1 -1
 NAtoms=      7 NQM=        7 NQMF=       0 NMMI=      0 NMMIF=      0
                NMic=       0 NMicF=      0.
                    Isotopes and Nuclear Properties:
 (Nuclear quadrupole moments (NQMom) in fm**2, nuclear magnetic moments (NMagM)
  in nuclear magnetons)

  Atom         1           2           3           4           5           6           7
 IAtWgt=          23          23          23          23          23          23          23
 AtmWgt=  22.9897697  22.9897697  22.9897697  22.9897697  22.9897697  22.9897697  22.9897697
 NucSpn=           3           3           3           3           3           3           3
 AtZEff=  -0.0000000  -0.0000000  -0.0000000  -0.0000000  -0.0000000  -0.0000000  -0.0000000
 NQMom=   10.4000000  10.4000000  10.4000000  10.4000000  10.4000000  10.4000000  10.4000000
 NMagM=    2.2175200   2.2175200   2.2175200   2.2175200   2.2175200   2.2175200   2.2175200
 AtZNuc=  11.0000000  11.0000000  11.0000000  11.0000000  11.0000000  11.0000000  11.0000000
 Leave Link  101 at Thu Dec  7 11:17:20 2023, MaxMem=  1879048192 cpu:               2.4 elap:               0.2
 (Enter /home/sekinelabo/g16/l103.exe)

 GradGradGradGradGradGradGradGradGradGradGradGradGradGradGradGradGradGrad
 Berny optimization.
 Initialization pass.
 Trust Radius=3.00D-01 FncErr=1.00D-07 GrdErr=1.00D-07 EigMax=2.50D+02 EigMin=1.00D-04
 Number of steps in this run=      2 maximum allowed number of steps=      2.
 GradGradGradGradGradGradGradGradGradGradGradGradGradGradGradGradGradGrad

 Leave Link  103 at Thu Dec  7 11:17:20 2023, MaxMem=  1879048192 cpu:               0.2 elap:               0.0
 (Enter /home/sekinelabo/g16/l202.exe)
                          Input orientation:                          
 ---------------------------------------------------------------------
 Center     Atomic      Atomic             Coordinates (Angstroms)
 Number     Number       Type             X           Y           Z
 ---------------------------------------------------------------------
      1         11           0       10.294700   11.314500   11.394200
      2         11           0       13.508300    9.399850   11.717900
      3         11           0       12.035900   10.623000   14.655200
      4         11           0       10.701400   13.292600   14.731800
      5         11           0       10.421100   14.222300   10.318400
      6         11           0       13.550200   13.127000   12.216800
      7         11           0       13.244800   11.777100    8.722170
 ---------------------------------------------------------------------
                    Distance matrix (angstroms):
                    1          2          3          4          5
     1  Na   0.000000
     2  Na   3.754716   0.000000
     3  Na   3.760860   3.505965   0.000000
     4  Na   3.901007   5.667079   2.985552   0.000000
     5  Na   3.103002   5.894525   5.862625   4.518961   0.000000
     6  Na   3.815771   3.760625   3.809057   3.803723   3.820323
     7  Na   4.007098   3.833425   6.163946   6.699349   4.062048
                    6          7
     6  Na   0.000000
     7  Na   3.758715   0.000000
 Stoichiometry    Na7(2)
 Framework group  C1[X(Na7)]
 Deg. of freedom    15
 Full point group                 C1      NOp   1
 Largest Abelian subgroup         C1      NOp   1
 Largest concise Abelian subgroup C1      NOp   1
                         Standard orientation:                         
 ---------------------------------------------------------------------
 Center     Atomic      Atomic             Coordinates (Angstroms)
 Number     Number       Type             X           Y           Z
 ---------------------------------------------------------------------
      1         11           0       -0.160964   -0.485970   -1.810510
      2         11           0       -0.555056    2.935328   -0.314748
      3         11           0        2.622464    1.458694   -0.193450
      4         11           0        2.961765   -1.463930    0.313169
      5         11           0       -1.282893   -2.913569   -0.236770
      6         11           0       -0.138267   -0.017559    1.976333
      7         11           0       -3.447049    0.487006    0.265977
 ---------------------------------------------------------------------
 Rotational constants (GHZ):           0.7478465           0.5929169           0.4278469
 Leave Link  202 at Thu Dec  7 11:17:20 2023, MaxMem=  1879048192 cpu:               0.0 elap:               0.0
 (Enter /home/sekinelabo/g16/l301.exe)
 Standard basis: 6-311+G(d) (5D, 7F)
 Ernie: Thresh=  0.10000D-02 Tol=  0.10000D-05 Strict=F.
 There are   217 symmetry adapted cartesian basis functions of A   symmetry.
 There are   210 symmetry adapted basis functions of A   symmetry.
   210 basis functions,   350 primitive gaussians,   217 cartesian basis functions
    39 alpha electrons       38 beta electrons
       nuclear repulsion energy       327.7276552451 Hartrees.
 IExCor=  402 DFT=T Ex+Corr=B3LYP ExCW=0 ScaHFX=  0.200000
 ScaDFX=  0.800000  0.720000  1.000000  0.810000 ScalE2=  1.000000  1.000000
 IRadAn=      5 IRanWt=     -1 IRanGd=            0 ICorTp=0 IEmpDi=  4
 NAtoms=    7 NActive=    7 NUniq=    7 SFac= 1.00D+00 NAtFMM=   60 NAOKFM=F Big=F
 Integral buffers will be    131072 words long.
 Raffenetti 2 integral format.
 Two-electron integral symmetry is turned on.
 Leave Link  301 at Thu Dec  7 11:17:20 2023, MaxMem=  1879048192 cpu:               0.5 elap:               0.0
 (Enter /home/sekinelabo/g16/l302.exe)
 NPDir=0 NMtPBC=     1 NCelOv=     1 NCel=       1 NClECP=     1 NCelD=      1
         NCelK=      1 NCelE2=     1 NClLst=     1 CellRange=     0.0.
 One-electron integrals computed using PRISM.
 One-electron integral symmetry used in STVInt
 NBasis=   210 RedAO= T EigKep=  6.03D-06  NBF=   210
 NBsUse=   210 1.00D-06 EigRej= -1.00D+00 NBFU=   210
 Precomputing XC quadrature grid using
 IXCGrd= 4 IRadAn=           5 IRanWt=          -1 IRanGd=           0 AccXCQ= 0.00D+00.
 Generated NRdTot=       0 NPtTot=           0 NUsed=           0 NTot=          32
 NSgBfM=   211   211   211   211   211 MxSgAt=     7 MxSgA2=     7.
 Leave Link  302 at Thu Dec  7 11:17:20 2023, MaxMem=  1879048192 cpu:               2.0 elap:               0.1
 (Enter /home/sekinelabo/g16/l303.exe)
 DipDrv:  MaxL=1.
 Leave Link  303 at Thu Dec  7 11:17:20 2023, MaxMem=  1879048192 cpu:               0.5 elap:               0.0
 (Enter /home/sekinelabo/g16/l401.exe)
 ExpMin= 7.60D-03 ExpMax= 3.62D+04 ExpMxC= 1.21D+03 IAcc=3 IRadAn=         5 AccDes= 0.00D+00
 Harris functional with IExCor=  402 and IRadAn=       5 diagonalized for initial guess.
 HarFok:  IExCor=  402 AccDes= 0.00D+00 IRadAn=         5 IDoV= 1 UseB2=F ITyADJ=14
 ICtDFT=  3500011 ScaDFX=  1.000000  1.000000  1.000000  1.000000
 FoFCou: FMM=F IPFlag=           0 FMFlag=      100000 FMFlg1=           0
         NFxFlg=           0 DoJE=T BraDBF=F KetDBF=T FulRan=T
         wScrn=  0.000000 ICntrl=       500 IOpCl=  0 I1Cent=   200000004 NGrid=           0
         NMat0=    1 NMatS0=      1 NMatT0=    0 NMatD0=    1 NMtDS0=    0 NMtDT0=    0
 Petite list used in FoFCou.
 Harris En= -1135.89962767808    
 JPrj=0 DoOrth=F DoCkMO=F.
 Initial guess <Sx>= 0.0000 <Sy>= 0.0000 <Sz>= 0.5000 <S**2>= 0.7500 S= 0.5000
 Leave Link  401 at Thu Dec  7 11:17:20 2023, MaxMem=  1879048192 cpu:               4.4 elap:               0.3
 (Enter /home/sekinelabo/g16/l502.exe)
 Keep R1 and R2 ints in memory in canonical form, NReq=506573335.
 FoFCou: FMM=F IPFlag=           0 FMFlag=           0 FMFlg1=           0
         NFxFlg=           0 DoJE=F BraDBF=F KetDBF=F FulRan=T
         wScrn=  0.000000 ICntrl=       600 IOpCl=  0 I1Cent=           0 NGrid=           0
         NMat0=    1 NMatS0=  22155 NMatT0=    0 NMatD0=    1 NMtDS0=    0 NMtDT0=    0
 Symmetry not used in FoFCou.
 Two-electron integral symmetry not used.
 UHF open shell SCF:
 Using DIIS extrapolation, IDIIS=  1040.
 NGot=  1879048192 LenX=  1388082565 LenY=  1388035035
 Requested convergence on RMS density matrix=1.00D-08 within 128 cycles.
 Requested convergence on MAX density matrix=1.00D-06.
 Requested convergence on             energy=1.00D-06.
 No special actions if energy rises.

 Cycle   1  Pass 1  IDiag  1:
 E= -1136.09519502525    
 DIIS: error= 1.27D-02 at cycle   1 NSaved=   1.
 NSaved= 1 IEnMin= 1 EnMin= -1136.09519502525     IErMin= 1 ErrMin= 1.27D-02
 ErrMax= 1.27D-02  0.00D+00 EMaxC= 1.00D-01 BMatC= 1.93D-01 BMatP= 1.93D-01
 IDIUse=3 WtCom= 8.73D-01 WtEn= 1.27D-01
 Coeff-Com:  0.100D+01
 Coeff-En:   0.100D+01
 Coeff:      0.100D+01
 Gap=     0.029 Goal=   None    Shift=    0.000
 Gap=     0.050 Goal=   None    Shift=    0.000
 GapD=    0.029 DampG=0.250 DampE=0.500 DampFc=0.2500 IDamp=-1.
 Damping current iteration by 2.50D-01
 RMSDP=1.69D-02 MaxDP=1.05D+00              OVMax= 2.40D-01

 Cycle   2  Pass 1  IDiag  1:
 E= -1136.10730142375     Delta-E=       -0.012106398498 Rises=F Damp=T
 DIIS: error= 8.86D-03 at cycle   2 NSaved=   2.
 NSaved= 2 IEnMin= 2 EnMin= -1136.10730142375     IErMin= 2 ErrMin= 8.86D-03
 ErrMax= 8.86D-03  0.00D+00 EMaxC= 1.00D-01 BMatC= 7.31D-02 BMatP= 1.93D-01
 IDIUse=3 WtCom= 9.11D-01 WtEn= 8.86D-02
 Coeff-Com: -0.127D+01 0.227D+01
 Coeff-En:   0.000D+00 0.100D+01
 Coeff:     -0.115D+01 0.215D+01
 Gap=     0.045 Goal=   None    Shift=    0.000
 Gap=     0.053 Goal=   None    Shift=    0.000
 RMSDP=1.01D-02 MaxDP=8.60D-01 DE=-1.21D-02 OVMax= 1.57D-01

 Cycle   3  Pass 1  IDiag  1:
 E= -1136.12698605904     Delta-E=       -0.019684635296 Rises=F Damp=F
 DIIS: error= 2.94D-03 at cycle   3 NSaved=   3.
 NSaved= 3 IEnMin= 3 EnMin= -1136.12698605904     IErMin= 3 ErrMin= 2.94D-03
 ErrMax= 2.94D-03  0.00D+00 EMaxC= 1.00D-01 BMatC= 3.10D-03 BMatP= 7.31D-02
 IDIUse=3 WtCom= 9.71D-01 WtEn= 2.94D-02
 Coeff-Com: -0.210D+00 0.381D+00 0.829D+00
 Coeff-En:   0.000D+00 0.000D+00 0.100D+01
 Coeff:     -0.204D+00 0.370D+00 0.834D+00
 Gap=     0.039 Goal=   None    Shift=    0.000
 Gap=     0.050 Goal=   None    Shift=    0.000
 RMSDP=4.72D-03 MaxDP=5.13D-01 DE=-1.97D-02 OVMax= 1.34D-01

 Cycle   4  Pass 1  IDiag  1:
 E= -1136.12149027401     Delta-E=        0.005495785030 Rises=F Damp=F
 DIIS: error= 5.55D-03 at cycle   4 NSaved=   4.
 NSaved= 4 IEnMin= 3 EnMin= -1136.12698605904     IErMin= 3 ErrMin= 2.94D-03
 ErrMax= 5.55D-03  0.00D+00 EMaxC= 1.00D-01 BMatC= 6.84D-03 BMatP= 3.10D-03
 IDIUse=3 WtCom= 1.18D-01 WtEn= 8.82D-01
 Coeff-Com:  0.330D-02 0.124D-02 0.599D+00 0.396D+00
 Coeff-En:   0.000D+00 0.000D+00 0.678D+00 0.322D+00
 Coeff:      0.391D-03 0.146D-03 0.669D+00 0.330D+00
 Gap=     0.041 Goal=   None    Shift=    0.000
 Gap=     0.049 Goal=   None    Shift=    0.000
 RMSDP=1.15D-03 MaxDP=4.74D-02 DE= 5.50D-03 OVMax= 8.24D-02

 Cycle   5  Pass 1  IDiag  1:
 E= -1136.13008620020     Delta-E=       -0.008595926188 Rises=F Damp=F
 DIIS: error= 1.13D-03 at cycle   5 NSaved=   5.
 NSaved= 5 IEnMin= 5 EnMin= -1136.13008620020     IErMin= 5 ErrMin= 1.13D-03
 ErrMax= 1.13D-03  0.00D+00 EMaxC= 1.00D-01 BMatC= 3.15D-04 BMatP= 3.10D-03
 IDIUse=3 WtCom= 9.89D-01 WtEn= 1.13D-02
 Coeff-Com:  0.389D-02-0.613D-02 0.342D+00 0.148D+00 0.512D+00
 Coeff-En:   0.000D+00 0.000D+00 0.762D-02 0.000D+00 0.992D+00
 Coeff:      0.384D-02-0.606D-02 0.339D+00 0.146D+00 0.518D+00
 Gap=     0.042 Goal=   None    Shift=    0.000
 Gap=     0.049 Goal=   None    Shift=    0.000
 RMSDP=5.89D-04 MaxDP=5.79D-02 DE=-8.60D-03 OVMax= 1.20D-02

 Cycle   6  Pass 1  IDiag  1:
 E= -1136.13032873259     Delta-E=       -0.000242532393 Rises=F Damp=F
 DIIS: error= 1.00D-04 at cycle   6 NSaved=   6.
 NSaved= 6 IEnMin= 6 EnMin= -1136.13032873259     IErMin= 6 ErrMin= 1.00D-04
 ErrMax= 1.00D-04  0.00D+00 EMaxC= 1.00D-01 BMatC= 3.16D-06 BMatP= 3.15D-04
 IDIUse=1 WtCom= 1.00D+00 WtEn= 0.00D+00
 Coeff-Com: -0.349D-02 0.424D-02-0.147D-01-0.223D-01 0.736D-01 0.963D+00
 Coeff:     -0.349D-02 0.424D-02-0.147D-01-0.223D-01 0.736D-01 0.963D+00
 Gap=     0.042 Goal=   None    Shift=    0.000
 Gap=     0.049 Goal=   None    Shift=    0.000
 RMSDP=2.77D-04 MaxDP=3.75D-02 DE=-2.43D-04 OVMax= 3.52D-03

 Cycle   7  Pass 1  IDiag  1:
 E= -1136.13033284479     Delta-E=       -0.000004112193 Rises=F Damp=F
 DIIS: error= 7.68D-05 at cycle   7 NSaved=   7.
 NSaved= 7 IEnMin= 7 EnMin= -1136.13033284479     IErMin= 7 ErrMin= 7.68D-05
 ErrMax= 7.68D-05  0.00D+00 EMaxC= 1.00D-01 BMatC= 1.56D-06 BMatP= 3.16D-06
 IDIUse=1 WtCom= 1.00D+00 WtEn= 0.00D+00
 Coeff-Com: -0.216D-02 0.266D-02-0.285D-01-0.224D-01 0.158D-01 0.563D+00
 Coeff-Com:  0.472D+00
 Coeff:     -0.216D-02 0.266D-02-0.285D-01-0.224D-01 0.158D-01 0.563D+00
 Coeff:      0.472D+00
 Gap=     0.042 Goal=   None    Shift=    0.000
 Gap=     0.049 Goal=   None    Shift=    0.000
 RMSDP=5.32D-05 MaxDP=6.80D-03 DE=-4.11D-06 OVMax= 2.40D-03

 Cycle   8  Pass 1  IDiag  1:
 E= -1136.13033504919     Delta-E=       -0.000002204403 Rises=F Damp=F
 DIIS: error= 3.10D-05 at cycle   8 NSaved=   8.
 NSaved= 8 IEnMin= 8 EnMin= -1136.13033504919     IErMin= 8 ErrMin= 3.10D-05
 ErrMax= 3.10D-05  0.00D+00 EMaxC= 1.00D-01 BMatC= 2.47D-07 BMatP= 1.56D-06
 IDIUse=1 WtCom= 1.00D+00 WtEn= 0.00D+00
 Coeff-Com:  0.632D-03-0.819D-03-0.811D-02-0.224D-02-0.205D-01-0.121D+00
 Coeff-Com:  0.236D+00 0.916D+00
 Coeff:      0.632D-03-0.819D-03-0.811D-02-0.224D-02-0.205D-01-0.121D+00
 Coeff:      0.236D+00 0.916D+00
 Gap=     0.043 Goal=   None    Shift=    0.000
 Gap=     0.049 Goal=   None    Shift=    0.000
 RMSDP=5.45D-05 MaxDP=6.31D-03 DE=-2.20D-06 OVMax= 1.35D-03

 Cycle   9  Pass 1  IDiag  1:
 E= -1136.13033580136     Delta-E=       -0.000000752172 Rises=F Damp=F
 DIIS: error= 1.19D-05 at cycle   9 NSaved=   9.
 NSaved= 9 IEnMin= 9 EnMin= -1136.13033580136     IErMin= 9 ErrMin= 1.19D-05
 ErrMax= 1.19D-05  0.00D+00 EMaxC= 1.00D-01 BMatC= 3.97D-08 BMatP= 2.47D-07
 IDIUse=1 WtCom= 1.00D+00 WtEn= 0.00D+00
 Coeff-Com:  0.566D-03-0.713D-03-0.724D-04 0.238D-02-0.116D-01-0.112D+00
 Coeff-Com:  0.664D-02 0.276D+00 0.839D+00
 Coeff:      0.566D-03-0.713D-03-0.724D-04 0.238D-02-0.116D-01-0.112D+00
 Coeff:      0.664D-02 0.276D+00 0.839D+00
 Gap=     0.043 Goal=   None    Shift=    0.000
 Gap=     0.049 Goal=   None    Shift=    0.000
 RMSDP=2.15D-05 MaxDP=2.05D-03 DE=-7.52D-07 OVMax= 8.07D-04

 Cycle  10  Pass 1  IDiag  1:
 E= -1136.13033596249     Delta-E=       -0.000000161127 Rises=F Damp=F
 DIIS: error= 7.42D-06 at cycle  10 NSaved=  10.
 NSaved=10 IEnMin=10 EnMin= -1136.13033596249     IErMin=10 ErrMin= 7.42D-06
 ErrMax= 7.42D-06  0.00D+00 EMaxC= 1.00D-01 BMatC= 2.05D-08 BMatP= 3.97D-08
 IDIUse=1 WtCom= 1.00D+00 WtEn= 0.00D+00
 Coeff-Com:  0.195D-03-0.241D-03 0.223D-02 0.224D-02-0.230D-02-0.337D-01
 Coeff-Com: -0.603D-01-0.103D+00 0.488D+00 0.707D+00
 Coeff:      0.195D-03-0.241D-03 0.223D-02 0.224D-02-0.230D-02-0.337D-01
 Coeff:     -0.603D-01-0.103D+00 0.488D+00 0.707D+00
 Gap=     0.043 Goal=   None    Shift=    0.000
 Gap=     0.049 Goal=   None    Shift=    0.000
 RMSDP=1.27D-05 MaxDP=1.37D-03 DE=-1.61D-07 OVMax= 5.98D-04

 Cycle  11  Pass 1  IDiag  1:
 E= -1136.13033603658     Delta-E=       -0.000000074095 Rises=F Damp=F
 DIIS: error= 2.86D-06 at cycle  11 NSaved=  11.
 NSaved=11 IEnMin=11 EnMin= -1136.13033603658     IErMin=11 ErrMin= 2.86D-06
 ErrMax= 2.86D-06  0.00D+00 EMaxC= 1.00D-01 BMatC= 3.72D-09 BMatP= 2.05D-08
 IDIUse=1 WtCom= 1.00D+00 WtEn= 0.00D+00
 Coeff-Com: -0.118D-03 0.153D-03 0.961D-03-0.209D-03 0.281D-02 0.241D-01
 Coeff-Com: -0.703D-02-0.104D+00-0.243D+00 0.139D+00 0.119D+01
 Coeff:     -0.118D-03 0.153D-03 0.961D-03-0.209D-03 0.281D-02 0.241D-01
 Coeff:     -0.703D-02-0.104D+00-0.243D+00 0.139D+00 0.119D+01
 Gap=     0.043 Goal=   None    Shift=    0.000
 Gap=     0.049 Goal=   None    Shift=    0.000
 RMSDP=1.43D-05 MaxDP=1.69D-03 DE=-7.41D-08 OVMax= 4.80D-04

 Cycle  12  Pass 1  IDiag  1:
 E= -1136.13033606545     Delta-E=       -0.000000028870 Rises=F Damp=F
 DIIS: error= 1.45D-06 at cycle  12 NSaved=  12.
 NSaved=12 IEnMin=12 EnMin= -1136.13033606545     IErMin=12 ErrMin= 1.45D-06
 ErrMax= 1.45D-06  0.00D+00 EMaxC= 1.00D-01 BMatC= 5.12D-10 BMatP= 3.72D-09
 IDIUse=1 WtCom= 1.00D+00 WtEn= 0.00D+00
 Coeff-Com: -0.700D-04 0.882D-04 0.281D-04-0.383D-03 0.149D-02 0.128D-01
 Coeff-Com:  0.255D-02-0.246D-01-0.116D+00-0.414D-01 0.281D+00 0.884D+00
 Coeff:     -0.700D-04 0.882D-04 0.281D-04-0.383D-03 0.149D-02 0.128D-01
 Coeff:      0.255D-02-0.246D-01-0.116D+00-0.414D-01 0.281D+00 0.884D+00
 Gap=     0.043 Goal=   None    Shift=    0.000
 Gap=     0.049 Goal=   None    Shift=    0.000
 RMSDP=3.88D-06 MaxDP=3.78D-04 DE=-2.89D-08 OVMax= 1.50D-04

 Cycle  13  Pass 1  IDiag  1:
 E= -1136.13033606891     Delta-E=       -0.000000003453 Rises=F Damp=F
 DIIS: error= 6.46D-07 at cycle  13 NSaved=  13.
 NSaved=13 IEnMin=13 EnMin= -1136.13033606891     IErMin=13 ErrMin= 6.46D-07
 ErrMax= 6.46D-07  0.00D+00 EMaxC= 1.00D-01 BMatC= 1.43D-10 BMatP= 5.12D-10
 IDIUse=1 WtCom= 1.00D+00 WtEn= 0.00D+00
 Coeff-Com:  0.142D-04-0.199D-04-0.237D-03-0.366D-04-0.294D-03-0.338D-02
 Coeff-Com:  0.330D-02 0.224D-01 0.293D-01-0.471D-01-0.260D+00 0.224D+00
 Coeff-Com:  0.103D+01
 Coeff:      0.142D-04-0.199D-04-0.237D-03-0.366D-04-0.294D-03-0.338D-02
 Coeff:      0.330D-02 0.224D-01 0.293D-01-0.471D-01-0.260D+00 0.224D+00
 Coeff:      0.103D+01
 Gap=     0.043 Goal=   None    Shift=    0.000
 Gap=     0.049 Goal=   None    Shift=    0.000
 RMSDP=1.94D-06 MaxDP=1.88D-04 DE=-3.45D-09 OVMax= 7.76D-05

 Cycle  14  Pass 1  IDiag  1:
 E= -1136.13033607005     Delta-E=       -0.000000001143 Rises=F Damp=F
 DIIS: error= 3.83D-07 at cycle  14 NSaved=  14.
 NSaved=14 IEnMin=14 EnMin= -1136.13033607005     IErMin=14 ErrMin= 3.83D-07
 ErrMax= 3.83D-07  0.00D+00 EMaxC= 1.00D-01 BMatC= 2.51D-11 BMatP= 1.43D-10
 IDIUse=1 WtCom= 1.00D+00 WtEn= 0.00D+00
 Coeff-Com:  0.115D-04-0.144D-04-0.161D-04 0.740D-04-0.284D-03-0.185D-02
 Coeff-Com: -0.798D-03 0.204D-02 0.174D-01 0.115D-01-0.203D-01-0.179D+00
 Coeff-Com: -0.170D+00 0.134D+01
 Coeff:      0.115D-04-0.144D-04-0.161D-04 0.740D-04-0.284D-03-0.185D-02
 Coeff:     -0.798D-03 0.204D-02 0.174D-01 0.115D-01-0.203D-01-0.179D+00
 Coeff:     -0.170D+00 0.134D+01
 Gap=     0.043 Goal=   None    Shift=    0.000
 Gap=     0.049 Goal=   None    Shift=    0.000
 RMSDP=8.09D-07 MaxDP=4.94D-05 DE=-1.14D-09 OVMax= 4.39D-05

 Cycle  15  Pass 1  IDiag  1:
 E= -1136.13033607035     Delta-E=       -0.000000000298 Rises=F Damp=F
 DIIS: error= 1.69D-07 at cycle  15 NSaved=  15.
 NSaved=15 IEnMin=15 EnMin= -1136.13033607035     IErMin=15 ErrMin= 1.69D-07
 ErrMax= 1.69D-07  0.00D+00 EMaxC= 1.00D-01 BMatC= 5.82D-12 BMatP= 2.51D-11
 IDIUse=1 WtCom= 1.00D+00 WtEn= 0.00D+00
 Coeff-Com: -0.472D-05 0.661D-05 0.655D-04 0.503D-05 0.778D-04 0.903D-03
 Coeff-Com: -0.414D-03-0.515D-02-0.115D-01 0.103D-01 0.785D-01-0.592D-01
 Coeff-Com: -0.236D+00-0.814D-01 0.130D+01
 Coeff:     -0.472D-05 0.661D-05 0.655D-04 0.503D-05 0.778D-04 0.903D-03
 Coeff:     -0.414D-03-0.515D-02-0.115D-01 0.103D-01 0.785D-01-0.592D-01
 Coeff:     -0.236D+00-0.814D-01 0.130D+01
 Gap=     0.043 Goal=   None    Shift=    0.000
 Gap=     0.049 Goal=   None    Shift=    0.000
 RMSDP=5.86D-07 MaxDP=5.42D-05 DE=-2.98D-10 OVMax= 2.23D-05

 Cycle  16  Pass 1  IDiag  1:
 E= -1136.13033607043     Delta-E=       -0.000000000078 Rises=F Damp=F
 DIIS: error= 6.76D-08 at cycle  16 NSaved=  16.
 NSaved=16 IEnMin=16 EnMin= -1136.13033607043     IErMin=16 ErrMin= 6.76D-08
 ErrMax= 6.76D-08  0.00D+00 EMaxC= 1.00D-01 BMatC= 1.04D-12 BMatP= 5.82D-12
 IDIUse=1 WtCom= 1.00D+00 WtEn= 0.00D+00
 Coeff-Com: -0.124D-05 0.147D-05 0.452D-05-0.673D-05 0.429D-04 0.107D-03
 Coeff-Com:  0.782D-04 0.751D-03-0.275D-03-0.393D-02-0.138D-01 0.496D-01
 Coeff-Com:  0.846D-01-0.292D+00-0.181D+00 0.136D+01
 Coeff:     -0.124D-05 0.147D-05 0.452D-05-0.673D-05 0.429D-04 0.107D-03
 Coeff:      0.782D-04 0.751D-03-0.275D-03-0.393D-02-0.138D-01 0.496D-01
 Coeff:      0.846D-01-0.292D+00-0.181D+00 0.136D+01
 Gap=     0.043 Goal=   None    Shift=    0.000
 Gap=     0.049 Goal=   None    Shift=    0.000
 RMSDP=2.94D-07 MaxDP=2.69D-05 DE=-7.78D-11 OVMax= 8.77D-06

 Cycle  17  Pass 1  IDiag  1:
 E= -1136.13033607043     Delta-E=       -0.000000000005 Rises=F Damp=F
 DIIS: error= 3.60D-08 at cycle  17 NSaved=  17.
 NSaved=17 IEnMin=17 EnMin= -1136.13033607043     IErMin=17 ErrMin= 3.60D-08
 ErrMax= 3.60D-08  0.00D+00 EMaxC= 1.00D-01 BMatC= 2.04D-13 BMatP= 1.04D-12
 IDIUse=1 WtCom= 1.00D+00 WtEn= 0.00D+00
 Coeff-Com:  0.112D-06-0.249D-06-0.963D-05-0.487D-05 0.368D-05-0.553D-04
 Coeff-Com:  0.591D-04 0.801D-03 0.108D-02-0.283D-02-0.106D-01 0.173D-01
 Coeff-Com:  0.418D-01-0.328D-01-0.223D+00 0.266D+00 0.942D+00
 Coeff:      0.112D-06-0.249D-06-0.963D-05-0.487D-05 0.368D-05-0.553D-04
 Coeff:      0.591D-04 0.801D-03 0.108D-02-0.283D-02-0.106D-01 0.173D-01
 Coeff:      0.418D-01-0.328D-01-0.223D+00 0.266D+00 0.942D+00
 Gap=     0.043 Goal=   None    Shift=    0.000
 Gap=     0.049 Goal=   None    Shift=    0.000
 RMSDP=8.32D-08 MaxDP=1.00D-05 DE=-5.00D-12 OVMax= 2.11D-06

 Cycle  18  Pass 1  IDiag  1:
 E= -1136.13033607043     Delta-E=        0.000000000004 Rises=F Damp=F
 DIIS: error= 1.03D-08 at cycle  18 NSaved=  18.
 NSaved=18 IEnMin=17 EnMin= -1136.13033607043     IErMin=18 ErrMin= 1.03D-08
 ErrMax= 1.03D-08  0.00D+00 EMaxC= 1.00D-01 BMatC= 3.40D-14 BMatP= 2.04D-13
 IDIUse=1 WtCom= 1.00D+00 WtEn= 0.00D+00
 Coeff-Com:  0.505D-06-0.648D-06-0.396D-05 0.122D-05-0.119D-04-0.628D-04
 Coeff-Com: -0.605D-05 0.414D-04 0.689D-03 0.402D-03-0.520D-03-0.877D-02
 Coeff-Com: -0.771D-02 0.631D-01-0.194D-02-0.281D+00 0.112D+00 0.112D+01
 Coeff:      0.505D-06-0.648D-06-0.396D-05 0.122D-05-0.119D-04-0.628D-04
 Coeff:     -0.605D-05 0.414D-04 0.689D-03 0.402D-03-0.520D-03-0.877D-02
 Coeff:     -0.771D-02 0.631D-01-0.194D-02-0.281D+00 0.112D+00 0.112D+01
 Gap=     0.043 Goal=   None    Shift=    0.000
 Gap=     0.049 Goal=   None    Shift=    0.000
 RMSDP=4.05D-08 MaxDP=3.56D-06 DE= 4.09D-12 OVMax= 1.17D-06

 Cycle  19  Pass 1  IDiag  1:
 E= -1136.13033607044     Delta-E=       -0.000000000011 Rises=F Damp=F
 DIIS: error= 4.69D-09 at cycle  19 NSaved=  19.
 NSaved=19 IEnMin=19 EnMin= -1136.13033607044     IErMin=19 ErrMin= 4.69D-09
 ErrMax= 4.69D-09  0.00D+00 EMaxC= 1.00D-01 BMatC= 3.89D-15 BMatP= 3.40D-14
 IDIUse=1 WtCom= 1.00D+00 WtEn= 0.00D+00
 Large coefficients: NSaved= 19 BigCof=    0.00 CofMax=   10.00 Det=-7.81D-15
 Inversion failed.  Reducing to 18 matrices.
 Large coefficients: NSaved= 18 BigCof=    0.00 CofMax=   10.00 Det=-8.69D-15
 Inversion failed.  Reducing to 17 matrices.
 Large coefficients: NSaved= 17 BigCof=    0.00 CofMax=   10.00 Det=-8.95D-15
 Inversion failed.  Reducing to 16 matrices.
 Large coefficients: NSaved= 16 BigCof=    0.00 CofMax=   10.00 Det=-8.99D-15
 Inversion failed.  Reducing to 15 matrices.
 Coeff-Com: -0.699D-06 0.143D-04-0.590D-06-0.587D-04-0.151D-03 0.171D-03
 Coeff-Com:  0.101D-02-0.116D-02-0.370D-02 0.471D-03 0.213D-01-0.138D-01
 Coeff-Com: -0.114D+00 0.802D-02 0.110D+01
 Coeff:     -0.699D-06 0.143D-04-0.590D-06-0.587D-04-0.151D-03 0.171D-03
 Coeff:      0.101D-02-0.116D-02-0.370D-02 0.471D-03 0.213D-01-0.138D-01
 Coeff:     -0.114D+00 0.802D-02 0.110D+01
 Gap=     0.043 Goal=   None    Shift=    0.000
 Gap=     0.049 Goal=   None    Shift=    0.000
 RMSDP=1.11D-08 MaxDP=8.06D-07 DE=-1.14D-11 OVMax= 3.81D-07

 Cycle  20  Pass 1  IDiag  1:
 E= -1136.13033607044     Delta-E=       -0.000000000005 Rises=F Damp=F
 DIIS: error= 2.25D-09 at cycle  20 NSaved=  16.
 NSaved=16 IEnMin=16 EnMin= -1136.13033607044     IErMin=16 ErrMin= 2.25D-09
 ErrMax= 2.25D-09  0.00D+00 EMaxC= 1.00D-01 BMatC= 1.00D-15 BMatP= 3.89D-15
 IDIUse=1 WtCom= 1.00D+00 WtEn= 0.00D+00
 Large coefficients: NSaved= 16 BigCof=    0.00 CofMax=   10.00 Det=-1.09D-15
 Inversion failed.  Reducing to 15 matrices.
 Coeff-Com: -0.478D-05 0.862D-06 0.269D-04 0.868D-04-0.124D-03-0.607D-03
 Coeff-Com:  0.133D-02 0.270D-02-0.859D-02-0.365D-02 0.428D-01-0.751D-02
 Coeff-Com: -0.173D+00-0.698D-01 0.122D+01
 Coeff:     -0.478D-05 0.862D-06 0.269D-04 0.868D-04-0.124D-03-0.607D-03
 Coeff:      0.133D-02 0.270D-02-0.859D-02-0.365D-02 0.428D-01-0.751D-02
 Coeff:     -0.173D+00-0.698D-01 0.122D+01
 Gap=     0.043 Goal=   None    Shift=    0.000
 Gap=     0.049 Goal=   None    Shift=    0.000
 RMSDP=5.91D-09 MaxDP=4.70D-07 DE=-5.46D-12 OVMax= 2.34D-07

 SCF Done:  E(UB3LYP) =  -1136.13033607     A.U. after   20 cycles
            NFock= 20  Conv=0.59D-08     -V/T= 2.0029
 <Sx>= 0.0000 <Sy>= 0.0000 <Sz>= 0.5000 <S**2>= 0.7628 S= 0.5064
 <L.S>= 0.000000000000E+00
 KE= 1.132844820283D+03 PE=-3.384760236299D+03 EE= 7.880574247001D+02
 Annihilation of the first spin contaminant:
 S**2 before annihilation     0.7628,   after     0.7501
 Leave Link  502 at Thu Dec  7 11:17:37 2023, MaxMem=  1879048192 cpu:             186.7 elap:              16.8
 (Enter /home/sekinelabo/g16/l601.exe)
 Copying SCF densities to generalized density rwf, IOpCl= 1 IROHF=0.

 **********************************************************************

            Population analysis using the SCF Density.

 **********************************************************************

 Orbital symmetries:
 Alpha Orbitals:
       Occupied  (A) (A) (A) (A) (A) (A) (A) (A) (A) (A) (A) (A)
                 (A) (A) (A) (A) (A) (A) (A) (A) (A) (A) (A) (A)
                 (A) (A) (A) (A) (A) (A) (A) (A) (A) (A) (A) (A)
                 (A) (A) (A)
       Virtual   (A) (A) (A) (A) (A) (A) (A) (A) (A) (A) (A) (A)
                 (A) (A) (A) (A) (A) (A) (A) (A) (A) (A) (A) (A)
                 (A) (A) (A) (A) (A) (A) (A) (A) (A) (A) (A) (A)
                 (A) (A) (A) (A) (A) (A) (A) (A) (A) (A) (A) (A)
                 (A) (A) (A) (A) (A) (A) (A) (A) (A) (A) (A) (A)
                 (A) (A) (A) (A) (A) (A) (A) (A) (A) (A) (A) (A)
                 (A) (A) (A) (A) (A) (A) (A) (A) (A) (A) (A) (A)
                 (A) (A) (A) (A) (A) (A) (A) (A) (A) (A) (A) (A)
                 (A) (A) (A) (A) (A) (A) (A) (A) (A) (A) (A) (A)
                 (A) (A) (A) (A) (A) (A) (A) (A) (A) (A) (A) (A)
                 (A) (A) (A) (A) (A) (A) (A) (A) (A) (A) (A) (A)
                 (A) (A) (A) (A) (A) (A) (A) (A) (A) (A) (A) (A)
                 (A) (A) (A) (A) (A) (A) (A) (A) (A) (A) (A) (A)
                 (A) (A) (A) (A) (A) (A) (A) (A) (A) (A) (A) (A)
                 (A) (A) (A)
 Beta  Orbitals:
       Occupied  (A) (A) (A) (A) (A) (A) (A) (A) (A) (A) (A) (A)
                 (A) (A) (A) (A) (A) (A) (A) (A) (A) (A) (A) (A)
                 (A) (A) (A) (A) (A) (A) (A) (A) (A) (A) (A) (A)
                 (A) (A)
       Virtual   (A) (A) (A) (A) (A) (A) (A) (A) (A) (A) (A) (A)
                 (A) (A) (A) (A) (A) (A) (A) (A) (A) (A) (A) (A)
                 (A) (A) (A) (A) (A) (A) (A) (A) (A) (A) (A) (A)
                 (A) (A) (A) (A) (A) (A) (A) (A) (A) (A) (A) (A)
                 (A) (A) (A) (A) (A) (A) (A) (A) (A) (A) (A) (A)
                 (A) (A) (A) (A) (A) (A) (A) (A) (A) (A) (A) (A)
                 (A) (A) (A) (A) (A) (A) (A) (A) (A) (A) (A) (A)
                 (A) (A) (A) (A) (A) (A) (A) (A) (A) (A) (A) (A)
                 (A) (A) (A) (A) (A) (A) (A) (A) (A) (A) (A) (A)
                 (A) (A) (A) (A) (A) (A) (A) (A) (A) (A) (A) (A)
                 (A) (A) (A) (A) (A) (A) (A) (A) (A) (A) (A) (A)
                 (A) (A) (A) (A) (A) (A) (A) (A) (A) (A) (A) (A)
                 (A) (A) (A) (A) (A) (A) (A) (A) (A) (A) (A) (A)
                 (A) (A) (A) (A) (A) (A) (A) (A) (A) (A) (A) (A)
                 (A) (A) (A) (A)
 The electronic state is 2-A.
 Alpha  occ. eigenvalues --  -38.45066 -38.44236 -38.44019 -38.43664 -38.43620
 Alpha  occ. eigenvalues --  -38.43472 -38.43187  -2.20822  -2.20069  -2.19865
 Alpha  occ. eigenvalues --   -2.19539  -2.19437  -2.19372  -2.18999  -1.14502
 Alpha  occ. eigenvalues --   -1.14467  -1.14460  -1.13807  -1.13719  -1.13693
 Alpha  occ. eigenvalues --   -1.13543  -1.13504  -1.13479  -1.13205  -1.13199
 Alpha  occ. eigenvalues --   -1.13191  -1.13183  -1.13090  -1.13063  -1.13032
 Alpha  occ. eigenvalues --   -1.12989  -1.12971  -1.12672  -1.12669  -1.12635
 Alpha  occ. eigenvalues --   -0.18080  -0.13160  -0.12076  -0.10649
 Alpha virt. eigenvalues --   -0.06395  -0.05092  -0.04606  -0.03321  -0.02823
 Alpha virt. eigenvalues --   -0.02532  -0.02057  -0.01116  -0.00687  -0.00382
 Alpha virt. eigenvalues --   -0.00066   0.00322   0.00678   0.00725   0.00798
 Alpha virt. eigenvalues --    0.00898   0.00955   0.01157   0.01220   0.01233
 Alpha virt. eigenvalues --    0.01348   0.01383   0.01713   0.01826   0.02111
 Alpha virt. eigenvalues --    0.02224   0.02240   0.02437   0.02495   0.02692
 Alpha virt. eigenvalues --    0.02847   0.02912   0.03033   0.03067   0.03137
 Alpha virt. eigenvalues --    0.03202   0.03242   0.03303   0.03321   0.03484
 Alpha virt. eigenvalues --    0.03713   0.04339   0.04509   0.04612   0.04648
 Alpha virt. eigenvalues --    0.04811   0.04861   0.05051   0.05219   0.05333
 Alpha virt. eigenvalues --    0.05790   0.06595   0.07063   0.07168   0.07259
 Alpha virt. eigenvalues --    0.07558   0.07774   0.07959   0.08018   0.08782
 Alpha virt. eigenvalues --    0.09317   0.09777   0.10103   0.10786   0.11018
 Alpha virt. eigenvalues --    0.11622   0.11921   0.12122   0.12494   0.12700
 Alpha virt. eigenvalues --    0.13567   0.13880   0.14079   0.14483   0.14725
 Alpha virt. eigenvalues --    0.14974   0.15326   0.15627   0.16561   0.16922
 Alpha virt. eigenvalues --    0.26846   0.27472   0.28088   0.28907   0.29176
 Alpha virt. eigenvalues --    0.30025   0.30702   0.31203   0.32334   0.32680
 Alpha virt. eigenvalues --    0.34130   0.34493   0.35659   0.36876   0.37221
 Alpha virt. eigenvalues --    0.39430   0.39888   0.40323   0.41334   0.41976
 Alpha virt. eigenvalues --    0.42541   0.43175   0.43727   0.43943   0.44038
 Alpha virt. eigenvalues --    0.44300   0.44554   0.44748   0.45079   0.45427
 Alpha virt. eigenvalues --    0.46038   0.46294   0.46955   0.47228   0.48304
 Alpha virt. eigenvalues --    0.48599   0.49147   0.50085   0.50896   0.50961
 Alpha virt. eigenvalues --    0.52085   0.52634   0.53943   0.54702   0.55350
 Alpha virt. eigenvalues --    0.56177   0.56563   0.57515   0.57713   0.58816
 Alpha virt. eigenvalues --    0.59339   0.59592   0.60754   0.67913   0.70047
 Alpha virt. eigenvalues --    0.73409   2.02746   2.11835   2.14057   2.15245
 Alpha virt. eigenvalues --    2.18393   2.19313   2.20878   4.42768   4.43271
 Alpha virt. eigenvalues --    4.44859   4.45174   4.45468   4.45787   4.46614
 Alpha virt. eigenvalues --    4.46823   4.47050   4.47187   4.47844   4.48305
 Alpha virt. eigenvalues --    4.48451   4.48882   4.49005   4.51493   4.52725
 Alpha virt. eigenvalues --    4.54582   4.62855   4.66544   4.67439  96.22673
 Alpha virt. eigenvalues --   96.32586  96.35267  96.36809  96.40094  96.42463
 Alpha virt. eigenvalues --   96.43892
  Beta  occ. eigenvalues --  -38.45059 -38.44230 -38.43942 -38.43659 -38.43613
  Beta  occ. eigenvalues --  -38.43399 -38.43180  -2.20812  -2.20060  -2.19722
  Beta  occ. eigenvalues --   -2.19534  -2.19428  -2.19237  -2.18989  -1.14479
  Beta  occ. eigenvalues --   -1.14462  -1.14457  -1.13805  -1.13695  -1.13686
  Beta  occ. eigenvalues --   -1.13445  -1.13407  -1.13371  -1.13204  -1.13185
  Beta  occ. eigenvalues --   -1.13166  -1.13158  -1.13071  -1.13058  -1.12945
  Beta  occ. eigenvalues --   -1.12899  -1.12883  -1.12665  -1.12653  -1.12622
  Beta  occ. eigenvalues --   -0.17380  -0.12946  -0.11814
  Beta virt. eigenvalues --   -0.06895  -0.06255  -0.05037  -0.04542  -0.02614
  Beta virt. eigenvalues --   -0.02114  -0.01897  -0.01566  -0.01019  -0.00726
  Beta virt. eigenvalues --   -0.00420   0.00083   0.00361   0.00744   0.00847
  Beta virt. eigenvalues --    0.00855   0.00904   0.01038   0.01310   0.01359
  Beta virt. eigenvalues --    0.01386   0.01451   0.01499   0.01749   0.01858
  Beta virt. eigenvalues --    0.02127   0.02211   0.02385   0.02426   0.02490
  Beta virt. eigenvalues --    0.02818   0.02893   0.02937   0.03096   0.03148
  Beta virt. eigenvalues --    0.03229   0.03279   0.03288   0.03333   0.03441
  Beta virt. eigenvalues --    0.03555   0.03793   0.04382   0.04509   0.04706
  Beta virt. eigenvalues --    0.04859   0.04962   0.05041   0.05177   0.05309
  Beta virt. eigenvalues --    0.05566   0.06109   0.06624   0.07109   0.07274
  Beta virt. eigenvalues --    0.07367   0.07685   0.07872   0.08025   0.08179
  Beta virt. eigenvalues --    0.08994   0.09609   0.09921   0.10235   0.10887
  Beta virt. eigenvalues --    0.11107   0.12083   0.12139   0.12318   0.12668
  Beta virt. eigenvalues --    0.12962   0.13810   0.14179   0.14328   0.14601
  Beta virt. eigenvalues --    0.15027   0.15147   0.15573   0.15960   0.16812
  Beta virt. eigenvalues --    0.17216   0.27079   0.27703   0.28434   0.29132
  Beta virt. eigenvalues --    0.29210   0.30430   0.30818   0.31719   0.32720
  Beta virt. eigenvalues --    0.33216   0.34317   0.34641   0.35859   0.37025
  Beta virt. eigenvalues --    0.37455   0.39648   0.40026   0.40446   0.41467
  Beta virt. eigenvalues --    0.42063   0.42698   0.43351   0.43900   0.44166
  Beta virt. eigenvalues --    0.44207   0.44344   0.44812   0.44877   0.45251
  Beta virt. eigenvalues --    0.45657   0.46221   0.46413   0.47186   0.47414
  Beta virt. eigenvalues --    0.48352   0.48738   0.49270   0.50137   0.50938
  Beta virt. eigenvalues --    0.51024   0.52224   0.52838   0.54385   0.55010
  Beta virt. eigenvalues --    0.55421   0.56533   0.56824   0.57685   0.58126
  Beta virt. eigenvalues --    0.58958   0.59627   0.59890   0.60797   0.68099
  Beta virt. eigenvalues --    0.70313   0.73367   2.02880   2.11865   2.14072
  Beta virt. eigenvalues --    2.15264   2.18665   2.19372   2.21138   4.42765
  Beta virt. eigenvalues --    4.43354   4.44888   4.45200   4.45489   4.45799
  Beta virt. eigenvalues --    4.46634   4.46854   4.47080   4.47238   4.47938
  Beta virt. eigenvalues --    4.48372   4.48584   4.48978   4.49023   4.51505
  Beta virt. eigenvalues --    4.52752   4.54645   4.62933   4.66625   4.67441
  Beta virt. eigenvalues --   96.22713  96.32598  96.35277  96.36816  96.40188
  Beta virt. eigenvalues --   96.42469  96.43967
          Condensed to atoms (all electrons):
               1          2          3          4          5          6
     1  Na  14.663212   0.250307   0.446433  -0.789217  -0.231170  -2.805931
     2  Na   0.250307  10.924372   0.365404   0.051395   0.090948  -0.740487
     3  Na   0.446433   0.365404  10.741107  -0.084227  -0.037053  -0.493727
     4  Na  -0.789217   0.051395  -0.084227  10.967929   0.279640   0.397769
     5  Na  -0.231170   0.090948  -0.037053   0.279640  10.844109  -0.133609
     6  Na  -2.805931  -0.740487  -0.493727   0.397769  -0.133609  14.530895
     7  Na  -0.489883   0.113242   0.065252  -0.072850   0.144502   0.479938
               7
     1  Na  -0.489883
     2  Na   0.113242
     3  Na   0.065252
     4  Na  -0.072850
     5  Na   0.144502
     6  Na   0.479938
     7  Na  10.715022
          Atomic-Atomic Spin Densities.
               1          2          3          4          5          6
     1  Na   3.280292   0.468142   0.374184  -0.387238   0.088249  -2.909773
     2  Na   0.468142   0.085309   0.040523  -0.074267  -0.016315  -0.458385
     3  Na   0.374184   0.040523   0.034826  -0.059363  -0.019703  -0.327715
     4  Na  -0.387238  -0.074267  -0.059363   0.024622  -0.034548   0.489062
     5  Na   0.088249  -0.016315  -0.019703  -0.034548  -0.084917  -0.024759
     6  Na  -2.909773  -0.458385  -0.327715   0.489062  -0.024759   3.448236
     7  Na  -0.361348  -0.075800  -0.050220   0.055259  -0.057572   0.444112
               7
     1  Na  -0.361348
     2  Na  -0.075800
     3  Na  -0.050220
     4  Na   0.055259
     5  Na  -0.057572
     6  Na   0.444112
     7  Na   0.006583
 Mulliken charges and spin densities:
               1          2
     1  Na  -0.043750   0.552507
     2  Na  -0.055182  -0.030794
     3  Na  -0.003189  -0.007467
     4  Na   0.249560   0.013527
     5  Na   0.042633  -0.149566
     6  Na  -0.234848   0.660778
     7  Na   0.044777  -0.038986
 Sum of Mulliken charges =  -0.00000   1.00000
 Mulliken charges and spin densities with hydrogens summed into heavy atoms:
               1          2
     1  Na  -0.043750   0.552507
     2  Na  -0.055182  -0.030794
     3  Na  -0.003189  -0.007467
     4  Na   0.249560   0.013527
     5  Na   0.042633  -0.149566
     6  Na  -0.234848   0.660778
     7  Na   0.044777  -0.038986
 Electronic spatial extent (au):  <R**2>=           2458.8987
 Charge=             -0.0000 electrons
 Dipole moment (field-independent basis, Debye):
    X=             -0.5244    Y=             -0.2578    Z=              0.1938  Tot=              0.6157
 Quadrupole moment (field-independent basis, Debye-Ang):
   XX=            -54.1478   YY=            -65.0215   ZZ=            -74.8051
   XY=             -1.0088   XZ=             -0.2493   YZ=             -1.5794
 Traceless Quadrupole moment (field-independent basis, Debye-Ang):
   XX=             10.5103   YY=             -0.3633   ZZ=            -10.1470
   XY=             -1.0088   XZ=             -0.2493   YZ=             -1.5794
 Octapole moment (field-independent basis, Debye-Ang**2):
  XXX=            -24.6674  YYY=             -8.8395  ZZZ=              1.7004  XYY=              3.5132
  XXY=             -2.3426  XXZ=             -0.3615  XZZ=              0.5248  YZZ=              0.4990
  YYZ=              1.1114  XYZ=             -0.1538
 Hexadecapole moment (field-independent basis, Debye-Ang**3):
 XXXX=          -1600.5851 YYYY=          -1449.7098 ZZZZ=           -787.2652 XXXY=            -57.4922
 XXXZ=            -14.8070 YYYX=             26.5519 YYYZ=            -22.5634 ZZZX=             -0.4324
 ZZZY=             -1.3374 XXYY=           -538.4326 XXZZ=           -502.4275 YYZZ=           -440.4648
 XXYZ=            -14.1318 YYXZ=              8.4890 ZZXY=             -3.1012
 N-N= 3.277276552451D+02 E-N=-3.384760236381D+03  KE= 1.132844820283D+03
                          Isotropic Fermi Contact Couplings
        Atom                 a.u.       MegaHertz       Gauss      10(-4) cm-1
     1  Na(23)             0.29485     348.81647     124.46639     116.35265
     2  Na(23)             0.00046       0.53831       0.19208       0.17956
     3  Na(23)            -0.01586     -18.76487      -6.69577      -6.25929
     4  Na(23)             0.00282       3.33831       1.19119       1.11354
     5  Na(23)            -0.00661      -7.82227      -2.79118      -2.60923
     6  Na(23)             0.31445     372.00407     132.74030     124.08720
     7  Na(23)             0.00755       8.92831       3.18584       2.97816
 --------------------------------------------------------
       Center         ----  Spin Dipole Couplings  ----
                      3XX-RR        3YY-RR        3ZZ-RR
 --------------------------------------------------------
     1   Atom       -0.005839      0.008387     -0.002549
     2   Atom       -0.009095     -0.007963      0.017058
     3   Atom       -0.008645     -0.014304      0.022949
     4   Atom       -0.007256     -0.010993      0.018249
     5   Atom       -0.013256     -0.011613      0.024868
     6   Atom        0.006182     -0.005590     -0.000593
     7   Atom       -0.005376     -0.011596      0.016972
 --------------------------------------------------------
                        XY            XZ            YZ
 --------------------------------------------------------
     1   Atom        0.004669      0.000598      0.000519
     2   Atom       -0.002599     -0.010106      0.004181
     3   Atom        0.000433      0.011969     -0.010547
     4   Atom       -0.002560     -0.002010      0.006296
     5   Atom        0.002238     -0.005047     -0.005102
     6   Atom       -0.003978     -0.000713     -0.002235
     7   Atom       -0.000768      0.003720      0.000480
 --------------------------------------------------------


 ---------------------------------------------------------------------------------
              Anisotropic Spin Dipole Couplings in Principal Axis System
 ---------------------------------------------------------------------------------

       Atom             a.u.   MegaHertz   Gauss  10(-4) cm-1        Axes

              Baa    -0.0073    -1.027    -0.366    -0.343  0.9552 -0.2818 -0.0899
     1 Na(23) Bbb    -0.0025    -0.360    -0.128    -0.120  0.0707 -0.0774  0.9945
              Bcc     0.0098     1.387     0.495     0.463  0.2872  0.9563  0.0540
 
              Baa    -0.0128    -1.813    -0.647    -0.605  0.9261  0.2558  0.2773
     2 Na(23) Bbb    -0.0085    -1.194    -0.426    -0.398 -0.1935  0.9531 -0.2328
              Bcc     0.0213     3.007     1.073     1.003 -0.3238  0.1620  0.9321
 
              Baa    -0.0188    -2.649    -0.945    -0.884 -0.4330  0.8365  0.3358
     3 Na(23) Bbb    -0.0105    -1.477    -0.527    -0.493  0.8529  0.5007 -0.1475
              Bcc     0.0292     4.127     1.472     1.376  0.2915 -0.2225  0.9303
 
              Baa    -0.0131    -1.846    -0.659    -0.616  0.3495  0.9226 -0.1630
     4 Na(23) Bbb    -0.0067    -0.946    -0.338    -0.316  0.9324 -0.3255  0.1572
              Bcc     0.0198     2.793     0.997     0.932 -0.0920  0.2069  0.9740
 
              Baa    -0.0149    -2.100    -0.749    -0.700  0.8525 -0.5211  0.0414
     5 Na(23) Bbb    -0.0114    -1.612    -0.575    -0.538  0.5055  0.8420  0.1887
              Bcc     0.0263     3.711     1.324     1.238 -0.1332 -0.1400  0.9812
 
              Baa    -0.0076    -1.072    -0.383    -0.358  0.2782  0.9065  0.3177
     6 Na(23) Bbb     0.0002     0.027     0.010     0.009 -0.0896 -0.3049  0.9482
              Bcc     0.0074     1.045     0.373     0.349  0.9563 -0.2922 -0.0036
 
              Baa    -0.0117    -1.655    -0.591    -0.552  0.1402  0.9895 -0.0347
     7 Na(23) Bbb    -0.0059    -0.827    -0.295    -0.276  0.9772 -0.1439 -0.1562
              Bcc     0.0176     2.482     0.886     0.828  0.1596  0.0120  0.9871
 

 ---------------------------------------------------------------------------------

 No NMR shielding tensors so no spin-rotation constants.
 Leave Link  601 at Thu Dec  7 11:17:38 2023, MaxMem=  1879048192 cpu:               2.3 elap:               0.2
 (Enter /home/sekinelabo/g16/l701.exe)
 ... and contract with generalized density number  0.
 Compute integral first derivatives.
 Leave Link  701 at Thu Dec  7 11:17:38 2023, MaxMem=  1879048192 cpu:               1.7 elap:               0.1
 (Enter /home/sekinelabo/g16/l702.exe)
 L702 exits ... SP integral derivatives will be done elsewhere.
 Leave Link  702 at Thu Dec  7 11:17:38 2023, MaxMem=  1879048192 cpu:               0.4 elap:               0.0
 (Enter /home/sekinelabo/g16/l703.exe)
 Integral derivatives from FoFJK, PRISM(SPDF).
 Compute integral first derivatives, UseDBF=F ICtDFT=           0.
 Calling FoFJK, ICntrl=      2127 FMM=F ISym2X=0 I1Cent= 0 IOpClX= 1 NMat=1 NMatS=1 NMatT=0.
 FoFJK:  IHMeth= 1 ICntrl=    2127 DoSepK=F KAlg= 0 I1Cent=           0 FoldK=F
 IRaf=         0 NMat=       1 IRICut=       1 DoRegI=T DoRafI=F ISym2E= 0 IDoP0=0 IntGTp=1.
 FoFCou: FMM=F IPFlag=           0 FMFlag=      100000 FMFlg1=         800
         NFxFlg=           0 DoJE=F BraDBF=F KetDBF=F FulRan=T
         wScrn=  0.000000 ICntrl=      2127 IOpCl=  1 I1Cent=           0 NGrid=           0
         NMat0=    1 NMatS0=      1 NMatT0=    0 NMatD0=    1 NMtDS0=    0 NMtDT0=    0
 Symmetry not used in FoFCou.
 Leave Link  703 at Thu Dec  7 11:17:40 2023, MaxMem=  1879048192 cpu:              33.0 elap:               2.2
 (Enter /home/sekinelabo/g16/l716.exe)
 Dipole        =-2.06319324D-01-1.01431259D-01 7.62510434D-02
 ***** Axes restored to original set *****
 -------------------------------------------------------------------
 Center     Atomic                   Forces (Hartrees/Bohr)
 Number     Number              X              Y              Z
 -------------------------------------------------------------------
      1       11           0.001779421   -0.002948449    0.001776033
      2       11          -0.000588141    0.001781700   -0.001432903
      3       11           0.003138701   -0.005078806   -0.002079797
      4       11          -0.001659890    0.005632319   -0.004119810
      5       11           0.001793851    0.001692711    0.000240393
      6       11          -0.002314504   -0.001656561   -0.000920569
      7       11          -0.002149438    0.000577086    0.006536653
 -------------------------------------------------------------------
 Cartesian Forces:  Max     0.006536653 RMS     0.002884940
 Z-matrix is all fixed cartesians, so copy forces.
 Force constants in Cartesian coordinates: 
                1             2             3             4             5 
      1  0.140828D+00
      2  0.229229D-01  0.116538D+00
      3  0.113734D-01  0.229990D-02  0.963931D-01
      4 -0.264583D-01  0.165027D-01  0.171674D-02  0.558392D-01
      5 -0.134559D-01 -0.155186D-01 -0.183335D-02 -0.204774D-01  0.800313D-01
      6 -0.466008D-02  0.431360D-02 -0.134680D-01 -0.631418D-02 -0.571380D-03
      7 -0.215200D-01  0.530691D-02 -0.178412D-01 -0.114964D-01  0.348289D-02
      8 -0.872886D-02 -0.150102D-01 -0.720389D-02  0.113811D-01 -0.220425D-01
      9  0.445821D-02  0.103161D-01 -0.197824D-01 -0.362233D-02  0.165799D-01
     10 -0.154307D-01 -0.114686D-01 -0.144158D-01  0.242632D-02  0.421613D-02
     11  0.426545D-02 -0.164253D-01 -0.480731D-02  0.399607D-02  0.500463D-03
     12  0.991703D-02 -0.704487D-02 -0.126344D-01  0.294143D-02 -0.548659D-02
     13 -0.298751D-01 -0.220669D-01  0.542157D-02  0.438796D-02  0.547898D-02
     14  0.972652D-02 -0.404307D-01  0.557317D-02  0.578047D-02 -0.202278D-02
     15 -0.653526D-02 -0.184998D-02 -0.207673D-01 -0.179956D-02  0.202915D-02
     16 -0.257694D-01 -0.103224D-01 -0.111735D-02 -0.157206D-01  0.107231D-01
     17 -0.607579D-02 -0.190490D-01 -0.973397D-03 -0.186466D-01 -0.246797D-01
     18 -0.378737D-02 -0.344930D-02 -0.151340D-01 -0.333743D-02 -0.813291D-03
     19 -0.217745D-01 -0.874487D-03  0.148625D-01 -0.897823D-02  0.100322D-01
     20 -0.865430D-02 -0.101038D-01  0.694488D-02  0.146359D-02 -0.162683D-01
     21 -0.107660D-01 -0.458550D-02 -0.146070D-01  0.104153D-01 -0.990439D-02
                6             7             8             9            10 
      6  0.606507D-01
      7  0.120240D-01  0.560377D-01
      8 -0.120881D-01 -0.157315D-01  0.888642D-01
      9 -0.254527D-01 -0.189199D-02 -0.180691D-01  0.915091D-01
     10  0.321074D-02 -0.158414D-01  0.112598D-01  0.896354D-02  0.459497D-01
     11 -0.562046D-02  0.180297D-01 -0.396389D-01 -0.911975D-02 -0.150199D-01
     12  0.432040D-02 -0.444752D-02  0.180310D-01 -0.257298D-01 -0.721844D-02
     13 -0.176032D-02  0.435791D-02  0.269899D-02  0.865226D-03  0.208198D-02
     14  0.211677D-02  0.318492D-02  0.136125D-02  0.151735D-02  0.306703D-03
     15  0.442302D-02 -0.172624D-02  0.605725D-02 -0.461274D-03 -0.249760D-02
     16  0.138604D-02 -0.171443D-01 -0.419784D-03 -0.107343D-01 -0.245625D-01
     17 -0.404861D-02 -0.137519D-01 -0.198425D-01 -0.334615D-02  0.811039D-02
     18 -0.130773D-01  0.116740D-01  0.112942D-01 -0.153785D-01  0.973758D-02
     19 -0.388621D-02  0.560648D-02 -0.459769D-03  0.196169D-02  0.537662D-02
     20  0.158982D-01 -0.521078D-03  0.630871D-02  0.212161D-02  0.259554D-02
     21 -0.173961D-01  0.220891D-02  0.197869D-02 -0.470441D-02  0.221998D-02
               11            12            13            14            15 
     11  0.633206D-01
     12  0.701821D-02  0.532907D-01
     13 -0.935691D-04  0.160197D-02  0.491261D-01
     14  0.188193D-02 -0.771957D-03 -0.836115D-02  0.601368D-01
     15  0.600972D-02 -0.600501D-02  0.199458D-02 -0.782256D-02  0.448900D-01
     16 -0.134720D-01 -0.595430D-02 -0.217582D-01 -0.132182D-01 -0.130642D-02
     17 -0.128501D-01 -0.106177D-01  0.125456D-01 -0.117836D-01  0.693311D-02
     18  0.634115D-02 -0.119696D-01 -0.411578D-02 -0.763724D-02 -0.122131D-01
     19  0.229422D-02  0.315984D-02 -0.832064D-02  0.258073D-02  0.118705D-01
     20  0.321130D-02 -0.112800D-02  0.979808D-02 -0.914287D-02 -0.113567D-01
     21  0.178432D-03 -0.127229D-02 -0.400724D-02  0.702447D-02 -0.986626D-02
               16            17            18            19            20 
     16  0.123998D+00
     17  0.277392D-01  0.105725D+00
     18  0.677977D-02  0.817113D-02  0.886254D-01
     19 -0.190430D-01 -0.992100D-02 -0.169508D-01  0.471333D-01
     20 -0.102999D-02 -0.175197D-01 -0.139066D-01 -0.365184D-02  0.435147D-01
     21  0.109466D-01  0.388166D-02 -0.208529D-01 -0.110176D-01  0.142663D-02
               21 
     21  0.686991D-01
 Leave Link  716 at Thu Dec  7 11:17:40 2023, MaxMem=  1879048192 cpu:               0.4 elap:               0.0
 (Enter /home/sekinelabo/g16/l103.exe)

 GradGradGradGradGradGradGradGradGradGradGradGradGradGradGradGradGradGrad
 Berny optimization.
 Search for a local minimum.
 Step number   1 out of a maximum of    2
 All quantities printed in internal units (Hartrees-Bohrs-Radians)
 Second derivative matrix not updated -- first step.
 ITU=  0
     Eigenvalues ---    0.04111   0.04702   0.05627   0.05980   0.06607
     Eigenvalues ---    0.07430   0.09695   0.10826   0.11355   0.12408
     Eigenvalues ---    0.12626   0.14177   0.15149   0.16634   0.19393
 Angle between quadratic step and forces=  28.86 degrees.
 Linear search not attempted -- first point.
 B after Tr=     0.000000   -0.000000    0.000000
         Rot=    1.000000   -0.000000   -0.000000   -0.000000 Ang=   0.00 deg.
 Variable       Old X    -DE/DX   Delta X   Delta X   Delta X     New X
                                 (Linear)    (Quad)   (Total)
    X1       19.45416   0.00178   0.00000   0.02884   0.02884  19.48301
    Y1       21.38131  -0.00295   0.00000  -0.02445  -0.02445  21.35685
    Z1       21.53192   0.00178   0.00000   0.02317   0.02317  21.55509
    X2       25.52699  -0.00059   0.00000  -0.01244  -0.01244  25.51454
    Y2       17.76314   0.00178   0.00000   0.02852   0.02852  17.79166
    Z2       22.14362  -0.00143   0.00000  -0.01550  -0.01550  22.12813
    X3       22.74455   0.00314   0.00000   0.02955   0.02955  22.77411
    Y3       20.07456  -0.00508   0.00000  -0.02635  -0.02635  20.04821
    Z3       27.69431  -0.00208   0.00000  -0.05118  -0.05118  27.64313
    X4       20.22272  -0.00166   0.00000  -0.00902  -0.00902  20.21369
    Y4       25.11937   0.00563   0.00000   0.04456   0.04456  25.16393
    Z4       27.83907  -0.00412   0.00000  -0.09655  -0.09655  27.74251
    X5       19.69302   0.00179   0.00000   0.03071   0.03071  19.72373
    Y5       26.87625   0.00169   0.00000  -0.00679  -0.00679  26.86946
    Z5       19.49895   0.00024   0.00000   0.03969   0.03969  19.53864
    X6       25.60617  -0.00231   0.00000  -0.02530  -0.02530  25.58086
    Y6       24.80643  -0.00166   0.00000  -0.02605  -0.02605  24.78039
    Z6       23.08641  -0.00092   0.00000  -0.00461  -0.00461  23.08179
    X7       25.02904  -0.00215   0.00000  -0.04234  -0.04234  24.98671
    Y7       22.25549   0.00058   0.00000   0.01056   0.01056  22.26606
    Z7       16.48251   0.00654   0.00000   0.10498   0.10498  16.58749
         Item               Value     Threshold  Converged?
 Maximum Force            0.006537     0.000450     NO 
 RMS     Force            0.002885     0.000300     NO 
 Maximum Displacement     0.104981     0.001800     NO 
 RMS     Displacement     0.041162     0.001200     NO 
 Predicted change in Energy=-1.092034D-03
 GradGradGradGradGradGradGradGradGradGradGradGradGradGradGradGradGradGrad

 Leave Link  103 at Thu Dec  7 11:17:40 2023, MaxMem=  1879048192 cpu:               0.2 elap:               0.0
 (Enter /home/sekinelabo/g16/l9999.exe)
 1\1\GINC-SEKINELABO-XA7R-R37\Force\UB3LYP\6-311+G(d)\Na7(2)\SEKINELABO
 \07-Dec-2023\0\\#P B3LYP/6-311+g(d) force\\DPGEN\\0,2\Na,10.2947,11.31
 45,11.3942\Na,13.5083,9.39985,11.7179\Na,12.0359,10.623,14.6552\Na,10.
 7014,13.2926,14.7318\Na,10.4211,14.2223,10.3184\Na,13.5502,13.127,12.2
 168\Na,13.2448,11.7771,8.72217\\Version=ES64L-G16RevB.01\State=2-A\HF=
 -1136.1303361\S2=0.762801\S2-1=0.\S2A=0.750117\RMSD=5.906e-09\RMSF=2.8
 85e-03\Dipole=0.0502676,0.1301028,-0.1980318\Quadrupole=-5.1825633,-1.
 6179717,6.800535,-3.0405095,-3.7103224,-0.3547505\PG=C01 [X(Na7)]\\@


 Spring appears, and we are once more children.
                                  -- Anonymous
 Job cpu time:       0 days  0 hours  3 minutes 55.8 seconds.
 Elapsed time:       0 days  0 hours  0 minutes 20.1 seconds.
 File lengths (MBytes):  RWF=     32 Int=      0 D2E=      0 Chk=      4 Scr=      1
 Normal termination of Gaussian 16 at Thu Dec  7 11:17:40 2023.
