ITEM: TIMESTEP
6960
ITEM: NUMBER OF ATOMS
7
ITEM: BOX BOUNDS xy xz yz ff ff ff
0.0000000000000000e+00 2.4893333703000000e+01 0.0000000000000000e+00
0.0000000000000000e+00 2.4893333703000000e+01 0.0000000000000000e+00
0.0000000000000000e+00 2.4893333703000000e+01 0.0000000000000000e+00
ITEM: ATOMS id type x y z fx fy fz
3 1 14.7626 12.4253 13.051 -0.0411567 0.0273884 -0.12485
1 1 14.9677 15.3115 7.36821 -0.101052 0.0961292 -0.131789
7 1 16.3454 13.6179 9.29999 -0.0419982 -0.196542 0.260506
4 1 12.8036 11.6978 9.99418 0.0691382 0.10624 0.0922897
5 1 7.06782 10.6078 16.9986 0.0890755 -0.0189535 0.0476283
6 1 10.2933 10.92 16.7653 -0.147578 0.0209471 -0.0546723
2 1 10.8863 12.5463 13.6494 0.17357 -0.0352091 -0.0891132
