ITEM: TIMESTEP
4180
ITEM: NUMBER OF ATOMS
7
ITEM: BOX BOUNDS xy xz yz ff ff ff
0.0000000000000000e+00 2.8643540598200001e+01 0.0000000000000000e+00
0.0000000000000000e+00 2.8643540598200001e+01 0.0000000000000000e+00
0.0000000000000000e+00 2.8643540598200001e+01 0.0000000000000000e+00
ITEM: ATOMS id type x y z fx fy fz
1 1 15.0256 12.5408 11.2794 0.0224632 -0.0156679 0.0559294
4 1 17.1462 13.7332 14.076 0.022918 -0.0549619 -0.0301589
7 1 14.5199 15.499 12.9004 0.0536735 -0.109854 -0.38039
3 1 14.1687 12.0372 14.7943 0.0267358 0.100125 -0.0656933
2 1 12.0646 16.5924 14.5643 -0.274979 0.138983 0.0184039
5 1 12.3745 14.1342 16.7591 -0.16503 -0.134663 0.0846511
6 1 14.9528 15.7156 15.8789 0.314219 0.0760397 0.317258
