ITEM: TIMESTEP
3800
ITEM: NUMBER OF ATOMS
7
ITEM: BOX BOUNDS xy xz yz ff ff ff
0.0000000000000000e+00 2.5715855947800002e+01 0.0000000000000000e+00
0.0000000000000000e+00 2.5715855947800002e+01 0.0000000000000000e+00
0.0000000000000000e+00 2.5715855947800002e+01 0.0000000000000000e+00
ITEM: ATOMS id type x y z fx fy fz
6 1 10.3365 10.1873 11.1566 0.00558766 0.0343409 -0.0400336
3 1 12.9116 12.0235 9.20799 -0.00099869 -0.0551351 -0.0482864
2 1 9.34887 13.0711 13.2115 -0.109177 -0.0397574 -0.0604795
4 1 15.7718 12.5171 10.3605 0.0157792 -0.0032437 -0.0296305
1 1 16.139 14.0701 13.8326 0.0777538 0.0250061 0.0157858
5 1 10.8589 13.4007 15.8123 0.138315 0.0804287 0.163747
7 1 14.6388 14.7357 16.424 -0.12726 -0.0416396 -0.00110256
