ITEM: TIMESTEP
2550
ITEM: NUMBER OF ATOMS
7
ITEM: BOX BOUNDS xy xz yz ff ff ff
0.0000000000000000e+00 2.5044312337200001e+01 0.0000000000000000e+00
0.0000000000000000e+00 2.5044312337200001e+01 0.0000000000000000e+00
0.0000000000000000e+00 2.5044312337200001e+01 0.0000000000000000e+00
ITEM: ATOMS id type x y z fx fy fz
1 1 12.9073 12.0669 10.2833 -0.0470855 0.000934507 0.128979
2 1 11.1984 9.78153 13.1285 0.0104038 0.0211859 -0.0520495
6 1 14.5358 10.3546 12.8542 0.0173164 0.0762797 -0.0226928
7 1 9.87331 12.6815 11.8879 0.0990468 0.0687934 0.0443143
5 1 14.6776 14.2077 12.3725 0.191322 -0.117259 -0.0730908
3 1 11.9499 15.7979 12.6876 -0.175916 -0.00512797 -0.0288965
4 1 12.5128 12.7649 14.4412 -0.0950876 -0.0448069 0.00343655
