ITEM: TIMESTEP
3500
ITEM: NUMBER OF ATOMS
7
ITEM: BOX BOUNDS xy xz yz ff ff ff
0.0000000000000000e+00 2.3128980217300001e+01 0.0000000000000000e+00
0.0000000000000000e+00 2.3128980217300001e+01 0.0000000000000000e+00
0.0000000000000000e+00 2.3128980217300001e+01 0.0000000000000000e+00
ITEM: ATOMS id type x y z fx fy fz
3 1 12.9406 12.3684 10.1105 0.0414098 0.0241063 -0.280463
4 1 9.98991 9.52371 11.3504 0.0926918 -0.0203654 0.0090866
2 1 9.57569 11.6589 8.55687 0.0123609 -0.0620939 -0.127866
7 1 13.1397 13.6714 13.0972 0.0124617 -0.0497666 0.089857
1 1 11.3892 10.8218 14.3727 0.00283559 0.0390366 -0.0868453
5 1 10.0594 12.8656 11.4513 -0.105225 0.116712 0.269322
6 1 13.857 10.0415 12.0126 -0.056535 -0.0476293 0.126909
