 Set GAUSS_MDEF to "14GB".
 Entering Gaussian System, Link 0=g16
 Initial command:
 /home/sekinelabo/g16/l1.exe "/home/sekinelabo/g16temp/Gau-86594.inp" -scrdir="/home/sekinelabo/g16temp/"
 Entering Link 1 = /home/sekinelabo/g16/l1.exe PID=     86596.
  
 Copyright (c) 1988-2017, Gaussian, Inc.  All Rights Reserved.
  
 This is part of the Gaussian(R) 16 program.  It is based on
 the Gaussian(R) 09 system (copyright 2009, Gaussian, Inc.),
 the Gaussian(R) 03 system (copyright 2003, Gaussian, Inc.),
 the Gaussian(R) 98 system (copyright 1998, Gaussian, Inc.),
 the Gaussian(R) 94 system (copyright 1995, Gaussian, Inc.),
 the Gaussian 92(TM) system (copyright 1992, Gaussian, Inc.),
 the Gaussian 90(TM) system (copyright 1990, Gaussian, Inc.),
 the Gaussian 88(TM) system (copyright 1988, Gaussian, Inc.),
 the Gaussian 86(TM) system (copyright 1986, Carnegie Mellon
 University), and the Gaussian 82(TM) system (copyright 1983,
 Carnegie Mellon University). Gaussian is a federally registered
 trademark of Gaussian, Inc.
  
 This software contains proprietary and confidential information,
 including trade secrets, belonging to Gaussian, Inc.
  
 This software is provided under written license and may be
 used, copied, transmitted, or stored only in accord with that
 written license.
  
 The following legend is applicable only to US Government
 contracts under FAR:
  
                    RESTRICTED RIGHTS LEGEND
  
 Use, reproduction and disclosure by the US Government is
 subject to restrictions as set forth in subparagraphs (a)
 and (c) of the Commercial Computer Software - Restricted
 Rights clause in FAR 52.227-19.
  
 Gaussian, Inc.
 340 Quinnipiac St., Bldg. 40, Wallingford CT 06492
  
  
 ---------------------------------------------------------------
 Warning -- This program may not be used in any manner that
 competes with the business of Gaussian, Inc. or will provide
 assistance to any competitor of Gaussian, Inc.  The licensee
 of this program is prohibited from giving any competitor of
 Gaussian, Inc. access to this program.  By using this program,
 the user acknowledges that Gaussian, Inc. is engaged in the
 business of creating and licensing software in the field of
 computational chemistry and represents and warrants to the
 licensee that it is not a competitor of Gaussian, Inc. and that
 it will not use this program in any manner prohibited above.
 ---------------------------------------------------------------
  

 Cite this work as:
 Gaussian 16, Revision B.01,
 M. J. Frisch, G. W. Trucks, H. B. Schlegel, G. E. Scuseria, 
 M. A. Robb, J. R. Cheeseman, G. Scalmani, V. Barone, 
 G. A. Petersson, H. Nakatsuji, X. Li, M. Caricato, A. V. Marenich, 
 J. Bloino, B. G. Janesko, R. Gomperts, B. Mennucci, H. P. Hratchian, 
 J. V. Ortiz, A. F. Izmaylov, J. L. Sonnenberg, D. Williams-Young, 
 F. Ding, F. Lipparini, F. Egidi, J. Goings, B. Peng, A. Petrone, 
 T. Henderson, D. Ranasinghe, V. G. Zakrzewski, J. Gao, N. Rega, 
 G. Zheng, W. Liang, M. Hada, M. Ehara, K. Toyota, R. Fukuda, 
 J. Hasegawa, M. Ishida, T. Nakajima, Y. Honda, O. Kitao, H. Nakai, 
 T. Vreven, K. Throssell, J. A. Montgomery, Jr., J. E. Peralta, 
 F. Ogliaro, M. J. Bearpark, J. J. Heyd, E. N. Brothers, K. N. Kudin, 
 V. N. Staroverov, T. A. Keith, R. Kobayashi, J. Normand, 
 K. Raghavachari, A. P. Rendell, J. C. Burant, S. S. Iyengar, 
 J. Tomasi, M. Cossi, J. M. Millam, M. Klene, C. Adamo, R. Cammi, 
 J. W. Ochterski, R. L. Martin, K. Morokuma, O. Farkas, 
 J. B. Foresman, and D. J. Fox, Gaussian, Inc., Wallingford CT, 2016.
 
 ******************************************
 Gaussian 16:  ES64L-G16RevB.01 20-Dec-2017
                 5-Dec-2023 
 ******************************************
 %nproc=15
 Will use up to   15 processors via shared memory.
 -------------------------
 #P B3LYP/6-311+g(d) force
 -------------------------
 1/10=7,30=1,38=1/1,3;
 2/12=2,17=6,18=5,40=1/2;
 3/5=4,6=6,7=11,11=2,25=1,30=1,71=1,74=-5/1,2,3;
 4//1;
 5/5=2,38=5/2;
 6/7=2,8=2,9=2,10=2,28=1/1;
 7/29=1/1,2,3,16;
 1/10=7,30=1/3;
 99//99;
 Leave Link    1 at Tue Dec  5 11:53:26 2023, MaxMem=           0 cpu:               0.3 elap:               0.0
 (Enter /home/sekinelabo/g16/l101.exe)
 -----
 DPGEN
 -----
 Symbolic Z-matrix:
 Charge =  0 Multiplicity = 2
 Na                    11.3161   12.7727   13.462 
 Na                    11.0878   11.9513   10.2743 
 Na                    14.1232   11.1119   11.6658 
 Na                    9.48754   14.9442   10.6634 
 Na                    12.9869   14.4185   11.1258 
 Na                    13.7258   9.69549   14.5458 
 Na                    11.3697   9.2029    12.3599 
 
 ITRead=  0  0  0  0  0  0  0
 MicOpt= -1 -1 -1 -1 -1 -1 -1
 NAtoms=      7 NQM=        7 NQMF=       0 NMMI=      0 NMMIF=      0
                NMic=       0 NMicF=      0.
                    Isotopes and Nuclear Properties:
 (Nuclear quadrupole moments (NQMom) in fm**2, nuclear magnetic moments (NMagM)
  in nuclear magnetons)

  Atom         1           2           3           4           5           6           7
 IAtWgt=          23          23          23          23          23          23          23
 AtmWgt=  22.9897697  22.9897697  22.9897697  22.9897697  22.9897697  22.9897697  22.9897697
 NucSpn=           3           3           3           3           3           3           3
 AtZEff=  -0.0000000  -0.0000000  -0.0000000  -0.0000000  -0.0000000  -0.0000000  -0.0000000
 NQMom=   10.4000000  10.4000000  10.4000000  10.4000000  10.4000000  10.4000000  10.4000000
 NMagM=    2.2175200   2.2175200   2.2175200   2.2175200   2.2175200   2.2175200   2.2175200
 AtZNuc=  11.0000000  11.0000000  11.0000000  11.0000000  11.0000000  11.0000000  11.0000000
 Leave Link  101 at Tue Dec  5 11:53:27 2023, MaxMem=  1879048192 cpu:               2.4 elap:               0.2
 (Enter /home/sekinelabo/g16/l103.exe)

 GradGradGradGradGradGradGradGradGradGradGradGradGradGradGradGradGradGrad
 Berny optimization.
 Initialization pass.
 Trust Radius=3.00D-01 FncErr=1.00D-07 GrdErr=1.00D-07 EigMax=2.50D+02 EigMin=1.00D-04
 Number of steps in this run=      2 maximum allowed number of steps=      2.
 GradGradGradGradGradGradGradGradGradGradGradGradGradGradGradGradGradGrad

 Leave Link  103 at Tue Dec  5 11:53:27 2023, MaxMem=  1879048192 cpu:               0.2 elap:               0.0
 (Enter /home/sekinelabo/g16/l202.exe)
                          Input orientation:                          
 ---------------------------------------------------------------------
 Center     Atomic      Atomic             Coordinates (Angstroms)
 Number     Number       Type             X           Y           Z
 ---------------------------------------------------------------------
      1         11           0       11.316100   12.772700   13.462000
      2         11           0       11.087800   11.951300   10.274300
      3         11           0       14.123200   11.111900   11.665800
      4         11           0        9.487540   14.944200   10.663400
      5         11           0       12.986900   14.418500   11.125800
      6         11           0       13.725800    9.695490   14.545800
      7         11           0       11.369700    9.202900   12.359900
 ---------------------------------------------------------------------
                    Distance matrix (angstroms):
                    1          2          3          4          5
     1  Na   0.000000
     2  Na   3.299735   0.000000
     3  Na   3.723493   3.443039   0.000000
     4  Na   3.986378   3.416092   6.097596   0.000000
     5  Na   3.310296   3.227802   3.537850   3.568711   0.000000
     6  Na   4.055921   5.503947   3.233967   7.783626   5.877856
     7  Na   3.736438   3.461632   3.421669   6.275601   5.598287
                    6          7
     6  Na   0.000000
     7  Na   3.251463   0.000000
 Stoichiometry    Na7(2)
 Framework group  C1[X(Na7)]
 Deg. of freedom    15
 Full point group                 C1      NOp   1
 Largest Abelian subgroup         C1      NOp   1
 Largest concise Abelian subgroup C1      NOp   1
                         Standard orientation:                         
 ---------------------------------------------------------------------
 Center     Atomic      Atomic             Coordinates (Angstroms)
 Number     Number       Type             X           Y           Z
 ---------------------------------------------------------------------
      1         11           0       -0.249903   -0.110109    1.756491
      2         11           0       -1.124541   -0.948462   -1.312780
      3         11           0        1.459407    1.325262   -1.223840
      4         11           0       -3.988632   -0.769198    0.540468
      5         11           0       -1.865927    1.996902   -0.220129
      6         11           0        3.685020    0.465505    0.959279
      7         11           0        2.084578   -1.959901   -0.499488
 ---------------------------------------------------------------------
 Rotational constants (GHZ):           1.1496117           0.4524199           0.4221139
 Leave Link  202 at Tue Dec  5 11:53:27 2023, MaxMem=  1879048192 cpu:               0.0 elap:               0.0
 (Enter /home/sekinelabo/g16/l301.exe)
 Standard basis: 6-311+G(d) (5D, 7F)
 Ernie: Thresh=  0.10000D-02 Tol=  0.10000D-05 Strict=F.
 There are   217 symmetry adapted cartesian basis functions of A   symmetry.
 There are   210 symmetry adapted basis functions of A   symmetry.
   210 basis functions,   350 primitive gaussians,   217 cartesian basis functions
    39 alpha electrons       38 beta electrons
       nuclear repulsion energy       337.7461539354 Hartrees.
 IExCor=  402 DFT=T Ex+Corr=B3LYP ExCW=0 ScaHFX=  0.200000
 ScaDFX=  0.800000  0.720000  1.000000  0.810000 ScalE2=  1.000000  1.000000
 IRadAn=      5 IRanWt=     -1 IRanGd=            0 ICorTp=0 IEmpDi=  4
 NAtoms=    7 NActive=    7 NUniq=    7 SFac= 1.00D+00 NAtFMM=   60 NAOKFM=F Big=F
 Integral buffers will be    131072 words long.
 Raffenetti 2 integral format.
 Two-electron integral symmetry is turned on.
 Leave Link  301 at Tue Dec  5 11:53:27 2023, MaxMem=  1879048192 cpu:               0.5 elap:               0.0
 (Enter /home/sekinelabo/g16/l302.exe)
 NPDir=0 NMtPBC=     1 NCelOv=     1 NCel=       1 NClECP=     1 NCelD=      1
         NCelK=      1 NCelE2=     1 NClLst=     1 CellRange=     0.0.
 One-electron integrals computed using PRISM.
 One-electron integral symmetry used in STVInt
 NBasis=   210 RedAO= T EigKep=  6.51D-06  NBF=   210
 NBsUse=   210 1.00D-06 EigRej= -1.00D+00 NBFU=   210
 Precomputing XC quadrature grid using
 IXCGrd= 4 IRadAn=           5 IRanWt=          -1 IRanGd=           0 AccXCQ= 0.00D+00.
 Generated NRdTot=       0 NPtTot=           0 NUsed=           0 NTot=          32
 NSgBfM=   211   211   211   211   211 MxSgAt=     7 MxSgA2=     7.
 Leave Link  302 at Tue Dec  5 11:53:27 2023, MaxMem=  1879048192 cpu:               2.0 elap:               0.1
 (Enter /home/sekinelabo/g16/l303.exe)
 DipDrv:  MaxL=1.
 Leave Link  303 at Tue Dec  5 11:53:27 2023, MaxMem=  1879048192 cpu:               0.6 elap:               0.0
 (Enter /home/sekinelabo/g16/l401.exe)
 ExpMin= 7.60D-03 ExpMax= 3.62D+04 ExpMxC= 1.21D+03 IAcc=3 IRadAn=         5 AccDes= 0.00D+00
 Harris functional with IExCor=  402 and IRadAn=       5 diagonalized for initial guess.
 HarFok:  IExCor=  402 AccDes= 0.00D+00 IRadAn=         5 IDoV= 1 UseB2=F ITyADJ=14
 ICtDFT=  3500011 ScaDFX=  1.000000  1.000000  1.000000  1.000000
 FoFCou: FMM=F IPFlag=           0 FMFlag=      100000 FMFlg1=           0
         NFxFlg=           0 DoJE=T BraDBF=F KetDBF=T FulRan=T
         wScrn=  0.000000 ICntrl=       500 IOpCl=  0 I1Cent=   200000004 NGrid=           0
         NMat0=    1 NMatS0=      1 NMatT0=    0 NMatD0=    1 NMtDS0=    0 NMtDT0=    0
 Petite list used in FoFCou.
 Harris En= -1135.89000314734    
 JPrj=0 DoOrth=F DoCkMO=F.
 Initial guess <Sx>= 0.0000 <Sy>= 0.0000 <Sz>= 0.5000 <S**2>= 0.7500 S= 0.5000
 Leave Link  401 at Tue Dec  5 11:53:27 2023, MaxMem=  1879048192 cpu:               4.3 elap:               0.3
 (Enter /home/sekinelabo/g16/l502.exe)
 Keep R1 and R2 ints in memory in canonical form, NReq=506573321.
 FoFCou: FMM=F IPFlag=           0 FMFlag=           0 FMFlg1=           0
         NFxFlg=           0 DoJE=F BraDBF=F KetDBF=F FulRan=T
         wScrn=  0.000000 ICntrl=       600 IOpCl=  0 I1Cent=           0 NGrid=           0
         NMat0=    1 NMatS0=  22155 NMatT0=    0 NMatD0=    1 NMtDS0=    0 NMtDT0=    0
 Symmetry not used in FoFCou.
 Two-electron integral symmetry not used.
 UHF open shell SCF:
 Using DIIS extrapolation, IDIIS=  1040.
 NGot=  1879048192 LenX=  1388082579 LenY=  1388035049
 Requested convergence on RMS density matrix=1.00D-08 within 128 cycles.
 Requested convergence on MAX density matrix=1.00D-06.
 Requested convergence on             energy=1.00D-06.
 No special actions if energy rises.

 Cycle   1  Pass 1  IDiag  1:
 E= -1136.07669916885    
 DIIS: error= 1.66D-02 at cycle   1 NSaved=   1.
 NSaved= 1 IEnMin= 1 EnMin= -1136.07669916885     IErMin= 1 ErrMin= 1.66D-02
 ErrMax= 1.66D-02  0.00D+00 EMaxC= 1.00D-01 BMatC= 1.96D-01 BMatP= 1.96D-01
 IDIUse=3 WtCom= 8.34D-01 WtEn= 1.66D-01
 Coeff-Com:  0.100D+01
 Coeff-En:   0.100D+01
 Coeff:      0.100D+01
 Gap=     0.026 Goal=   None    Shift=    0.000
 Gap=     0.025 Goal=   None    Shift=    0.000
 GapD=    0.025 DampG=0.250 DampE=0.500 DampFc=0.2500 IDamp=-1.
 Damping current iteration by 2.50D-01
 RMSDP=1.86D-02 MaxDP=1.59D+00              OVMax= 3.40D-01

 Cycle   2  Pass 1  IDiag  1:
 E= -1136.09088560978     Delta-E=       -0.014186440923 Rises=F Damp=T
 DIIS: error= 1.18D-02 at cycle   2 NSaved=   2.
 NSaved= 2 IEnMin= 2 EnMin= -1136.09088560978     IErMin= 2 ErrMin= 1.18D-02
 ErrMax= 1.18D-02  0.00D+00 EMaxC= 1.00D-01 BMatC= 7.30D-02 BMatP= 1.96D-01
 IDIUse=3 WtCom= 8.82D-01 WtEn= 1.18D-01
 Coeff-Com: -0.118D+01 0.218D+01
 Coeff-En:   0.000D+00 0.100D+01
 Coeff:     -0.104D+01 0.204D+01
 Gap=     0.032 Goal=   None    Shift=    0.000
 Gap=     0.029 Goal=   None    Shift=    0.000
 RMSDP=8.80D-03 MaxDP=8.81D-01 DE=-1.42D-02 OVMax= 3.65D-01

 Cycle   3  Pass 1  IDiag  1:
 E= -1136.10763910051     Delta-E=       -0.016753490735 Rises=F Damp=F
 DIIS: error= 6.34D-03 at cycle   3 NSaved=   3.
 NSaved= 3 IEnMin= 3 EnMin= -1136.10763910051     IErMin= 3 ErrMin= 6.34D-03
 ErrMax= 6.34D-03  0.00D+00 EMaxC= 1.00D-01 BMatC= 1.05D-02 BMatP= 7.30D-02
 IDIUse=3 WtCom= 9.37D-01 WtEn= 6.34D-02
 Coeff-Com: -0.453D+00 0.813D+00 0.640D+00
 Coeff-En:   0.000D+00 0.000D+00 0.100D+01
 Coeff:     -0.424D+00 0.761D+00 0.663D+00
 Gap=     0.028 Goal=   None    Shift=    0.000
 Gap=     0.029 Goal=   None    Shift=    0.000
 RMSDP=5.00D-03 MaxDP=3.12D-01 DE=-1.68D-02 OVMax= 2.26D-01

 Cycle   4  Pass 1  IDiag  1:
 E= -1136.10727654732     Delta-E=        0.000362553189 Rises=F Damp=F
 DIIS: error= 4.88D-03 at cycle   4 NSaved=   4.
 NSaved= 4 IEnMin= 3 EnMin= -1136.10763910051     IErMin= 4 ErrMin= 4.88D-03
 ErrMax= 4.88D-03  0.00D+00 EMaxC= 1.00D-01 BMatC= 9.03D-03 BMatP= 1.05D-02
 IDIUse=3 WtCom= 9.51D-01 WtEn= 4.88D-02
 Coeff-Com: -0.441D-01 0.804D-01 0.472D+00 0.492D+00
 Coeff-En:   0.000D+00 0.000D+00 0.507D+00 0.493D+00
 Coeff:     -0.420D-01 0.764D-01 0.473D+00 0.492D+00
 Gap=     0.030 Goal=   None    Shift=    0.000
 Gap=     0.026 Goal=   None    Shift=    0.000
 RMSDP=2.84D-03 MaxDP=1.62D-01 DE= 3.63D-04 OVMax= 1.71D-01

 Cycle   5  Pass 1  IDiag  1:
 E= -1136.11540508098     Delta-E=       -0.008128533656 Rises=F Damp=F
 DIIS: error= 3.01D-03 at cycle   5 NSaved=   5.
 NSaved= 5 IEnMin= 5 EnMin= -1136.11540508098     IErMin= 5 ErrMin= 3.01D-03
 ErrMax= 3.01D-03  0.00D+00 EMaxC= 1.00D-01 BMatC= 2.06D-03 BMatP= 9.03D-03
 IDIUse=3 WtCom= 9.70D-01 WtEn= 3.01D-02
 Coeff-Com:  0.458D-02-0.736D-02 0.294D+00 0.367D+00 0.342D+00
 Coeff-En:   0.000D+00 0.000D+00 0.000D+00 0.234D+00 0.766D+00
 Coeff:      0.445D-02-0.714D-02 0.285D+00 0.363D+00 0.355D+00
 Gap=     0.031 Goal=   None    Shift=    0.000
 Gap=     0.028 Goal=   None    Shift=    0.000
 RMSDP=1.20D-03 MaxDP=6.08D-02 DE=-8.13D-03 OVMax= 6.33D-02

 Cycle   6  Pass 1  IDiag  1:
 E= -1136.11814164445     Delta-E=       -0.002736563473 Rises=F Damp=F
 DIIS: error= 3.23D-04 at cycle   6 NSaved=   6.
 NSaved= 6 IEnMin= 6 EnMin= -1136.11814164445     IErMin= 6 ErrMin= 3.23D-04
 ErrMax= 3.23D-04  0.00D+00 EMaxC= 1.00D-01 BMatC= 2.44D-05 BMatP= 2.06D-03
 IDIUse=3 WtCom= 9.97D-01 WtEn= 3.23D-03
 Coeff-Com: -0.329D-02 0.359D-02-0.319D-01-0.400D-01 0.584D-01 0.101D+01
 Coeff-En:   0.000D+00 0.000D+00 0.000D+00 0.000D+00 0.000D+00 0.100D+01
 Coeff:     -0.328D-02 0.358D-02-0.318D-01-0.399D-01 0.582D-01 0.101D+01
 Gap=     0.031 Goal=   None    Shift=    0.000
 Gap=     0.028 Goal=   None    Shift=    0.000
 RMSDP=4.37D-04 MaxDP=2.41D-02 DE=-2.74D-03 OVMax= 1.51D-02

 Cycle   7  Pass 1  IDiag  1:
 E= -1136.11820549086     Delta-E=       -0.000063846407 Rises=F Damp=F
 DIIS: error= 8.64D-05 at cycle   7 NSaved=   7.
 NSaved= 7 IEnMin= 7 EnMin= -1136.11820549086     IErMin= 7 ErrMin= 8.64D-05
 ErrMax= 8.64D-05  0.00D+00 EMaxC= 1.00D-01 BMatC= 3.73D-06 BMatP= 2.44D-05
 IDIUse=1 WtCom= 1.00D+00 WtEn= 0.00D+00
 Coeff-Com: -0.440D-03 0.302D-03-0.213D-01-0.303D-01 0.402D-02 0.302D+00
 Coeff-Com:  0.746D+00
 Coeff:     -0.440D-03 0.302D-03-0.213D-01-0.303D-01 0.402D-02 0.302D+00
 Coeff:      0.746D+00
 Gap=     0.031 Goal=   None    Shift=    0.000
 Gap=     0.029 Goal=   None    Shift=    0.000
 RMSDP=1.53D-04 MaxDP=8.00D-03 DE=-6.38D-05 OVMax= 8.80D-03

 Cycle   8  Pass 1  IDiag  1:
 E= -1136.11822422269     Delta-E=       -0.000018731833 Rises=F Damp=F
 DIIS: error= 8.22D-05 at cycle   8 NSaved=   8.
 NSaved= 8 IEnMin= 8 EnMin= -1136.11822422269     IErMin= 8 ErrMin= 8.22D-05
 ErrMax= 8.22D-05  0.00D+00 EMaxC= 1.00D-01 BMatC= 1.92D-06 BMatP= 3.73D-06
 IDIUse=1 WtCom= 1.00D+00 WtEn= 0.00D+00
 Coeff-Com:  0.126D-02-0.168D-02-0.322D-02-0.609D-02-0.167D-01-0.143D+00
 Coeff-Com:  0.343D+00 0.826D+00
 Coeff:      0.126D-02-0.168D-02-0.322D-02-0.609D-02-0.167D-01-0.143D+00
 Coeff:      0.343D+00 0.826D+00
 Gap=     0.031 Goal=   None    Shift=    0.000
 Gap=     0.029 Goal=   None    Shift=    0.000
 RMSDP=1.68D-04 MaxDP=7.83D-03 DE=-1.87D-05 OVMax= 1.34D-02

 Cycle   9  Pass 1  IDiag  1:
 E= -1136.11824391724     Delta-E=       -0.000019694550 Rises=F Damp=F
 DIIS: error= 8.35D-05 at cycle   9 NSaved=   9.
 NSaved= 9 IEnMin= 9 EnMin= -1136.11824391724     IErMin= 8 ErrMin= 8.22D-05
 ErrMax= 8.35D-05  0.00D+00 EMaxC= 1.00D-01 BMatC= 1.32D-06 BMatP= 1.92D-06
 IDIUse=1 WtCom= 1.00D+00 WtEn= 0.00D+00
 Coeff-Com:  0.965D-03-0.123D-02 0.306D-02 0.344D-02-0.106D-01-0.137D+00
 Coeff-Com: -0.950D-01 0.435D+00 0.801D+00
 Coeff:      0.965D-03-0.123D-02 0.306D-02 0.344D-02-0.106D-01-0.137D+00
 Coeff:     -0.950D-01 0.435D+00 0.801D+00
 Gap=     0.031 Goal=   None    Shift=    0.000
 Gap=     0.029 Goal=   None    Shift=    0.000
 RMSDP=1.46D-04 MaxDP=7.23D-03 DE=-1.97D-05 OVMax= 1.27D-02

 Cycle  10  Pass 1  IDiag  1:
 E= -1136.11826193637     Delta-E=       -0.000018019128 Rises=F Damp=F
 DIIS: error= 8.20D-05 at cycle  10 NSaved=  10.
 NSaved=10 IEnMin=10 EnMin= -1136.11826193637     IErMin=10 ErrMin= 8.20D-05
 ErrMax= 8.20D-05  0.00D+00 EMaxC= 1.00D-01 BMatC= 9.84D-07 BMatP= 1.32D-06
 IDIUse=1 WtCom= 1.00D+00 WtEn= 0.00D+00
 Coeff-Com:  0.424D-03-0.538D-03 0.240D-02 0.125D-02-0.102D-02-0.270D-01
 Coeff-Com: -0.666D-01 0.691D-01 0.647D-01 0.957D+00
 Coeff:      0.424D-03-0.538D-03 0.240D-02 0.125D-02-0.102D-02-0.270D-01
 Coeff:     -0.666D-01 0.691D-01 0.647D-01 0.957D+00
 Gap=     0.031 Goal=   None    Shift=    0.000
 Gap=     0.029 Goal=   None    Shift=    0.000
 RMSDP=1.30D-04 MaxDP=5.72D-03 DE=-1.80D-05 OVMax= 1.20D-02

 Cycle  11  Pass 1  IDiag  1:
 E= -1136.11827912436     Delta-E=       -0.000017187991 Rises=F Damp=F
 DIIS: error= 8.71D-05 at cycle  11 NSaved=  11.
 NSaved=11 IEnMin=11 EnMin= -1136.11827912436     IErMin=10 ErrMin= 8.20D-05
 ErrMax= 8.71D-05  0.00D+00 EMaxC= 1.00D-01 BMatC= 1.03D-06 BMatP= 9.84D-07
 IDIUse=1 WtCom= 1.00D+00 WtEn= 0.00D+00
 Coeff-Com:  0.440D-03-0.552D-03 0.289D-02 0.182D-02-0.115D-02-0.312D-01
 Coeff-Com: -0.899D-01 0.547D-01 0.123D+00 0.118D+01-0.238D+00
 Coeff:      0.440D-03-0.552D-03 0.289D-02 0.182D-02-0.115D-02-0.312D-01
 Coeff:     -0.899D-01 0.547D-01 0.123D+00 0.118D+01-0.238D+00
 Gap=     0.031 Goal=   None    Shift=    0.000
 Gap=     0.029 Goal=   None    Shift=    0.000
 RMSDP=2.69D-05 MaxDP=1.17D-03 DE=-1.72D-05 OVMax= 2.44D-03

 Cycle  12  Pass 1  IDiag  1:
 E= -1136.11827545165     Delta-E=        0.000003672711 Rises=F Damp=F
 DIIS: error= 8.53D-05 at cycle  12 NSaved=  12.
 NSaved=12 IEnMin=11 EnMin= -1136.11827912436     IErMin=10 ErrMin= 8.20D-05
 ErrMax= 8.53D-05  0.00D+00 EMaxC= 1.00D-01 BMatC= 1.01D-06 BMatP= 9.84D-07
 IDIUse=1 WtCom= 1.00D+00 WtEn= 0.00D+00
 Large coefficients: NSaved= 12 BigCof=   18.10 CofMax=   10.00 Det=-6.38D-10
 Inversion failed.  Reducing to 11 matrices.
 Large coefficients: NSaved= 11 BigCof=   18.04 CofMax=   10.00 Det=-6.46D-10
 Inversion failed.  Reducing to 10 matrices.
 Large coefficients: NSaved= 10 BigCof=   18.01 CofMax=   10.00 Det=-6.51D-10
 Inversion failed.  Reducing to  9 matrices.
 Large coefficients: NSaved=  9 BigCof=   18.00 CofMax=   10.00 Det=-6.52D-10
 Inversion failed.  Reducing to  8 matrices.
 Large coefficients: NSaved=  8 BigCof=   13.07 CofMax=   10.00 Det=-7.76D-10
 Inversion failed.  Reducing to  7 matrices.
 Large coefficients: NSaved=  7 BigCof=   10.91 CofMax=   10.00 Det=-9.40D-10
 Inversion failed.  Reducing to  6 matrices.
 Large coefficients: NSaved=  6 BigCof=   10.88 CofMax=   10.00 Det=-9.40D-10
 Inversion failed.  Reducing to  5 matrices.
 Large coefficients: NSaved=  5 BigCof=   10.21 CofMax=   10.00 Det=-9.64D-10
 Inversion failed.  Reducing to  4 matrices.
 Coeff-Com: -0.282D+00 0.113D+01-0.979D+01 0.994D+01
 Coeff:     -0.282D+00 0.113D+01-0.979D+01 0.994D+01
 Gap=     0.031 Goal=   None    Shift=    0.000
 Gap=     0.029 Goal=   None    Shift=    0.000
 RMSDP=2.20D-04 MaxDP=1.08D-02 DE= 3.67D-06 OVMax= 1.97D-02

 Cycle  13  Pass 1  IDiag  1:
 E= -1136.11824906300     Delta-E=        0.000026388645 Rises=F Damp=F
 DIIS: error= 9.42D-05 at cycle  13 NSaved=   5.
 NSaved= 5 IEnMin= 3 EnMin= -1136.11827912436     IErMin= 2 ErrMin= 8.20D-05
 ErrMax= 9.42D-05  0.00D+00 EMaxC= 1.00D-01 BMatC= 1.09D-06 BMatP= 9.84D-07
 IDIUse=1 WtCom= 1.00D+00 WtEn= 0.00D+00
 Large coefficients: NSaved=  5 BigCof=   13.15 CofMax=   10.00 Det=-1.02D-09
 Inversion failed.  Reducing to  4 matrices.
 Coeff-Com:  0.813D+00-0.982D+01 0.953D+01 0.473D+00
 Coeff:      0.813D+00-0.982D+01 0.953D+01 0.473D+00
 Gap=     0.031 Goal=   None    Shift=    0.000
 Gap=     0.029 Goal=   None    Shift=    0.000
 RMSDP=1.51D-04 MaxDP=6.39D-03 DE= 2.64D-05 OVMax= 1.26D-02

 Cycle  14  Pass 1  IDiag  1:
 E= -1136.11823439813     Delta-E=        0.000014664877 Rises=F Damp=F
 DIIS: error= 6.80D-05 at cycle  14 NSaved=   5.
 NSaved= 5 IEnMin= 2 EnMin= -1136.11827912436     IErMin= 5 ErrMin= 6.80D-05
 ErrMax= 6.80D-05  0.00D+00 EMaxC= 1.00D-01 BMatC= 8.03D-07 BMatP= 9.84D-07
 IDIUse=1 WtCom= 1.00D+00 WtEn= 0.00D+00
 Coeff-Com: -0.136D+01-0.190D+01 0.205D+01 0.725D+00 0.150D+01
 Coeff:     -0.136D+01-0.190D+01 0.205D+01 0.725D+00 0.150D+01
 Gap=     0.031 Goal=   None    Shift=    0.000
 Gap=     0.029 Goal=   None    Shift=    0.000
 RMSDP=2.61D-04 MaxDP=1.58D-02 DE= 1.47D-05 OVMax= 1.93D-02

 Cycle  15  Pass 1  IDiag  1:
 E= -1136.11822329782     Delta-E=        0.000011100306 Rises=F Damp=F
 DIIS: error= 5.43D-05 at cycle  15 NSaved=   6.
 NSaved= 6 IEnMin= 2 EnMin= -1136.11827912436     IErMin= 6 ErrMin= 5.43D-05
 ErrMax= 5.43D-05  0.00D+00 EMaxC= 1.00D-01 BMatC= 6.18D-07 BMatP= 8.03D-07
 IDIUse=1 WtCom= 1.00D+00 WtEn= 0.00D+00
 Coeff-Com: -0.254D+01 0.694D+01-0.643D+01 0.475D+00 0.163D+01 0.923D+00
 Coeff:     -0.254D+01 0.694D+01-0.643D+01 0.475D+00 0.163D+01 0.923D+00
 Gap=     0.031 Goal=   None    Shift=    0.000
 Gap=     0.029 Goal=   None    Shift=    0.000
 RMSDP=2.92D-04 MaxDP=1.76D-02 DE= 1.11D-05 OVMax= 2.12D-02

 Cycle  16  Pass 1  IDiag  1:
 E= -1136.11822061797     Delta-E=        0.000002679844 Rises=F Damp=F
 DIIS: error= 3.49D-05 at cycle  16 NSaved=   7.
 NSaved= 7 IEnMin= 2 EnMin= -1136.11827912436     IErMin= 7 ErrMin= 3.49D-05
 ErrMax= 3.49D-05  0.00D+00 EMaxC= 1.00D-01 BMatC= 2.52D-07 BMatP= 6.18D-07
 IDIUse=1 WtCom= 1.00D+00 WtEn= 0.00D+00
 Coeff-Com:  0.373D+00 0.163D+01-0.183D+01-0.107D+00-0.361D+00 0.376D-01
 Coeff-Com:  0.126D+01
 Coeff:      0.373D+00 0.163D+01-0.183D+01-0.107D+00-0.361D+00 0.376D-01
 Coeff:      0.126D+01
 Gap=     0.031 Goal=   None    Shift=    0.000
 Gap=     0.029 Goal=   None    Shift=    0.000
 RMSDP=1.42D-04 MaxDP=8.54D-03 DE= 2.68D-06 OVMax= 1.12D-02

 Cycle  17  Pass 1  IDiag  1:
 E= -1136.11822403844     Delta-E=       -0.000003420468 Rises=F Damp=F
 DIIS: error= 3.00D-05 at cycle  17 NSaved=   8.
 NSaved= 8 IEnMin= 2 EnMin= -1136.11827912436     IErMin= 8 ErrMin= 3.00D-05
 ErrMax= 3.00D-05  0.00D+00 EMaxC= 1.00D-01 BMatC= 1.75D-07 BMatP= 2.52D-07
 IDIUse=1 WtCom= 1.00D+00 WtEn= 0.00D+00
 Coeff-Com:  0.124D+01 0.104D+01-0.141D+01-0.296D+00-0.761D+00-0.555D+00
 Coeff-Com:  0.131D+00 0.162D+01
 Coeff:      0.124D+01 0.104D+01-0.141D+01-0.296D+00-0.761D+00-0.555D+00
 Coeff:      0.131D+00 0.162D+01
 Gap=     0.031 Goal=   None    Shift=    0.000
 Gap=     0.029 Goal=   None    Shift=    0.000
 RMSDP=2.34D-04 MaxDP=1.53D-02 DE=-3.42D-06 OVMax= 1.99D-02

 Cycle  18  Pass 1  IDiag  1:
 E= -1136.11822953260     Delta-E=       -0.000005494157 Rises=F Damp=F
 DIIS: error= 1.80D-05 at cycle  18 NSaved=   9.
 NSaved= 9 IEnMin= 2 EnMin= -1136.11827912436     IErMin= 9 ErrMin= 1.80D-05
 ErrMax= 1.80D-05  0.00D+00 EMaxC= 1.00D-01 BMatC= 1.30D-07 BMatP= 1.75D-07
 IDIUse=1 WtCom= 1.00D+00 WtEn= 0.00D+00
 Coeff-Com:  0.311D+00 0.168D+01-0.188D+01 0.143D-02 0.271D-01-0.318D+00
 Coeff-Com: -0.114D+01 0.136D+01 0.963D+00
 Coeff:      0.311D+00 0.168D+01-0.188D+01 0.143D-02 0.271D-01-0.318D+00
 Coeff:     -0.114D+01 0.136D+01 0.963D+00
 Gap=     0.031 Goal=   None    Shift=    0.000
 Gap=     0.029 Goal=   None    Shift=    0.000
 RMSDP=1.88D-04 MaxDP=1.24D-02 DE=-5.49D-06 OVMax= 1.67D-02

 Cycle  19  Pass 1  IDiag  1:
 E= -1136.11823233239     Delta-E=       -0.000002799789 Rises=F Damp=F
 DIIS: error= 7.81D-06 at cycle  19 NSaved=  10.
 NSaved=10 IEnMin= 2 EnMin= -1136.11827912436     IErMin=10 ErrMin= 7.81D-06
 ErrMax= 7.81D-06  0.00D+00 EMaxC= 1.00D-01 BMatC= 2.39D-08 BMatP= 1.30D-07
 IDIUse=1 WtCom= 1.00D+00 WtEn= 0.00D+00
 Coeff-Com: -0.601D+00 0.532D+00-0.301D+00 0.153D+00 0.312D+00 0.168D+00
 Coeff-Com: -0.553D+00 0.676D-02 0.231D+00 0.105D+01
 Coeff:     -0.601D+00 0.532D+00-0.301D+00 0.153D+00 0.312D+00 0.168D+00
 Coeff:     -0.553D+00 0.676D-02 0.231D+00 0.105D+01
 Gap=     0.031 Goal=   None    Shift=    0.000
 Gap=     0.029 Goal=   None    Shift=    0.000
 RMSDP=8.58D-05 MaxDP=6.49D-03 DE=-2.80D-06 OVMax= 7.92D-03

 Cycle  20  Pass 1  IDiag  1:
 E= -1136.11823292139     Delta-E=       -0.000000589003 Rises=F Damp=F
 DIIS: error= 3.23D-06 at cycle  20 NSaved=  11.
 NSaved=11 IEnMin= 2 EnMin= -1136.11827912436     IErMin=11 ErrMin= 3.23D-06
 ErrMax= 3.23D-06  0.00D+00 EMaxC= 1.00D-01 BMatC= 5.44D-09 BMatP= 2.39D-08
 IDIUse=1 WtCom= 1.00D+00 WtEn= 0.00D+00
 Coeff-Com: -0.343D-01-0.447D+00 0.466D+00 0.261D-01-0.191D-01 0.387D-01
 Coeff-Com:  0.882D-01-0.202D+00-0.111D+00 0.197D+00 0.998D+00
 Coeff:     -0.343D-01-0.447D+00 0.466D+00 0.261D-01-0.191D-01 0.387D-01
 Coeff:      0.882D-01-0.202D+00-0.111D+00 0.197D+00 0.998D+00
 Gap=     0.031 Goal=   None    Shift=    0.000
 Gap=     0.029 Goal=   None    Shift=    0.000
 RMSDP=4.12D-05 MaxDP=2.96D-03 DE=-5.89D-07 OVMax= 3.25D-03

 Cycle  21  Pass 1  IDiag  1:
 E= -1136.11823300908     Delta-E=       -0.000000087692 Rises=F Damp=F
 DIIS: error= 1.78D-06 at cycle  21 NSaved=  12.
 NSaved=12 IEnMin= 2 EnMin= -1136.11827912436     IErMin=12 ErrMin= 1.78D-06
 ErrMax= 1.78D-06  0.00D+00 EMaxC= 1.00D-01 BMatC= 1.42D-09 BMatP= 5.44D-09
 IDIUse=1 WtCom= 1.00D+00 WtEn= 0.00D+00
 Coeff-Com:  0.186D+00-0.114D+00 0.493D-01-0.388D-01-0.112D+00-0.595D-01
 Coeff-Com:  0.179D+00-0.512D-01-0.474D-01-0.226D+00 0.158D+00 0.108D+01
 Coeff:      0.186D+00-0.114D+00 0.493D-01-0.388D-01-0.112D+00-0.595D-01
 Coeff:      0.179D+00-0.512D-01-0.474D-01-0.226D+00 0.158D+00 0.108D+01
 Gap=     0.031 Goal=   None    Shift=    0.000
 Gap=     0.029 Goal=   None    Shift=    0.000
 RMSDP=1.73D-05 MaxDP=1.29D-03 DE=-8.77D-08 OVMax= 1.46D-03

 Cycle  22  Pass 1  IDiag  1:
 E= -1136.11823302391     Delta-E=       -0.000000014823 Rises=F Damp=F
 DIIS: error= 1.13D-06 at cycle  22 NSaved=  13.
 NSaved=13 IEnMin= 2 EnMin= -1136.11827912436     IErMin=13 ErrMin= 1.13D-06
 ErrMax= 1.13D-06  0.00D+00 EMaxC= 1.00D-01 BMatC= 4.36D-10 BMatP= 1.42D-09
 IDIUse=1 WtCom= 1.00D+00 WtEn= 0.00D+00
 Coeff-Com: -0.240D-01 0.110D+00-0.114D+00 0.264D-02 0.211D-01 0.113D-01
 Coeff-Com:  0.334D-01-0.293D-01-0.250D-02-0.835D-01-0.924D-01 0.346D+00
 Coeff-Com:  0.821D+00
 Coeff:     -0.240D-01 0.110D+00-0.114D+00 0.264D-02 0.211D-01 0.113D-01
 Coeff:      0.334D-01-0.293D-01-0.250D-02-0.835D-01-0.924D-01 0.346D+00
 Coeff:      0.821D+00
 Gap=     0.031 Goal=   None    Shift=    0.000
 Gap=     0.029 Goal=   None    Shift=    0.000
 RMSDP=3.62D-06 MaxDP=1.71D-04 DE=-1.48D-08 OVMax= 2.01D-04

 Cycle  23  Pass 1  IDiag  1:
 E= -1136.11823302550     Delta-E=       -0.000000001591 Rises=F Damp=F
 DIIS: error= 7.60D-07 at cycle  23 NSaved=  14.
 NSaved=14 IEnMin= 2 EnMin= -1136.11827912436     IErMin=14 ErrMin= 7.60D-07
 ErrMax= 7.60D-07  0.00D+00 EMaxC= 1.00D-01 BMatC= 2.33D-10 BMatP= 4.36D-10
 IDIUse=1 WtCom= 1.00D+00 WtEn= 0.00D+00
 Coeff-Com: -0.391D-01 0.737D-01-0.615D-01 0.568D-02 0.253D-01 0.112D-01
 Coeff-Com: -0.156D-01 0.268D-02 0.863D-02 0.905D-03-0.929D-01-0.451D-01
 Coeff-Com:  0.508D+00 0.618D+00
 Coeff:     -0.391D-01 0.737D-01-0.615D-01 0.568D-02 0.253D-01 0.112D-01
 Coeff:     -0.156D-01 0.268D-02 0.863D-02 0.905D-03-0.929D-01-0.451D-01
 Coeff:      0.508D+00 0.618D+00
 Gap=     0.031 Goal=   None    Shift=    0.000
 Gap=     0.029 Goal=   None    Shift=    0.000
 RMSDP=1.89D-06 MaxDP=9.15D-05 DE=-1.59D-09 OVMax= 1.17D-04

 Cycle  24  Pass 1  IDiag  1:
 E= -1136.11823302615     Delta-E=       -0.000000000652 Rises=F Damp=F
 DIIS: error= 3.97D-07 at cycle  24 NSaved=  15.
 NSaved=15 IEnMin= 2 EnMin= -1136.11827912436     IErMin=15 ErrMin= 3.97D-07
 ErrMax= 3.97D-07  0.00D+00 EMaxC= 1.00D-01 BMatC= 3.36D-11 BMatP= 2.33D-10
 IDIUse=1 WtCom= 1.00D+00 WtEn= 0.00D+00
 Coeff-Com: -0.421D-02-0.328D-01 0.349D-01 0.230D-02 0.300D-02 0.905D-03
 Coeff-Com: -0.174D-01 0.633D-02 0.131D-02 0.344D-01 0.560D-02-0.127D+00
 Coeff-Com: -0.130D+00 0.745D-01 0.115D+01
 Coeff:     -0.421D-02-0.328D-01 0.349D-01 0.230D-02 0.300D-02 0.905D-03
 Coeff:     -0.174D-01 0.633D-02 0.131D-02 0.344D-01 0.560D-02-0.127D+00
 Coeff:     -0.130D+00 0.745D-01 0.115D+01
 Gap=     0.031 Goal=   None    Shift=    0.000
 Gap=     0.029 Goal=   None    Shift=    0.000
 RMSDP=1.74D-06 MaxDP=1.20D-04 DE=-6.52D-10 OVMax= 1.24D-04

 Cycle  25  Pass 1  IDiag  1:
 E= -1136.11823302651     Delta-E=       -0.000000000364 Rises=F Damp=F
 DIIS: error= 2.45D-07 at cycle  25 NSaved=  16.
 NSaved=16 IEnMin= 2 EnMin= -1136.11827912436     IErMin=16 ErrMin= 2.45D-07
 ErrMax= 2.45D-07  0.00D+00 EMaxC= 1.00D-01 BMatC= 1.20D-11 BMatP= 3.36D-11
 IDIUse=1 WtCom= 1.00D+00 WtEn= 0.00D+00
 Coeff-Com:  0.182D-01-0.239D-01 0.187D-01-0.455D-02-0.105D-01-0.502D-02
 Coeff-Com:  0.775D-02 0.168D-02-0.205D-02-0.835D-02 0.217D-01 0.134D-01
 Coeff-Com: -0.914D-01-0.223D+00-0.882D-03 0.129D+01
 Coeff:      0.182D-01-0.239D-01 0.187D-01-0.455D-02-0.105D-01-0.502D-02
 Coeff:      0.775D-02 0.168D-02-0.205D-02-0.835D-02 0.217D-01 0.134D-01
 Coeff:     -0.914D-01-0.223D+00-0.882D-03 0.129D+01
 Gap=     0.031 Goal=   None    Shift=    0.000
 Gap=     0.029 Goal=   None    Shift=    0.000
 RMSDP=8.77D-07 MaxDP=3.89D-05 DE=-3.64D-10 OVMax= 4.06D-05

 Cycle  26  Pass 1  IDiag  1:
 E= -1136.11823302665     Delta-E=       -0.000000000134 Rises=F Damp=F
 DIIS: error= 1.13D-07 at cycle  26 NSaved=  17.
 NSaved=17 IEnMin= 2 EnMin= -1136.11827912436     IErMin=17 ErrMin= 1.13D-07
 ErrMax= 1.13D-07  0.00D+00 EMaxC= 1.00D-01 BMatC= 3.65D-12 BMatP= 1.20D-11
 IDIUse=1 WtCom= 1.00D+00 WtEn= 0.00D+00
 Coeff-Com:  0.116D-02 0.633D-02-0.578D-02-0.768D-03-0.211D-02-0.438D-03
 Coeff-Com:  0.558D-02-0.329D-02-0.125D-03-0.709D-02 0.110D-01 0.292D-01
 Coeff-Com: -0.452D-01-0.457D-01-0.239D+00 0.242D+00 0.105D+01
 Coeff:      0.116D-02 0.633D-02-0.578D-02-0.768D-03-0.211D-02-0.438D-03
 Coeff:      0.558D-02-0.329D-02-0.125D-03-0.709D-02 0.110D-01 0.292D-01
 Coeff:     -0.452D-01-0.457D-01-0.239D+00 0.242D+00 0.105D+01
 Gap=     0.031 Goal=   None    Shift=    0.000
 Gap=     0.029 Goal=   None    Shift=    0.000
 RMSDP=5.84D-07 MaxDP=2.96D-05 DE=-1.34D-10 OVMax= 2.41D-05

 Cycle  27  Pass 1  IDiag  1:
 E= -1136.11823302666     Delta-E=       -0.000000000013 Rises=F Damp=F
 DIIS: error= 4.24D-08 at cycle  27 NSaved=  18.
 NSaved=18 IEnMin= 2 EnMin= -1136.11827912436     IErMin=18 ErrMin= 4.24D-08
 ErrMax= 4.24D-08  0.00D+00 EMaxC= 1.00D-01 BMatC= 7.20D-13 BMatP= 3.65D-12
 IDIUse=1 WtCom= 1.00D+00 WtEn= 0.00D+00
 Coeff-Com: -0.681D-02 0.123D-01-0.988D-02 0.116D-02 0.376D-02 0.205D-02
 Coeff-Com: -0.191D-02-0.144D-02 0.136D-03 0.207D-02-0.248D-03 0.193D-02
 Coeff-Com: -0.160D-02 0.411D-01-0.538D-01-0.182D+00 0.182D+00 0.101D+01
 Coeff:     -0.681D-02 0.123D-01-0.988D-02 0.116D-02 0.376D-02 0.205D-02
 Coeff:     -0.191D-02-0.144D-02 0.136D-03 0.207D-02-0.248D-03 0.193D-02
 Coeff:     -0.160D-02 0.411D-01-0.538D-01-0.182D+00 0.182D+00 0.101D+01
 Gap=     0.031 Goal=   None    Shift=    0.000
 Gap=     0.029 Goal=   None    Shift=    0.000
 RMSDP=3.21D-07 MaxDP=1.90D-05 DE=-1.27D-11 OVMax= 1.44D-05

 Cycle  28  Pass 1  IDiag  1:
 E= -1136.11823302667     Delta-E=       -0.000000000010 Rises=F Damp=F
 DIIS: error= 2.11D-08 at cycle  28 NSaved=  19.
 NSaved=19 IEnMin= 2 EnMin= -1136.11827912436     IErMin=19 ErrMin= 2.11D-08
 ErrMax= 2.11D-08  0.00D+00 EMaxC= 1.00D-01 BMatC= 1.48D-13 BMatP= 7.20D-13
 IDIUse=1 WtCom= 1.00D+00 WtEn= 0.00D+00
 Coeff-Com: -0.199D-03-0.230D-02 0.195D-02 0.284D-03 0.701D-03 0.667D-04
 Coeff-Com: -0.149D-02 0.809D-03-0.328D-03 0.182D-02-0.313D-02-0.551D-02
 Coeff-Com:  0.160D-01 0.958D-02 0.369D-01-0.680D-01-0.225D+00 0.151D+00
 Coeff-Com:  0.109D+01
 Coeff:     -0.199D-03-0.230D-02 0.195D-02 0.284D-03 0.701D-03 0.667D-04
 Coeff:     -0.149D-02 0.809D-03-0.328D-03 0.182D-02-0.313D-02-0.551D-02
 Coeff:      0.160D-01 0.958D-02 0.369D-01-0.680D-01-0.225D+00 0.151D+00
 Coeff:      0.109D+01
 Gap=     0.031 Goal=   None    Shift=    0.000
 Gap=     0.029 Goal=   None    Shift=    0.000
 RMSDP=9.64D-08 MaxDP=4.74D-06 DE=-1.00D-11 OVMax= 7.84D-06

 Cycle  29  Pass 1  IDiag  1:
 E= -1136.11823302668     Delta-E=       -0.000000000006 Rises=F Damp=F
 DIIS: error= 8.78D-09 at cycle  29 NSaved=  20.
 NSaved=20 IEnMin= 2 EnMin= -1136.11827912436     IErMin=20 ErrMin= 8.78D-09
 ErrMax= 8.78D-09  0.00D+00 EMaxC= 1.00D-01 BMatC= 3.71D-14 BMatP= 1.48D-13
 IDIUse=1 WtCom= 1.00D+00 WtEn= 0.00D+00
 Coeff-Com:  0.105D-02-0.284D-03-0.787D-04-0.175D-03-0.638D-03-0.395D-03
 Coeff-Com:  0.593D-03 0.165D-03 0.330D-03-0.103D-02-0.141D-02 0.193D-02
 Coeff-Com:  0.688D-02-0.389D-02-0.166D-01 0.163D-01 0.163D-01-0.508D-01
 Coeff-Com: -0.112D+00 0.114D+01
 Coeff:      0.105D-02-0.284D-03-0.787D-04-0.175D-03-0.638D-03-0.395D-03
 Coeff:      0.593D-03 0.165D-03 0.330D-03-0.103D-02-0.141D-02 0.193D-02
 Coeff:      0.688D-02-0.389D-02-0.166D-01 0.163D-01 0.163D-01-0.508D-01
 Coeff:     -0.112D+00 0.114D+01
 Gap=     0.031 Goal=   None    Shift=    0.000
 Gap=     0.029 Goal=   None    Shift=    0.000
 RMSDP=3.73D-08 MaxDP=2.62D-06 DE=-6.14D-12 OVMax= 2.77D-06

 Cycle  30  Pass 1  IDiag  1:
 E= -1136.11823302668     Delta-E=       -0.000000000003 Rises=F Damp=F
 DIIS: error= 3.78D-09 at cycle  30 NSaved=  20.
 NSaved=20 IEnMin= 2 EnMin= -1136.11827912436     IErMin=20 ErrMin= 3.78D-09
 ErrMax= 3.78D-09  0.00D+00 EMaxC= 1.00D-01 BMatC= 8.88D-15 BMatP= 3.71D-14
 IDIUse=1 WtCom= 1.00D+00 WtEn= 0.00D+00
 Large coefficients: NSaved= 20 BigCof=    0.00 CofMax=   10.00 Det=-7.63D-15
 Inversion failed.  Reducing to 19 matrices.
 Large coefficients: NSaved= 19 BigCof=    0.00 CofMax=   10.00 Det=-9.45D-15
 Inversion failed.  Reducing to 18 matrices.
 Large coefficients: NSaved= 18 BigCof=    0.00 CofMax=   10.00 Det=-9.46D-15
 Inversion failed.  Reducing to 17 matrices.
 Coeff-Com:  0.934D-05-0.546D-03 0.598D-03-0.840D-05-0.624D-04 0.850D-04
 Coeff-Com:  0.603D-03-0.180D-03-0.390D-02-0.119D-03 0.299D-02 0.901D-02
 Coeff-Com:  0.206D-01-0.534D-01-0.165D+00 0.158D+00 0.103D+01
 Coeff:      0.934D-05-0.546D-03 0.598D-03-0.840D-05-0.624D-04 0.850D-04
 Coeff:      0.603D-03-0.180D-03-0.390D-02-0.119D-03 0.299D-02 0.901D-02
 Coeff:      0.206D-01-0.534D-01-0.165D+00 0.158D+00 0.103D+01
 Gap=     0.031 Goal=   None    Shift=    0.000
 Gap=     0.029 Goal=   None    Shift=    0.000
 RMSDP=2.33D-08 MaxDP=1.81D-06 DE=-2.50D-12 OVMax= 1.50D-06

 Cycle  31  Pass 1  IDiag  1:
 E= -1136.11823302668     Delta-E=       -0.000000000001 Rises=F Damp=F
 DIIS: error= 1.57D-09 at cycle  31 NSaved=  18.
 NSaved=18 IEnMin= 2 EnMin= -1136.11827912436     IErMin=18 ErrMin= 1.57D-09
 ErrMax= 1.57D-09  0.00D+00 EMaxC= 1.00D-01 BMatC= 7.06D-16 BMatP= 8.88D-15
 IDIUse=1 WtCom= 1.00D+00 WtEn= 0.00D+00
 Large coefficients: NSaved= 18 BigCof=    0.00 CofMax=   10.00 Det=-1.19D-15
 Inversion failed.  Reducing to 17 matrices.
 Large coefficients: NSaved= 17 BigCof=    0.00 CofMax=   10.00 Det=-1.29D-15
 Inversion failed.  Reducing to 16 matrices.
 Large coefficients: NSaved= 16 BigCof=    0.00 CofMax=   10.00 Det=-1.82D-15
 Inversion failed.  Reducing to 15 matrices.
 Coeff-Com: -0.935D-04 0.143D-03-0.105D-03 0.120D-04 0.548D-04-0.259D-03
 Coeff-Com: -0.132D-04-0.116D-03 0.205D-02-0.141D-02-0.277D-02 0.678D-02
 Coeff-Com: -0.926D-01-0.231D-01 0.111D+01
 Coeff:     -0.935D-04 0.143D-03-0.105D-03 0.120D-04 0.548D-04-0.259D-03
 Coeff:     -0.132D-04-0.116D-03 0.205D-02-0.141D-02-0.277D-02 0.678D-02
 Coeff:     -0.926D-01-0.231D-01 0.111D+01
 Gap=     0.031 Goal=   None    Shift=    0.000
 Gap=     0.029 Goal=   None    Shift=    0.000
 RMSDP=7.58D-09 MaxDP=6.77D-07 DE=-1.36D-12 OVMax= 5.44D-07

 SCF Done:  E(UB3LYP) =  -1136.11823303     A.U. after   31 cycles
            NFock= 31  Conv=0.76D-08     -V/T= 2.0028
 <Sx>= 0.0000 <Sy>= 0.0000 <Sz>= 0.5000 <S**2>= 0.7708 S= 0.5104
 <L.S>= 0.000000000000E+00
 KE= 1.132941252363D+03 PE=-3.404756123299D+03 EE= 7.979504839744D+02
 Annihilation of the first spin contaminant:
 S**2 before annihilation     0.7708,   after     0.7503
 Leave Link  502 at Tue Dec  5 11:53:52 2023, MaxMem=  1879048192 cpu:             270.7 elap:              24.7
 (Enter /home/sekinelabo/g16/l601.exe)
 Copying SCF densities to generalized density rwf, IOpCl= 1 IROHF=0.

 **********************************************************************

            Population analysis using the SCF Density.

 **********************************************************************

 Orbital symmetries:
 Alpha Orbitals:
       Occupied  (A) (A) (A) (A) (A) (A) (A) (A) (A) (A) (A) (A)
                 (A) (A) (A) (A) (A) (A) (A) (A) (A) (A) (A) (A)
                 (A) (A) (A) (A) (A) (A) (A) (A) (A) (A) (A) (A)
                 (A) (A) (A)
       Virtual   (A) (A) (A) (A) (A) (A) (A) (A) (A) (A) (A) (A)
                 (A) (A) (A) (A) (A) (A) (A) (A) (A) (A) (A) (A)
                 (A) (A) (A) (A) (A) (A) (A) (A) (A) (A) (A) (A)
                 (A) (A) (A) (A) (A) (A) (A) (A) (A) (A) (A) (A)
                 (A) (A) (A) (A) (A) (A) (A) (A) (A) (A) (A) (A)
                 (A) (A) (A) (A) (A) (A) (A) (A) (A) (A) (A) (A)
                 (A) (A) (A) (A) (A) (A) (A) (A) (A) (A) (A) (A)
                 (A) (A) (A) (A) (A) (A) (A) (A) (A) (A) (A) (A)
                 (A) (A) (A) (A) (A) (A) (A) (A) (A) (A) (A) (A)
                 (A) (A) (A) (A) (A) (A) (A) (A) (A) (A) (A) (A)
                 (A) (A) (A) (A) (A) (A) (A) (A) (A) (A) (A) (A)
                 (A) (A) (A) (A) (A) (A) (A) (A) (A) (A) (A) (A)
                 (A) (A) (A) (A) (A) (A) (A) (A) (A) (A) (A) (A)
                 (A) (A) (A) (A) (A) (A) (A) (A) (A) (A) (A) (A)
                 (A) (A) (A)
 Beta  Orbitals:
       Occupied  (A) (A) (A) (A) (A) (A) (A) (A) (A) (A) (A) (A)
                 (A) (A) (A) (A) (A) (A) (A) (A) (A) (A) (A) (A)
                 (A) (A) (A) (A) (A) (A) (A) (A) (A) (A) (A) (A)
                 (A) (A)
       Virtual   (A) (A) (A) (A) (A) (A) (A) (A) (A) (A) (A) (A)
                 (A) (A) (A) (A) (A) (A) (A) (A) (A) (A) (A) (A)
                 (A) (A) (A) (A) (A) (A) (A) (A) (A) (A) (A) (A)
                 (A) (A) (A) (A) (A) (A) (A) (A) (A) (A) (A) (A)
                 (A) (A) (A) (A) (A) (A) (A) (A) (A) (A) (A) (A)
                 (A) (A) (A) (A) (A) (A) (A) (A) (A) (A) (A) (A)
                 (A) (A) (A) (A) (A) (A) (A) (A) (A) (A) (A) (A)
                 (A) (A) (A) (A) (A) (A) (A) (A) (A) (A) (A) (A)
                 (A) (A) (A) (A) (A) (A) (A) (A) (A) (A) (A) (A)
                 (A) (A) (A) (A) (A) (A) (A) (A) (A) (A) (A) (A)
                 (A) (A) (A) (A) (A) (A) (A) (A) (A) (A) (A) (A)
                 (A) (A) (A) (A) (A) (A) (A) (A) (A) (A) (A) (A)
                 (A) (A) (A) (A) (A) (A) (A) (A) (A) (A) (A) (A)
                 (A) (A) (A) (A) (A) (A) (A) (A) (A) (A) (A) (A)
                 (A) (A) (A) (A)
 The electronic state is 2-A.
 Alpha  occ. eigenvalues --  -38.45838 -38.44852 -38.44665 -38.43499 -38.43355
 Alpha  occ. eigenvalues --  -38.42850 -38.42680  -2.21682  -2.20707  -2.20469
 Alpha  occ. eigenvalues --   -2.19479  -2.19243  -2.18756  -2.18607  -1.15407
 Alpha  occ. eigenvalues --   -1.15333  -1.15284  -1.14376  -1.14345  -1.14335
 Alpha  occ. eigenvalues --   -1.14145  -1.14126  -1.14092  -1.13194  -1.13124
 Alpha  occ. eigenvalues --   -1.13089  -1.12918  -1.12899  -1.12885  -1.12451
 Alpha  occ. eigenvalues --   -1.12439  -1.12360  -1.12300  -1.12279  -1.12222
 Alpha  occ. eigenvalues --   -0.18895  -0.14590  -0.11251  -0.10558
 Alpha virt. eigenvalues --   -0.07476  -0.05021  -0.04704  -0.03165  -0.02954
 Alpha virt. eigenvalues --   -0.02112  -0.02108  -0.01211  -0.01010  -0.00225
 Alpha virt. eigenvalues --   -0.00047   0.00219   0.00276   0.00651   0.00758
 Alpha virt. eigenvalues --    0.00879   0.00929   0.01011   0.01175   0.01433
 Alpha virt. eigenvalues --    0.01490   0.01548   0.01794   0.01894   0.01950
 Alpha virt. eigenvalues --    0.02133   0.02274   0.02481   0.02556   0.02591
 Alpha virt. eigenvalues --    0.02667   0.02835   0.02864   0.02912   0.03016
 Alpha virt. eigenvalues --    0.03096   0.03208   0.03393   0.03701   0.03797
 Alpha virt. eigenvalues --    0.03901   0.04093   0.04270   0.04701   0.04854
 Alpha virt. eigenvalues --    0.05087   0.05207   0.05499   0.05540   0.05690
 Alpha virt. eigenvalues --    0.05860   0.06005   0.06225   0.06857   0.07247
 Alpha virt. eigenvalues --    0.07490   0.07517   0.07982   0.08218   0.08573
 Alpha virt. eigenvalues --    0.08823   0.08958   0.10436   0.11422   0.11717
 Alpha virt. eigenvalues --    0.11977   0.12267   0.12623   0.12762   0.12986
 Alpha virt. eigenvalues --    0.13339   0.13634   0.13679   0.14023   0.14391
 Alpha virt. eigenvalues --    0.14874   0.15084   0.15627   0.15859   0.16184
 Alpha virt. eigenvalues --    0.25252   0.26508   0.27395   0.27807   0.28015
 Alpha virt. eigenvalues --    0.29453   0.30925   0.31526   0.32304   0.33885
 Alpha virt. eigenvalues --    0.34416   0.34796   0.35737   0.36255   0.36426
 Alpha virt. eigenvalues --    0.38152   0.39191   0.40044   0.40541   0.42382
 Alpha virt. eigenvalues --    0.42969   0.44023   0.44192   0.44445   0.44539
 Alpha virt. eigenvalues --    0.45041   0.45177   0.45359   0.45808   0.45960
 Alpha virt. eigenvalues --    0.46494   0.46983   0.47315   0.48369   0.49265
 Alpha virt. eigenvalues --    0.49731   0.50215   0.51290   0.51529   0.51711
 Alpha virt. eigenvalues --    0.52898   0.53786   0.54684   0.56387   0.57432
 Alpha virt. eigenvalues --    0.58125   0.58404   0.59234   0.60149   0.61326
 Alpha virt. eigenvalues --    0.63185   0.63552   0.63974   0.64271   0.67018
 Alpha virt. eigenvalues --    0.68411   2.02990   2.11702   2.16748   2.20421
 Alpha virt. eigenvalues --    2.21544   2.24171   2.26165   4.42683   4.43203
 Alpha virt. eigenvalues --    4.43481   4.43965   4.44425   4.45101   4.45235
 Alpha virt. eigenvalues --    4.45828   4.46562   4.47282   4.47901   4.49362
 Alpha virt. eigenvalues --    4.50670   4.51253   4.52689   4.53770   4.55744
 Alpha virt. eigenvalues --    4.56829   4.58069   4.62330   4.63127  96.22109
 Alpha virt. eigenvalues --   96.33027  96.38826  96.43416  96.44694  96.48049
 Alpha virt. eigenvalues --   96.50721
  Beta  occ. eigenvalues --  -38.45816 -38.44805 -38.44646 -38.43434 -38.43329
  Beta  occ. eigenvalues --  -38.42847 -38.42663  -2.21642  -2.20617  -2.20434
  Beta  occ. eigenvalues --   -2.19366  -2.19200  -2.18753  -2.18582  -1.15368
  Beta  occ. eigenvalues --   -1.15306  -1.15254  -1.14319  -1.14281  -1.14273
  Beta  occ. eigenvalues --   -1.14120  -1.14100  -1.14068  -1.13122  -1.13036
  Beta  occ. eigenvalues --   -1.12992  -1.12888  -1.12877  -1.12819  -1.12449
  Beta  occ. eigenvalues --   -1.12429  -1.12348  -1.12274  -1.12231  -1.12210
  Beta  occ. eigenvalues --   -0.18183  -0.14248  -0.10381
  Beta virt. eigenvalues --   -0.07440  -0.07190  -0.04934  -0.04102  -0.02916
  Beta virt. eigenvalues --   -0.02688  -0.01604  -0.01458  -0.00980  -0.00754
  Beta virt. eigenvalues --   -0.00152   0.00015   0.00272   0.00401   0.00717
  Beta virt. eigenvalues --    0.00802   0.00940   0.00999   0.01093   0.01257
  Beta virt. eigenvalues --    0.01570   0.01595   0.01667   0.01842   0.01959
  Beta virt. eigenvalues --    0.02002   0.02172   0.02345   0.02535   0.02583
  Beta virt. eigenvalues --    0.02653   0.02716   0.02839   0.02941   0.03009
  Beta virt. eigenvalues --    0.03090   0.03139   0.03232   0.03476   0.03813
  Beta virt. eigenvalues --    0.03878   0.04016   0.04105   0.04428   0.04808
  Beta virt. eigenvalues --    0.04971   0.05192   0.05361   0.05604   0.05662
  Beta virt. eigenvalues --    0.05731   0.05964   0.06066   0.06284   0.06922
  Beta virt. eigenvalues --    0.07437   0.07522   0.07638   0.08086   0.08331
  Beta virt. eigenvalues --    0.08729   0.08985   0.09189   0.10645   0.11692
  Beta virt. eigenvalues --    0.12016   0.12202   0.12409   0.12847   0.13026
  Beta virt. eigenvalues --    0.13157   0.13476   0.13674   0.13880   0.14169
  Beta virt. eigenvalues --    0.14549   0.14945   0.15324   0.15934   0.16123
  Beta virt. eigenvalues --    0.16444   0.25484   0.26704   0.27523   0.28109
  Beta virt. eigenvalues --    0.28346   0.29782   0.31162   0.31846   0.32609
  Beta virt. eigenvalues --    0.34104   0.34710   0.35025   0.36043   0.36513
  Beta virt. eigenvalues --    0.36756   0.38446   0.39445   0.40427   0.40788
  Beta virt. eigenvalues --    0.42513   0.43211   0.44158   0.44292   0.44601
  Beta virt. eigenvalues --    0.44704   0.45180   0.45222   0.45490   0.45937
  Beta virt. eigenvalues --    0.46064   0.46649   0.47142   0.47517   0.48525
  Beta virt. eigenvalues --    0.49369   0.49854   0.50334   0.51487   0.51667
  Beta virt. eigenvalues --    0.51823   0.52988   0.53875   0.54979   0.56433
  Beta virt. eigenvalues --    0.57517   0.58242   0.58563   0.59440   0.60270
  Beta virt. eigenvalues --    0.61512   0.63310   0.63840   0.64057   0.64351
  Beta virt. eigenvalues --    0.67151   0.68624   2.03089   2.11820   2.16895
  Beta virt. eigenvalues --    2.20509   2.21598   2.24208   2.26396   4.42746
  Beta virt. eigenvalues --    4.43243   4.43531   4.44017   4.44492   4.45129
  Beta virt. eigenvalues --    4.45293   4.45871   4.46625   4.47314   4.47918
  Beta virt. eigenvalues --    4.49416   4.50706   4.51281   4.52763   4.53849
  Beta virt. eigenvalues --    4.55780   4.56856   4.58105   4.62386   4.63174
  Beta virt. eigenvalues --   96.22144  96.33065  96.38871  96.43450  96.44714
  Beta virt. eigenvalues --   96.48063  96.50795
          Condensed to atoms (all electrons):
               1          2          3          4          5          6
     1  Na  11.921797  -0.777293   0.249727   0.016445  -0.292862   0.344964
     2  Na  -0.777293  12.818183  -0.662266  -0.085587  -0.447947  -0.209764
     3  Na   0.249727  -0.662266  12.525550  -0.289894   0.056851  -0.255938
     4  Na   0.016445  -0.085587  -0.289894  10.853220   0.493920  -0.247125
     5  Na  -0.292862  -0.447947   0.056851   0.493920  11.785578  -0.467342
     6  Na   0.344964  -0.209764  -0.255938  -0.247125  -0.467342  11.154576
     7  Na   0.088901   0.556866  -0.358596  -0.129769  -0.287505   0.186247
               7
     1  Na   0.088901
     2  Na   0.556866
     3  Na  -0.358596
     4  Na  -0.129769
     5  Na  -0.287505
     6  Na   0.186247
     7  Na  10.977035
          Atomic-Atomic Spin Densities.
               1          2          3          4          5          6
     1  Na   0.653123  -0.877468   0.015915   0.147032   0.248467   0.188972
     2  Na  -0.877468   0.972576   0.114856   0.012540   0.125641  -0.270659
     3  Na   0.015915   0.114856   0.197879  -0.013137   0.008952  -0.196284
     4  Na   0.147032   0.012540  -0.013137   0.063002  -0.130397   0.041959
     5  Na   0.248467   0.125641   0.008952  -0.130397  -0.417539   0.119411
     6  Na   0.188972  -0.270659  -0.196284   0.041959   0.119411   0.376198
     7  Na  -0.157731   0.110545  -0.061159   0.031534   0.075844   0.002059
               7
     1  Na  -0.157731
     2  Na   0.110545
     3  Na  -0.061159
     4  Na   0.031534
     5  Na   0.075844
     6  Na   0.002059
     7  Na   0.080978
 Mulliken charges and spin densities:
               1          2
     1  Na  -0.551678   0.218310
     2  Na  -0.192191   0.188031
     3  Na  -0.265434   0.067022
     4  Na   0.388790   0.152534
     5  Na   0.159308   0.030379
     6  Na   0.494383   0.261655
     7  Na  -0.033178   0.082070
 Sum of Mulliken charges =  -0.00000   1.00000
 Mulliken charges and spin densities with hydrogens summed into heavy atoms:
               1          2
     1  Na  -0.551678   0.218310
     2  Na  -0.192191   0.188031
     3  Na  -0.265434   0.067022
     4  Na   0.388790   0.152534
     5  Na   0.159308   0.030379
     6  Na   0.494383   0.261655
     7  Na  -0.033178   0.082070
 Electronic spatial extent (au):  <R**2>=           2498.2514
 Charge=             -0.0000 electrons
 Dipole moment (field-independent basis, Debye):
    X=             -0.1629    Y=              0.2836    Z=              0.5829  Tot=              0.6684
 Quadrupole moment (field-independent basis, Debye-Ang):
   XX=            -49.5204   YY=            -78.4957   ZZ=            -67.6748
   XY=             -0.1137   XZ=              0.4879   YZ=              2.5241
 Traceless Quadrupole moment (field-independent basis, Debye-Ang):
   XX=             15.7099   YY=            -13.2654   ZZ=             -2.4445
   XY=             -0.1137   XZ=              0.4879   YZ=              2.5241
 Octapole moment (field-independent basis, Debye-Ang**2):
  XXX=            -11.8667  YYY=              2.4277  ZZZ=              9.1887  XYY=              0.7794
  XXY=             14.4401  XXZ=              1.4758  XZZ=              2.7273  YZZ=              0.6669
  YYZ=             -5.4791  XYZ=              2.1358
 Hexadecapole moment (field-independent basis, Debye-Ang**3):
 XXXX=          -2135.7086 YYYY=          -1125.7718 ZZZZ=           -732.5043 XXXY=             70.6479
 XXXZ=             28.2855 YYYX=            -65.0472 YYYZ=             21.4366 ZZZX=              4.2439
 ZZZY=             17.6044 XXYY=           -587.4868 XXZZ=           -557.9110 YYZZ=           -319.2225
 XXYZ=             17.8002 YYXZ=            -10.9884 ZZXY=             17.4011
 N-N= 3.377461539354D+02 E-N=-3.404756123667D+03  KE= 1.132941252363D+03
                          Isotropic Fermi Contact Couplings
        Atom                 a.u.       MegaHertz       Gauss      10(-4) cm-1
     1  Na(23)             0.06852      81.06102      28.92459      27.03905
     2  Na(23)             0.22184     262.44415      93.64660      87.54194
     3  Na(23)             0.00893      10.56136       3.76855       3.52289
     4  Na(23)             0.07947      94.01645      33.54741      31.36051
     5  Na(23)            -0.01854     -21.93855      -7.82822      -7.31791
     6  Na(23)             0.21059     249.13191      88.89646      83.10146
     7  Na(23)             0.05493      64.98582      23.18856      21.67694
 --------------------------------------------------------
       Center         ----  Spin Dipole Couplings  ----
                      3XX-RR        3YY-RR        3ZZ-RR
 --------------------------------------------------------
     1   Atom       -0.004839     -0.005800      0.010639
     2   Atom        0.022716     -0.007420     -0.015296
     3   Atom        0.001557     -0.002510      0.000952
     4   Atom       -0.003887      0.000992      0.002896
     5   Atom       -0.000784     -0.015046      0.015830
     6   Atom        0.000394     -0.000721      0.000328
     7   Atom        0.015329     -0.024053      0.008724
 --------------------------------------------------------
                        XY            XZ            YZ
 --------------------------------------------------------
     1   Atom        0.000959     -0.001605      0.011188
     2   Atom        0.001629     -0.019505      0.000315
     3   Atom        0.026013      0.022533      0.025863
     4   Atom        0.001878      0.002813      0.005694
     5   Atom       -0.004795     -0.014240      0.001874
     6   Atom       -0.004483     -0.006062      0.000933
     7   Atom       -0.003386      0.037044     -0.000841
 --------------------------------------------------------


 ---------------------------------------------------------------------------------
              Anisotropic Spin Dipole Couplings in Principal Axis System
 ---------------------------------------------------------------------------------

       Atom             a.u.   MegaHertz   Gauss  10(-4) cm-1        Axes

              Baa    -0.0118    -1.670    -0.596    -0.557 -0.2218  0.8664 -0.4474
     1 Na(23) Bbb    -0.0045    -0.639    -0.228    -0.213  0.9739  0.2191 -0.0586
              Bcc     0.0163     2.309     0.824     0.770 -0.0473  0.4487  0.8924
 
              Baa    -0.0236    -3.329    -1.188    -1.111  0.3894 -0.0571  0.9193
     2 Na(23) Bbb    -0.0074    -1.047    -0.374    -0.349 -0.0108  0.9977  0.0666
              Bcc     0.0310     4.377     1.562     1.460  0.9210  0.0359 -0.3878
 
              Baa    -0.0283    -4.000    -1.427    -1.334 -0.3983  0.8177 -0.4157
     3 Na(23) Bbb    -0.0213    -3.005    -1.072    -1.002  0.7096 -0.0126 -0.7045
              Bcc     0.0496     7.005     2.500     2.337  0.5813  0.5756  0.5752
 
              Baa    -0.0049    -0.694    -0.248    -0.232  0.9144  0.0899 -0.3947
     4 Na(23) Bbb    -0.0037    -0.523    -0.187    -0.174 -0.3106  0.7811 -0.5416
              Bcc     0.0086     1.217     0.434     0.406  0.2597  0.6179  0.7422
 
              Baa    -0.0168    -2.368    -0.845    -0.790  0.3747  0.9205  0.1107
     5 Na(23) Bbb    -0.0076    -1.080    -0.385    -0.360  0.7782 -0.3771  0.5021
              Bcc     0.0244     3.448     1.230     1.150 -0.5040  0.1020  0.8577
 
              Baa    -0.0069    -0.978    -0.349    -0.326  0.7172  0.4365  0.5432
     6 Na(23) Bbb    -0.0012    -0.175    -0.063    -0.058 -0.0322  0.7994 -0.5999
              Bcc     0.0082     1.153     0.412     0.385  0.6961 -0.4128 -0.5874
 
              Baa    -0.0264    -3.729    -1.331    -1.244  0.5586  0.5981 -0.5747
     7 Na(23) Bbb    -0.0229    -3.239    -1.156    -1.080 -0.3790  0.8003  0.4646
              Bcc     0.0493     6.968     2.486     2.324  0.7378 -0.0418  0.6737
 

 ---------------------------------------------------------------------------------

 No NMR shielding tensors so no spin-rotation constants.
 Leave Link  601 at Tue Dec  5 11:53:52 2023, MaxMem=  1879048192 cpu:               2.0 elap:               0.1
 (Enter /home/sekinelabo/g16/l701.exe)
 ... and contract with generalized density number  0.
 Compute integral first derivatives.
 Leave Link  701 at Tue Dec  5 11:53:52 2023, MaxMem=  1879048192 cpu:               1.6 elap:               0.1
 (Enter /home/sekinelabo/g16/l702.exe)
 L702 exits ... SP integral derivatives will be done elsewhere.
 Leave Link  702 at Tue Dec  5 11:53:53 2023, MaxMem=  1879048192 cpu:               0.5 elap:               0.0
 (Enter /home/sekinelabo/g16/l703.exe)
 Integral derivatives from FoFJK, PRISM(SPDF).
 Compute integral first derivatives, UseDBF=F ICtDFT=           0.
 Calling FoFJK, ICntrl=      2127 FMM=F ISym2X=0 I1Cent= 0 IOpClX= 1 NMat=1 NMatS=1 NMatT=0.
 FoFJK:  IHMeth= 1 ICntrl=    2127 DoSepK=F KAlg= 0 I1Cent=           0 FoldK=F
 IRaf=         0 NMat=       1 IRICut=       1 DoRegI=T DoRafI=F ISym2E= 0 IDoP0=0 IntGTp=1.
 FoFCou: FMM=F IPFlag=           0 FMFlag=      100000 FMFlg1=         800
         NFxFlg=           0 DoJE=F BraDBF=F KetDBF=F FulRan=T
         wScrn=  0.000000 ICntrl=      2127 IOpCl=  1 I1Cent=           0 NGrid=           0
         NMat0=    1 NMatS0=      1 NMatT0=    0 NMatD0=    1 NMtDS0=    0 NMtDT0=    0
 Symmetry not used in FoFCou.
 Leave Link  703 at Tue Dec  5 11:53:55 2023, MaxMem=  1879048192 cpu:              32.9 elap:               2.2
 (Enter /home/sekinelabo/g16/l716.exe)
 Dipole        =-6.41022609D-02 1.11591419D-01 2.29323836D-01
 ***** Axes restored to original set *****
 -------------------------------------------------------------------
 Center     Atomic                   Forces (Hartrees/Bohr)
 Number     Number              X              Y              Z
 -------------------------------------------------------------------
      1       11           0.000078570   -0.001875446   -0.000245952
      2       11          -0.002710321   -0.003125397   -0.003046307
      3       11           0.002979229    0.005723478   -0.003000338
      4       11          -0.001031821   -0.002076815    0.003340497
      5       11           0.006531652    0.001323746   -0.000112722
      6       11          -0.001167899    0.001398657    0.003678364
      7       11          -0.004679409   -0.001368223   -0.000613542
 -------------------------------------------------------------------
 Cartesian Forces:  Max     0.006531652 RMS     0.002948559
 Z-matrix is all fixed cartesians, so copy forces.
 Force constants in Cartesian coordinates: 
                1             2             3             4             5 
      1  0.110525D+00
      2 -0.108255D-01  0.112279D+00
      3 -0.221783D-01  0.195151D-01  0.156486D+00
      4 -0.195611D-01  0.670904D-02  0.103792D-01  0.105818D+00
      5  0.833692D-03 -0.258713D-01 -0.706484D-02  0.274603D-02  0.118261D+00
      6 -0.117808D-01 -0.764054D-02 -0.394400D-01  0.233744D-01  0.126990D-01
      7 -0.219151D-01 -0.170784D-02 -0.613728D-03 -0.330048D-01  0.335507D-02
      8  0.926060D-02 -0.133680D-01 -0.129189D-02 -0.451901D-02 -0.176046D-01
      9  0.179528D-01 -0.453532D-02 -0.242324D-01 -0.213882D-01  0.446781D-02
     10 -0.121179D-01 -0.113509D-02  0.125562D-01 -0.154589D-01 -0.555148D-02
     11  0.288549D-02 -0.132625D-01 -0.128844D-01  0.147307D-01 -0.264640D-01
     12 -0.128442D-01  0.960681D-02 -0.264633D-01  0.829681D-02 -0.182124D-01
     13 -0.275563D-01 -0.604620D-02  0.325562D-02 -0.249010D-01 -0.106327D-01
     14  0.544770D-02 -0.226940D-01 -0.114346D-01 -0.101216D-01 -0.298100D-01
     15  0.193182D-01  0.187588D-01 -0.274796D-01 -0.180214D-01 -0.148003D-01
     16 -0.171431D-01  0.325276D-02 -0.725987D-02  0.523267D-02  0.334448D-02
     17  0.541056D-02 -0.151997D-01  0.101214D-01  0.330691D-02  0.517919D-02
     18  0.134873D-01 -0.164448D-01 -0.179869D-01 -0.548991D-02  0.362685D-02
     19 -0.122317D-01  0.975282D-02  0.386083D-02 -0.181250D-01  0.590489D-02
     20 -0.130126D-01 -0.218834D-01  0.303919D-02 -0.128521D-01 -0.236903D-01
     21 -0.395499D-02 -0.192600D-01 -0.208839D-01  0.284922D-02  0.192839D-01
                6             7             8             9            10 
      6  0.135570D+00
      7  0.103153D-01  0.132834D+00
      8 -0.781265D-02 -0.835730D-02  0.904663D-01
      9 -0.219502D-01 -0.190243D-01 -0.617545D-02  0.955154D-01
     10 -0.678217D-02  0.593762D-03  0.674927D-02 -0.114027D-02  0.491657D-01
     11  0.328714D-02  0.664909D-02  0.372911D-02  0.248972D-02 -0.115926D-01
     12 -0.224036D-01  0.148731D-04  0.162865D-02  0.675190D-02  0.343499D-02
     13 -0.558521D-03 -0.241418D-01  0.202864D-01 -0.187241D-03 -0.268219D-01
     14  0.808152D-02 -0.174986D-01 -0.266788D-01  0.476719D-02  0.118650D-01
     15 -0.212136D-01  0.839086D-02 -0.374600D-02 -0.143385D-01 -0.499693D-02
     16 -0.548941D-02 -0.228811D-01 -0.476739D-02  0.234403D-01  0.171541D-02
     17  0.361696D-02  0.102837D-01 -0.163835D-01  0.221881D-02  0.603159D-03
     18 -0.227492D-02 -0.708874D-02  0.881163D-02 -0.326218D-01 -0.215674D-02
     19 -0.907869D-02 -0.314846D-01 -0.186526D-01  0.346965D-03  0.292383D-02
     20 -0.122314D-01  0.727588D-02 -0.201605D-01 -0.323277D-02 -0.938273D-03
     21 -0.282878D-01  0.800580D-02  0.858572D-02 -0.912439D-02 -0.915127D-03
               11            12            13            14            15 
     11  0.482004D-01
     12  0.176565D-03  0.367558D-01
     13 -0.170473D-01  0.387784D-02  0.926880D-01
     14 -0.119660D-01  0.387156D-02  0.168685D-01  0.961350D-01
     15  0.169552D-02 -0.487077D-02 -0.462023D-02 -0.109929D-01  0.586491D-01
     16  0.740324D-03 -0.632352D-03  0.453154D-02 -0.216029D-02 -0.139699D-02
     17  0.162593D-02  0.921187D-03  0.396163D-03 -0.399240D-03  0.610910D-02
     18  0.294872D-02  0.373913D-02 -0.286302D-02  0.291193D-02  0.254618D-02
     19  0.363421D-02 -0.214794D-02  0.620148D-02 -0.440069D-02  0.132655D-02
     20 -0.186298D-02  0.200761D-02 -0.382494D-02 -0.458691D-02  0.297588D-02
     21  0.228669D-02  0.649078D-02  0.109556D-02  0.279535D-02  0.670715D-02
               16            17            18            19            20 
     16  0.492377D-01
     17 -0.347705D-02  0.444340D-01
     18  0.110842D-01 -0.110712D-01  0.652136D-01
     19 -0.206932D-01 -0.165235D-01 -0.697314D-02  0.734092D-01
     20  0.306718D-02 -0.192567D-01  0.921687D-02  0.202848D-01  0.914408D-01
     21 -0.197459D-01 -0.119163D-01 -0.186153D-01  0.126654D-01 -0.177538D-02
               21 
     21  0.637135D-01
 Leave Link  716 at Tue Dec  5 11:53:55 2023, MaxMem=  1879048192 cpu:               0.4 elap:               0.0
 (Enter /home/sekinelabo/g16/l103.exe)

 GradGradGradGradGradGradGradGradGradGradGradGradGradGradGradGradGradGrad
 Berny optimization.
 Search for a local minimum.
 Step number   1 out of a maximum of    2
 All quantities printed in internal units (Hartrees-Bohrs-Radians)
 Second derivative matrix not updated -- first step.
 ITU=  0
     Eigenvalues ---    0.04052   0.04903   0.05349   0.08056   0.09088
     Eigenvalues ---    0.10364   0.11315   0.12689   0.13001   0.13567
     Eigenvalues ---    0.15020   0.15600   0.17506   0.19171   0.21065
 Angle between quadratic step and forces=  26.85 degrees.
 Linear search not attempted -- first point.
 B after Tr=    -0.000000   -0.000000   -0.000000
         Rot=    1.000000   -0.000000   -0.000000    0.000000 Ang=   0.00 deg.
 Variable       Old X    -DE/DX   Delta X   Delta X   Delta X     New X
                                 (Linear)    (Quad)   (Total)
    X1       21.38433   0.00008   0.00000   0.00701   0.00701  21.39134
    Y1       24.13690  -0.00188   0.00000  -0.01013  -0.01013  24.12677
    Z1       25.43949  -0.00025   0.00000  -0.00686  -0.00686  25.43263
    X2       20.95291  -0.00271   0.00000  -0.00701  -0.00701  20.94589
    Y2       22.58468  -0.00313   0.00000  -0.01466  -0.01466  22.57002
    Z2       19.41561  -0.00305   0.00000  -0.02702  -0.02702  19.38860
    X3       26.68898   0.00298   0.00000   0.02429   0.02429  26.71327
    Y3       20.99845   0.00572   0.00000   0.03799   0.03799  21.03644
    Z3       22.04517  -0.00300   0.00000  -0.02323  -0.02323  22.02194
    X4       17.92885  -0.00103   0.00000  -0.01274  -0.01274  17.91611
    Y4       28.24045  -0.00208   0.00000  -0.03918  -0.03918  28.20126
    Z4       20.15091   0.00334   0.00000   0.06029   0.06029  20.21119
    X5       24.54168   0.00653   0.00000   0.05649   0.05649  24.59818
    Y5       27.24702   0.00132   0.00000   0.00231   0.00231  27.24932
    Z5       21.02471  -0.00011   0.00000  -0.01893  -0.01893  21.00578
    X6       25.93800  -0.00117   0.00000  -0.03097  -0.03097  25.90703
    Y6       18.32182   0.00140   0.00000   0.03038   0.03038  18.35220
    Z6       27.48758   0.00368   0.00000   0.03809   0.03809  27.52567
    X7       21.48562  -0.00468   0.00000  -0.03706  -0.03706  21.44856
    Y7       17.39096  -0.00137   0.00000  -0.00670  -0.00670  17.38426
    Z7       23.35683  -0.00061   0.00000  -0.02234  -0.02234  23.33448
         Item               Value     Threshold  Converged?
 Maximum Force            0.006532     0.000450     NO 
 RMS     Force            0.002949     0.000300     NO 
 Maximum Displacement     0.060287     0.001800     NO 
 RMS     Displacement     0.029198     0.001200     NO 
 Predicted change in Energy=-8.065068D-04
 GradGradGradGradGradGradGradGradGradGradGradGradGradGradGradGradGradGrad

 Leave Link  103 at Tue Dec  5 11:53:55 2023, MaxMem=  1879048192 cpu:               0.2 elap:               0.0
 (Enter /home/sekinelabo/g16/l9999.exe)
 1\1\GINC-SEKINELABO-XA7R-R37\Force\UB3LYP\6-311+G(d)\Na7(2)\SEKINELABO
 \05-Dec-2023\0\\#P B3LYP/6-311+g(d) force\\DPGEN\\0,2\Na,11.3161,12.77
 27,13.462\Na,11.0878,11.9513,10.2743\Na,14.1232,11.1119,11.6658\Na,9.4
 8754,14.9442,10.6634\Na,12.9869,14.4185,11.1258\Na,13.7258,9.69549,14.
 5458\Na,11.3697,9.2029,12.3599\\Version=ES64L-G16RevB.01\State=2-A\HF=
 -1136.118233\S2=0.770841\S2-1=0.\S2A=0.750301\RMSD=7.583e-09\RMSF=2.94
 9e-03\Dipole=0.0034158,0.1879475,0.1838892\Quadrupole=-6.3023576,4.956
 7498,1.3456078,-7.5978076,3.5586581,-4.3262494\PG=C01 [X(Na7)]\\@


 I LOVE THOSE WHO LONG FOR THE IMPOSSIBLE.

                                 -- GOETHE
 Job cpu time:       0 days  0 hours  5 minutes 19.3 seconds.
 Elapsed time:       0 days  0 hours  0 minutes 28.0 seconds.
 File lengths (MBytes):  RWF=     32 Int=      0 D2E=      0 Chk=      4 Scr=      1
 Normal termination of Gaussian 16 at Tue Dec  5 11:53:55 2023.
