
7 atoms
1 atom types
   0.0000000000   25.2528203472 xlo xhi
   0.0000000000   25.2528203472 ylo yhi
   0.0000000000   25.2528203472 zlo zhi
   0.0000000000    0.0000000000    0.0000000000 xy xz yz

Atoms # atomic

     1      1   14.4873476022   10.6501994593   12.8682201736
     2      1   15.0101146022   13.3201184593   14.1328241736
     3      1   15.1643466022   13.0203384593   11.1560041736
     4      1   13.0294546022   14.7391894593   12.3812441736
     5      1   10.0485956022   14.6760134593   12.7067931736
     6      1    9.0878906022   11.8344424593   12.6765811736
     7      1   11.5571216022   10.1445694593   12.4632041736
