
7 atoms
1 atom types
   0.0000000000   27.4674729124 xlo xhi
   0.0000000000   27.4674729124 ylo yhi
   0.0000000000   27.4674729124 zlo zhi
   0.0000000000    0.0000000000    0.0000000000 xy xz yz

Atoms # atomic

     1      1   10.4058525990   16.2111927419   13.6393167419
     2      1   16.6648315990   11.0106987419   13.3191157419
     3      1   16.9981155990   15.8422227419   12.2883777419
     4      1   16.7515945990   13.7846097419   14.4572907419
     5      1   14.0155765990   14.0883257419   15.6502677419
     6      1   11.7649325990   13.5391327419   13.7412237419
     7      1    9.5352515990   11.6599727419   13.0405627419
