
7 atoms
1 atom types
   0.0000000000   23.3856164098 xlo xhi
   0.0000000000   23.3856164098 ylo yhi
   0.0000000000   23.3856164098 zlo zhi
   0.0000000000    0.0000000000    0.0000000000 xy xz yz

Atoms # atomic

     1      1   11.5589299192   11.6378653477   10.0458034906
     2      1   12.5304249192    9.6583063477   11.6884484906
     3      1    9.5224229192   10.2435123477   11.6972484906
     4      1   11.5661799192   11.6406473477   13.3392284906
     5      1    9.7677709192   13.3272113477   11.6951554906
     6      1   12.5186169192   13.6090023477   11.6870464906
     7      1   14.3853119192   11.7331123477   11.6967264906
