
7 atoms
1 atom types
   0.0000000000   25.6451285992 xlo xhi
   0.0000000000   25.6451285992 ylo yhi
   0.0000000000   25.6451285992 zlo zhi
   0.0000000000    0.0000000000    0.0000000000 xy xz yz

Atoms # atomic

     1      1   11.0678045853   13.1887598710   14.6301195853
     2      1   10.0946605853   10.9010438710   12.9479055853
     3      1   10.5050435853   14.8681138710   12.2076235853
     4      1   11.8234495853   12.4384118710   11.0332985853
     5      1   13.7356925853   12.6752158710   13.3400045853
     6      1   16.1818685853   14.3346908710   12.8754845853
     7      1   16.3494305853   11.3517138710   12.7235135853
