
7 atoms
1 atom types
   0.0000000000   26.5930587083 xlo xhi
   0.0000000000   26.5930587083 ylo yhi
   0.0000000000   26.5930587083 zlo zhi
   0.0000000000    0.0000000000    0.0000000000 xy xz yz

Atoms # atomic

     1      1   11.3963223542   10.7564226399   13.4996557827
     2      1    9.1904323542   12.7684946399   13.2823617827
     3      1   11.6242943542   16.5692626399   13.1955347827
     4      1   12.0364533542   13.6150826399   12.8458057827
     5      1   14.7388103542   13.4346666399   14.1509897827
     6      1   17.4525753542   14.3862286399   13.2977957827
     7      1   16.6368173542   11.5455476399   12.8035617827
