
7 atoms
1 atom types
   0.0000000000   24.9215043985 xlo xhi
   0.0000000000   24.9215043985 ylo yhi
   0.0000000000   24.9215043985 zlo zhi
   0.0000000000    0.0000000000    0.0000000000 xy xz yz

Atoms # atomic

     1      1   14.0164733421   10.3908929135   12.4917119135
     2      1    9.7194393421   14.5697229135   12.3413699135
     3      1    9.7592373421   10.3418379135   12.3280099135
     4      1   11.8756353421   12.4769339135   12.2217299135
     5      1   14.2867573421   12.5620359135   10.4453339135
     6      1   14.0167223421   14.5269669135   12.6910389135
     7      1   13.5510003421   12.3568749135   14.7060709135
