
7 atoms
1 atom types
   0.0000000000   26.1445993853 xlo xhi
   0.0000000000   26.1445993853 ylo yhi
   0.0000000000   26.1445993853 zlo zhi
   0.0000000000    0.0000000000    0.0000000000 xy xz yz

Atoms # atomic

     1      1   13.1714789784   13.3375708355   11.3878771212
     2      1   14.4846149784   11.1712618355   12.4970031212
     3      1   15.8634289784   13.9190258355   12.7462181212
     4      1   13.1529129784   15.0941848355   13.5531411212
     5      1   14.1063219784   12.5120398355   14.8863461212
     6      1   11.7244729784   12.3280798355   13.4981591212
     7      1    9.0028669784   13.1439348355   12.9373531212
