
7 atoms
1 atom types
   0.0000000000   23.9510327655 xlo xhi
   0.0000000000   23.9510327655 ylo yhi
   0.0000000000   23.9510327655 zlo zhi
   0.0000000000    0.0000000000    0.0000000000 xy xz yz

Atoms # atomic

     1      1   12.3951296685   10.0709058113   12.2263102399
     2      1   12.8384706685   11.6708168113    9.7239712399
     3      1    9.4189496685   10.4714998113   12.0826882399
     4      1    9.4018986685   13.4602708113   11.8152232399
     5      1   12.3759136685   13.8781178113   11.7105302399
     6      1   14.6923706685   11.9948168113   12.0317412399
     7      1   12.7058816685   12.2821868113   14.2381502399
