
7 atoms
1 atom types
   0.0000000000   25.8438146445 xlo xhi
   0.0000000000   25.8438146445 ylo yhi
   0.0000000000   25.8438146445 zlo zhi
   0.0000000000    0.0000000000    0.0000000000 xy xz yz

Atoms # atomic

     1      1   14.4121313223   13.2080276080   14.4185111794
     2      1   15.3176293223   10.6488406080   13.1353801794
     3      1   15.5846793223   15.0343196080   12.3488101794
     4      1   13.8650843223   12.7190186080   11.5219141794
     5      1    9.8865223223   10.6115176080   12.5737961794
     6      1   11.5793583223   12.9266336080   13.4588451794
     7      1    9.8079463223   15.3049936080   12.9960941794
