
7 atoms
1 atom types
   0.0000000000   23.8192798314 xlo xhi
   0.0000000000   23.8192798314 ylo yhi
   0.0000000000   23.8192798314 zlo zhi
   0.0000000000    0.0000000000    0.0000000000 xy xz yz

Atoms # atomic

     1      1   11.7186150586   11.8752557729   13.6140642014
     2      1   12.2195660586   13.9184797729   11.9276722014
     3      1   14.7620300586   12.4813567729   11.8547332014
     4      1   13.1646800586   10.0371857729   11.9581662014
     5      1   10.2502240586   10.3210117729   11.9928732014
     6      1   11.6724720586   11.7115117729   10.1710642014
     7      1    9.5798920586   13.0226777729   11.8489062014
