
7 atoms
1 atom types
   0.0000000000   23.3349072229 xlo xhi
   0.0000000000   23.3349072229 ylo yhi
   0.0000000000   23.3349072229 zlo zhi
   0.0000000000    0.0000000000    0.0000000000 xy xz yz

Atoms # atomic

     1      1   11.7100014686   11.6652708972   10.1751857543
     2      1   12.4690724686    9.1543988972   11.6674337543
     3      1   14.3348414686   11.6861828972   11.6675047543
     4      1   12.4340864686   14.1903758972   11.6677517543
     5      1   11.7087174686   11.6689578972   13.1600887543
     6      1    9.4971624686   13.0669318972   11.6648707543
     7      1    9.5182934686   10.2400568972   11.6693397543
