
7 atoms
1 atom types
   0.0000000000   25.5506773455 xlo xhi
   0.0000000000   25.5506773455 ylo yhi
   0.0000000000   25.5506773455 zlo zhi
   0.0000000000    0.0000000000    0.0000000000 xy xz yz

Atoms # atomic

     1      1   11.7173372442   13.5465712442   14.2137126727
     2      1   13.2843452442   13.8797242442   11.6804956727
     3      1   16.1995482442   14.1799772442   12.3131196727
     4      1   14.4797972442   12.3870042442   13.9861546727
     5      1   13.4319872442    9.9086372442   12.6457336727
     6      1   11.1772122442   11.7442992442   11.8838446727
     7      1    9.1371432442   13.7811572442   12.7043096727
