
7 atoms
1 atom types
   0.0000000000   25.9983770433 xlo xhi
   0.0000000000   25.9983770433 ylo yhi
   0.0000000000   25.9983770433 zlo zhi
   0.0000000000    0.0000000000    0.0000000000 xy xz yz

Atoms # atomic

     1      1   11.7845688074   14.6510170931   13.4722033788
     2      1   12.5084768074   12.2262770931   15.0867403788
     3      1    9.7592098074   13.0033230931   11.9841633788
     4      1   11.7481138074   10.8243690931   12.5444893788
     5      1   14.4557608074   15.7849980931   12.7354643788
     6      1   13.9847758074   12.8291260931   12.5546663788
     7      1   16.7534138074   11.6752090931   12.6165923788
