ITEM: TIMESTEP
9710
ITEM: NUMBER OF ATOMS
7
ITEM: BOX BOUNDS xy xz yz ff ff ff
0.0000000000000000e+00 2.4766578678100000e+01 0.0000000000000000e+00
0.0000000000000000e+00 2.4766578678100000e+01 0.0000000000000000e+00
0.0000000000000000e+00 2.4766578678100000e+01 0.0000000000000000e+00
ITEM: ATOMS id type x y z fx fy fz
5 1 15.3803 9.2243 13.363 -0.0872496 0.0716351 -0.0153558
2 1 10.122 10.8885 11.1049 -0.00397804 -0.157355 -0.0192869
6 1 8.81404 13.6465 10.7632 -0.178783 0.0283136 -0.0652543
3 1 15.8593 13.1048 14.0573 -0.0959866 -0.0323853 -0.0277999
1 1 10.6106 16.1743 11.4086 0.0928247 0.169133 0.0419648
7 1 13.4642 15.3819 13.7181 0.110119 -0.0547249 0.0218466
4 1 12.4326 8.26269 12.2678 0.163054 -0.0246168 0.0638855
