ITEM: TIMESTEP
1250
ITEM: NUMBER OF ATOMS
7
ITEM: BOX BOUNDS xy xz yz ff ff ff
0.0000000000000000e+00 2.3917818549500002e+01 0.0000000000000000e+00
0.0000000000000000e+00 2.3917818549500002e+01 0.0000000000000000e+00
0.0000000000000000e+00 2.3917818549500002e+01 0.0000000000000000e+00
ITEM: ATOMS id type x y z fx fy fz
6 1 11.5195 9.30183 10.9817 0.208317 -0.0931389 -0.0554058
4 1 10.7533 12.4733 9.45497 0.0667433 0.00253933 -0.0155491
2 1 14.2926 11.7226 11.7953 -0.102996 -0.0355409 0.00910586
3 1 9.11681 10.9988 11.9232 -0.190901 0.123533 0.12345
7 1 11.6323 10.3728 14.3131 0.0359407 0.0595731 -0.0838356
5 1 11.5923 13.921 12.5242 -0.0304961 -0.0588358 0.0229075
1 1 14.8056 14.9221 12.72 0.013392 0.0018706 -0.00067302
