 Set GAUSS_MDEF to "14GB".
 Entering Gaussian System, Link 0=g16
 Initial command:
 /home/sekinelabo/g16/l1.exe "/home/sekinelabo/g16temp/Gau-269422.inp" -scrdir="/home/sekinelabo/g16temp/"
 Entering Link 1 = /home/sekinelabo/g16/l1.exe PID=    269424.
  
 Copyright (c) 1988-2017, Gaussian, Inc.  All Rights Reserved.
  
 This is part of the Gaussian(R) 16 program.  It is based on
 the Gaussian(R) 09 system (copyright 2009, Gaussian, Inc.),
 the Gaussian(R) 03 system (copyright 2003, Gaussian, Inc.),
 the Gaussian(R) 98 system (copyright 1998, Gaussian, Inc.),
 the Gaussian(R) 94 system (copyright 1995, Gaussian, Inc.),
 the Gaussian 92(TM) system (copyright 1992, Gaussian, Inc.),
 the Gaussian 90(TM) system (copyright 1990, Gaussian, Inc.),
 the Gaussian 88(TM) system (copyright 1988, Gaussian, Inc.),
 the Gaussian 86(TM) system (copyright 1986, Carnegie Mellon
 University), and the Gaussian 82(TM) system (copyright 1983,
 Carnegie Mellon University). Gaussian is a federally registered
 trademark of Gaussian, Inc.
  
 This software contains proprietary and confidential information,
 including trade secrets, belonging to Gaussian, Inc.
  
 This software is provided under written license and may be
 used, copied, transmitted, or stored only in accord with that
 written license.
  
 The following legend is applicable only to US Government
 contracts under FAR:
  
                    RESTRICTED RIGHTS LEGEND
  
 Use, reproduction and disclosure by the US Government is
 subject to restrictions as set forth in subparagraphs (a)
 and (c) of the Commercial Computer Software - Restricted
 Rights clause in FAR 52.227-19.
  
 Gaussian, Inc.
 340 Quinnipiac St., Bldg. 40, Wallingford CT 06492
  
  
 ---------------------------------------------------------------
 Warning -- This program may not be used in any manner that
 competes with the business of Gaussian, Inc. or will provide
 assistance to any competitor of Gaussian, Inc.  The licensee
 of this program is prohibited from giving any competitor of
 Gaussian, Inc. access to this program.  By using this program,
 the user acknowledges that Gaussian, Inc. is engaged in the
 business of creating and licensing software in the field of
 computational chemistry and represents and warrants to the
 licensee that it is not a competitor of Gaussian, Inc. and that
 it will not use this program in any manner prohibited above.
 ---------------------------------------------------------------
  

 Cite this work as:
 Gaussian 16, Revision B.01,
 M. J. Frisch, G. W. Trucks, H. B. Schlegel, G. E. Scuseria, 
 M. A. Robb, J. R. Cheeseman, G. Scalmani, V. Barone, 
 G. A. Petersson, H. Nakatsuji, X. Li, M. Caricato, A. V. Marenich, 
 J. Bloino, B. G. Janesko, R. Gomperts, B. Mennucci, H. P. Hratchian, 
 J. V. Ortiz, A. F. Izmaylov, J. L. Sonnenberg, D. Williams-Young, 
 F. Ding, F. Lipparini, F. Egidi, J. Goings, B. Peng, A. Petrone, 
 T. Henderson, D. Ranasinghe, V. G. Zakrzewski, J. Gao, N. Rega, 
 G. Zheng, W. Liang, M. Hada, M. Ehara, K. Toyota, R. Fukuda, 
 J. Hasegawa, M. Ishida, T. Nakajima, Y. Honda, O. Kitao, H. Nakai, 
 T. Vreven, K. Throssell, J. A. Montgomery, Jr., J. E. Peralta, 
 F. Ogliaro, M. J. Bearpark, J. J. Heyd, E. N. Brothers, K. N. Kudin, 
 V. N. Staroverov, T. A. Keith, R. Kobayashi, J. Normand, 
 K. Raghavachari, A. P. Rendell, J. C. Burant, S. S. Iyengar, 
 J. Tomasi, M. Cossi, J. M. Millam, M. Klene, C. Adamo, R. Cammi, 
 J. W. Ochterski, R. L. Martin, K. Morokuma, O. Farkas, 
 J. B. Foresman, and D. J. Fox, Gaussian, Inc., Wallingford CT, 2016.
 
 ******************************************
 Gaussian 16:  ES64L-G16RevB.01 20-Dec-2017
                29-Nov-2023 
 ******************************************
 %nproc=15
 Will use up to   15 processors via shared memory.
 -------------------------
 #P B3LYP/6-311+g(d) force
 -------------------------
 1/10=7,30=1,38=1/1,3;
 2/12=2,17=6,18=5,40=1/2;
 3/5=4,6=6,7=11,11=2,25=1,30=1,71=1,74=-5/1,2,3;
 4//1;
 5/5=2,38=5/2;
 6/7=2,8=2,9=2,10=2,28=1/1;
 7/29=1/1,2,3,16;
 1/10=7,30=1/3;
 99//99;
 Leave Link    1 at Wed Nov 29 01:19:08 2023, MaxMem=           0 cpu:               0.3 elap:               0.0
 (Enter /home/sekinelabo/g16/l101.exe)
 -----
 DPGEN
 -----
 Symbolic Z-matrix:
 Charge =  0 Multiplicity = 2
 Na                    14.8193   17.1624   17.6624 
 Na                    16.997    16.2874   14.7107 
 Na                    13.9921   14.2275   14.0806 
 Na                    15.0901   14.1169   17.1928 
 Na                    13.0855   11.2224   15.7781 
 Na                    15.2359   16.127    11.1793 
 Na                    18.2055   18.2818   16.8216 
 
 ITRead=  0  0  0  0  0  0  0
 MicOpt= -1 -1 -1 -1 -1 -1 -1
 NAtoms=      7 NQM=        7 NQMF=       0 NMMI=      0 NMMIF=      0
                NMic=       0 NMicF=      0.
                    Isotopes and Nuclear Properties:
 (Nuclear quadrupole moments (NQMom) in fm**2, nuclear magnetic moments (NMagM)
  in nuclear magnetons)

  Atom         1           2           3           4           5           6           7
 IAtWgt=          23          23          23          23          23          23          23
 AtmWgt=  22.9897697  22.9897697  22.9897697  22.9897697  22.9897697  22.9897697  22.9897697
 NucSpn=           3           3           3           3           3           3           3
 AtZEff=  -0.0000000  -0.0000000  -0.0000000  -0.0000000  -0.0000000  -0.0000000  -0.0000000
 NQMom=   10.4000000  10.4000000  10.4000000  10.4000000  10.4000000  10.4000000  10.4000000
 NMagM=    2.2175200   2.2175200   2.2175200   2.2175200   2.2175200   2.2175200   2.2175200
 AtZNuc=  11.0000000  11.0000000  11.0000000  11.0000000  11.0000000  11.0000000  11.0000000
 Leave Link  101 at Wed Nov 29 01:19:09 2023, MaxMem=  1879048192 cpu:               2.3 elap:               0.2
 (Enter /home/sekinelabo/g16/l103.exe)

 GradGradGradGradGradGradGradGradGradGradGradGradGradGradGradGradGradGrad
 Berny optimization.
 Initialization pass.
 Trust Radius=3.00D-01 FncErr=1.00D-07 GrdErr=1.00D-07 EigMax=2.50D+02 EigMin=1.00D-04
 Number of steps in this run=      2 maximum allowed number of steps=      2.
 GradGradGradGradGradGradGradGradGradGradGradGradGradGradGradGradGradGrad

 Leave Link  103 at Wed Nov 29 01:19:09 2023, MaxMem=  1879048192 cpu:               0.2 elap:               0.0
 (Enter /home/sekinelabo/g16/l202.exe)
                          Input orientation:                          
 ---------------------------------------------------------------------
 Center     Atomic      Atomic             Coordinates (Angstroms)
 Number     Number       Type             X           Y           Z
 ---------------------------------------------------------------------
      1         11           0       14.819300   17.162400   17.662400
      2         11           0       16.997000   16.287400   14.710700
      3         11           0       13.992100   14.227500   14.080600
      4         11           0       15.090100   14.116900   17.192800
      5         11           0       13.085500   11.222400   15.778100
      6         11           0       15.235900   16.127000   11.179300
      7         11           0       18.205500   18.281800   16.821600
 ---------------------------------------------------------------------
                    Distance matrix (angstroms):
                    1          2          3          4          5
     1  Na   0.000000
     2  Na   3.771012   0.000000
     3  Na   4.703955   3.697247   0.000000
     4  Na   3.093368   3.808958   3.302064   0.000000
     5  Na   6.468404   6.487943   3.568481   3.794460   0.000000
     6  Na   6.578464   3.949429   3.684112   6.342235   7.058915
     7  Na   3.664199   3.145473   6.457799   5.214393   8.782848
                    6          7
     6  Na   0.000000
     7  Na   6.730322   0.000000
 Stoichiometry    Na7(2)
 Framework group  C1[X(Na7)]
 Deg. of freedom    15
 Full point group                 C1      NOp   1
 Largest Abelian subgroup         C1      NOp   1
 Largest concise Abelian subgroup C1      NOp   1
                         Standard orientation:                         
 ---------------------------------------------------------------------
 Center     Atomic      Atomic             Coordinates (Angstroms)
 Number     Number       Type             X           Y           Z
 ---------------------------------------------------------------------
      1         11           0        1.590084   -1.998048    1.555088
      2         11           0        1.571600    0.907244   -0.848965
      3         11           0       -1.897334    0.951175    0.429395
      4         11           0       -0.795283   -2.045162   -0.413854
      5         11           0       -4.516091   -1.302783   -0.462703
      6         11           0       -0.199643    4.220263    0.369475
      7         11           0        4.246668   -0.732689   -0.628436
 ---------------------------------------------------------------------
 Rotational constants (GHZ):           0.6430037           0.4232341           0.2831111
 Leave Link  202 at Wed Nov 29 01:19:09 2023, MaxMem=  1879048192 cpu:               0.0 elap:               0.0
 (Enter /home/sekinelabo/g16/l301.exe)
 Standard basis: 6-311+G(d) (5D, 7F)
 Ernie: Thresh=  0.10000D-02 Tol=  0.10000D-05 Strict=F.
 There are   217 symmetry adapted cartesian basis functions of A   symmetry.
 There are   210 symmetry adapted basis functions of A   symmetry.
   210 basis functions,   350 primitive gaussians,   217 cartesian basis functions
    39 alpha electrons       38 beta electrons
       nuclear repulsion energy       298.7197399196 Hartrees.
 IExCor=  402 DFT=T Ex+Corr=B3LYP ExCW=0 ScaHFX=  0.200000
 ScaDFX=  0.800000  0.720000  1.000000  0.810000 ScalE2=  1.000000  1.000000
 IRadAn=      5 IRanWt=     -1 IRanGd=            0 ICorTp=0 IEmpDi=  4
 NAtoms=    7 NActive=    7 NUniq=    7 SFac= 1.00D+00 NAtFMM=   60 NAOKFM=F Big=F
 Integral buffers will be    131072 words long.
 Raffenetti 2 integral format.
 Two-electron integral symmetry is turned on.
 Leave Link  301 at Wed Nov 29 01:19:09 2023, MaxMem=  1879048192 cpu:               0.5 elap:               0.0
 (Enter /home/sekinelabo/g16/l302.exe)
 NPDir=0 NMtPBC=     1 NCelOv=     1 NCel=       1 NClECP=     1 NCelD=      1
         NCelK=      1 NCelE2=     1 NClLst=     1 CellRange=     0.0.
 One-electron integrals computed using PRISM.
 One-electron integral symmetry used in STVInt
 NBasis=   210 RedAO= T EigKep=  9.11D-06  NBF=   210
 NBsUse=   210 1.00D-06 EigRej= -1.00D+00 NBFU=   210
 Precomputing XC quadrature grid using
 IXCGrd= 4 IRadAn=           5 IRanWt=          -1 IRanGd=           0 AccXCQ= 0.00D+00.
 Generated NRdTot=       0 NPtTot=           0 NUsed=           0 NTot=          32
 NSgBfM=   205   205   205   205   205 MxSgAt=     7 MxSgA2=     7.
 Leave Link  302 at Wed Nov 29 01:19:09 2023, MaxMem=  1879048192 cpu:               2.0 elap:               0.1
 (Enter /home/sekinelabo/g16/l303.exe)
 DipDrv:  MaxL=1.
 Leave Link  303 at Wed Nov 29 01:19:09 2023, MaxMem=  1879048192 cpu:               0.5 elap:               0.0
 (Enter /home/sekinelabo/g16/l401.exe)
 ExpMin= 7.60D-03 ExpMax= 3.62D+04 ExpMxC= 1.21D+03 IAcc=3 IRadAn=         5 AccDes= 0.00D+00
 Harris functional with IExCor=  402 and IRadAn=       5 diagonalized for initial guess.
 HarFok:  IExCor=  402 AccDes= 0.00D+00 IRadAn=         5 IDoV= 1 UseB2=F ITyADJ=14
 ICtDFT=  3500011 ScaDFX=  1.000000  1.000000  1.000000  1.000000
 FoFCou: FMM=F IPFlag=           0 FMFlag=      100000 FMFlg1=           0
         NFxFlg=           0 DoJE=T BraDBF=F KetDBF=T FulRan=T
         wScrn=  0.000000 ICntrl=       500 IOpCl=  0 I1Cent=   200000004 NGrid=           0
         NMat0=    1 NMatS0=      1 NMatT0=    0 NMatD0=    1 NMtDS0=    0 NMtDT0=    0
 Petite list used in FoFCou.
 Harris En= -1135.89071575872    
 JPrj=0 DoOrth=F DoCkMO=F.
 Initial guess <Sx>= 0.0000 <Sy>= 0.0000 <Sz>= 0.5000 <S**2>= 0.7500 S= 0.5000
 Leave Link  401 at Wed Nov 29 01:19:09 2023, MaxMem=  1879048192 cpu:               4.3 elap:               0.3
 (Enter /home/sekinelabo/g16/l502.exe)
 Keep R1 and R2 ints in memory in canonical form, NReq=506573307.
 FoFCou: FMM=F IPFlag=           0 FMFlag=           0 FMFlg1=           0
         NFxFlg=           0 DoJE=F BraDBF=F KetDBF=F FulRan=T
         wScrn=  0.000000 ICntrl=       600 IOpCl=  0 I1Cent=           0 NGrid=           0
         NMat0=    1 NMatS0=  22155 NMatT0=    0 NMatD0=    1 NMtDS0=    0 NMtDT0=    0
 Symmetry not used in FoFCou.
 Two-electron integral symmetry not used.
 UHF open shell SCF:
 Using DIIS extrapolation, IDIIS=  1040.
 NGot=  1879048192 LenX=  1388082593 LenY=  1388035063
 Requested convergence on RMS density matrix=1.00D-08 within 128 cycles.
 Requested convergence on MAX density matrix=1.00D-06.
 Requested convergence on             energy=1.00D-06.
 No special actions if energy rises.

 Cycle   1  Pass 1  IDiag  1:
 E= -1136.09408147305    
 DIIS: error= 1.01D-02 at cycle   1 NSaved=   1.
 NSaved= 1 IEnMin= 1 EnMin= -1136.09408147305     IErMin= 1 ErrMin= 1.01D-02
 ErrMax= 1.01D-02  0.00D+00 EMaxC= 1.00D-01 BMatC= 1.84D-01 BMatP= 1.84D-01
 IDIUse=3 WtCom= 8.99D-01 WtEn= 1.01D-01
 Coeff-Com:  0.100D+01
 Coeff-En:   0.100D+01
 Coeff:      0.100D+01
 Gap=     0.042 Goal=   None    Shift=    0.000
 Gap=     0.041 Goal=   None    Shift=    0.000
 GapD=    0.041 DampG=0.250 DampE=0.500 DampFc=0.2500 IDamp=-1.
 Damping current iteration by 2.50D-01
 RMSDP=8.73D-03 MaxDP=5.38D-01              OVMax= 1.98D-01

 Cycle   2  Pass 1  IDiag  1:
 E= -1136.10360831937     Delta-E=       -0.009526846323 Rises=F Damp=T
 DIIS: error= 7.01D-03 at cycle   2 NSaved=   2.
 NSaved= 2 IEnMin= 2 EnMin= -1136.10360831937     IErMin= 2 ErrMin= 7.01D-03
 ErrMax= 7.01D-03  0.00D+00 EMaxC= 1.00D-01 BMatC= 7.09D-02 BMatP= 1.84D-01
 IDIUse=3 WtCom= 9.30D-01 WtEn= 7.01D-02
 Coeff-Com: -0.128D+01 0.228D+01
 Coeff-En:   0.000D+00 0.100D+01
 Coeff:     -0.119D+01 0.219D+01
 Gap=     0.040 Goal=   None    Shift=    0.000
 Gap=     0.046 Goal=   None    Shift=    0.000
 RMSDP=3.97D-03 MaxDP=3.31D-01 DE=-9.53D-03 OVMax= 1.52D-01

 Cycle   3  Pass 1  IDiag  1:
 E= -1136.12009866952     Delta-E=       -0.016490350150 Rises=F Damp=F
 DIIS: error= 2.31D-03 at cycle   3 NSaved=   3.
 NSaved= 3 IEnMin= 3 EnMin= -1136.12009866952     IErMin= 3 ErrMin= 2.31D-03
 ErrMax= 2.31D-03  0.00D+00 EMaxC= 1.00D-01 BMatC= 2.51D-03 BMatP= 7.09D-02
 IDIUse=3 WtCom= 9.77D-01 WtEn= 2.31D-02
 Coeff-Com: -0.213D+00 0.367D+00 0.845D+00
 Coeff-En:   0.000D+00 0.000D+00 0.100D+01
 Coeff:     -0.208D+00 0.359D+00 0.849D+00
 Gap=     0.042 Goal=   None    Shift=    0.000
 Gap=     0.047 Goal=   None    Shift=    0.000
 RMSDP=2.27D-03 MaxDP=1.38D-01 DE=-1.65D-02 OVMax= 1.13D-01

 Cycle   4  Pass 1  IDiag  1:
 E= -1136.11951645141     Delta-E=        0.000582218113 Rises=F Damp=F
 DIIS: error= 2.79D-03 at cycle   4 NSaved=   4.
 NSaved= 4 IEnMin= 3 EnMin= -1136.12009866952     IErMin= 3 ErrMin= 2.31D-03
 ErrMax= 2.79D-03  0.00D+00 EMaxC= 1.00D-01 BMatC= 3.17D-03 BMatP= 2.51D-03
 IDIUse=3 WtCom= 1.59D-01 WtEn= 8.41D-01
 Coeff-Com: -0.119D-01 0.151D-01 0.529D+00 0.468D+00
 Coeff-En:   0.000D+00 0.000D+00 0.543D+00 0.457D+00
 Coeff:     -0.190D-02 0.240D-02 0.541D+00 0.459D+00
 Gap=     0.041 Goal=   None    Shift=    0.000
 Gap=     0.046 Goal=   None    Shift=    0.000
 RMSDP=1.17D-03 MaxDP=8.08D-02 DE= 5.82D-04 OVMax= 5.77D-02

 Cycle   5  Pass 1  IDiag  1:
 E= -1136.12269902722     Delta-E=       -0.003182575811 Rises=F Damp=F
 DIIS: error= 3.26D-04 at cycle   5 NSaved=   5.
 NSaved= 5 IEnMin= 5 EnMin= -1136.12269902722     IErMin= 5 ErrMin= 3.26D-04
 ErrMax= 3.26D-04  0.00D+00 EMaxC= 1.00D-01 BMatC= 2.27D-05 BMatP= 2.51D-03
 IDIUse=3 WtCom= 9.97D-01 WtEn= 3.26D-03
 Coeff-Com:  0.149D-02-0.325D-02 0.200D+00 0.162D+00 0.640D+00
 Coeff-En:   0.000D+00 0.000D+00 0.000D+00 0.000D+00 0.100D+01
 Coeff:      0.149D-02-0.324D-02 0.199D+00 0.161D+00 0.641D+00
 Gap=     0.040 Goal=   None    Shift=    0.000
 Gap=     0.047 Goal=   None    Shift=    0.000
 RMSDP=1.91D-04 MaxDP=1.36D-02 DE=-3.18D-03 OVMax= 1.27D-02

 Cycle   6  Pass 1  IDiag  1:
 E= -1136.12273131960     Delta-E=       -0.000032292380 Rises=F Damp=F
 DIIS: error= 2.14D-04 at cycle   6 NSaved=   6.
 NSaved= 6 IEnMin= 6 EnMin= -1136.12273131960     IErMin= 6 ErrMin= 2.14D-04
 ErrMax= 2.14D-04  0.00D+00 EMaxC= 1.00D-01 BMatC= 8.94D-06 BMatP= 2.27D-05
 IDIUse=3 WtCom= 9.98D-01 WtEn= 2.14D-03
 Coeff-Com:  0.449D-02-0.640D-02-0.102D+00-0.102D+00 0.365D+00 0.841D+00
 Coeff-En:   0.000D+00 0.000D+00 0.000D+00 0.000D+00 0.000D+00 0.100D+01
 Coeff:      0.448D-02-0.639D-02-0.102D+00-0.102D+00 0.364D+00 0.842D+00
 Gap=     0.041 Goal=   None    Shift=    0.000
 Gap=     0.048 Goal=   None    Shift=    0.000
 RMSDP=1.85D-04 MaxDP=1.51D-02 DE=-3.23D-05 OVMax= 8.10D-03

 Cycle   7  Pass 1  IDiag  1:
 E= -1136.12275586348     Delta-E=       -0.000024543877 Rises=F Damp=F
 DIIS: error= 4.84D-05 at cycle   7 NSaved=   7.
 NSaved= 7 IEnMin= 7 EnMin= -1136.12275586348     IErMin= 7 ErrMin= 4.84D-05
 ErrMax= 4.84D-05  0.00D+00 EMaxC= 1.00D-01 BMatC= 8.26D-07 BMatP= 8.94D-06
 IDIUse=1 WtCom= 1.00D+00 WtEn= 0.00D+00
 Coeff-Com:  0.110D-02-0.136D-02-0.429D-01-0.361D-01-0.671D-01 0.863D-01
 Coeff-Com:  0.106D+01
 Coeff:      0.110D-02-0.136D-02-0.429D-01-0.361D-01-0.671D-01 0.863D-01
 Coeff:      0.106D+01
 Gap=     0.041 Goal=   None    Shift=    0.000
 Gap=     0.048 Goal=   None    Shift=    0.000
 RMSDP=1.01D-04 MaxDP=8.38D-03 DE=-2.45D-05 OVMax= 5.13D-03

 Cycle   8  Pass 1  IDiag  1:
 E= -1136.12276081593     Delta-E=       -0.000004952458 Rises=F Damp=F
 DIIS: error= 4.57D-05 at cycle   8 NSaved=   8.
 NSaved= 8 IEnMin= 8 EnMin= -1136.12276081593     IErMin= 8 ErrMin= 4.57D-05
 ErrMax= 4.57D-05  0.00D+00 EMaxC= 1.00D-01 BMatC= 5.09D-07 BMatP= 8.26D-07
 IDIUse=1 WtCom= 1.00D+00 WtEn= 0.00D+00
 Coeff-Com:  0.460D-04 0.909D-04-0.730D-02-0.290D-02-0.114D+00-0.117D+00
 Coeff-Com:  0.604D+00 0.636D+00
 Coeff:      0.460D-04 0.909D-04-0.730D-02-0.290D-02-0.114D+00-0.117D+00
 Coeff:      0.604D+00 0.636D+00
 Gap=     0.041 Goal=   None    Shift=    0.000
 Gap=     0.048 Goal=   None    Shift=    0.000
 RMSDP=4.13D-05 MaxDP=2.83D-03 DE=-4.95D-06 OVMax= 2.48D-03

 Cycle   9  Pass 1  IDiag  1:
 E= -1136.12276242666     Delta-E=       -0.000001610725 Rises=F Damp=F
 DIIS: error= 2.03D-05 at cycle   9 NSaved=   9.
 NSaved= 9 IEnMin= 9 EnMin= -1136.12276242666     IErMin= 9 ErrMin= 2.03D-05
 ErrMax= 2.03D-05  0.00D+00 EMaxC= 1.00D-01 BMatC= 8.80D-08 BMatP= 5.09D-07
 IDIUse=1 WtCom= 1.00D+00 WtEn= 0.00D+00
 Coeff-Com: -0.730D-04 0.131D-03 0.723D-02 0.643D-02-0.163D-01-0.518D-01
 Coeff-Com: -0.114D+00 0.215D+00 0.953D+00
 Coeff:     -0.730D-04 0.131D-03 0.723D-02 0.643D-02-0.163D-01-0.518D-01
 Coeff:     -0.114D+00 0.215D+00 0.953D+00
 Gap=     0.041 Goal=   None    Shift=    0.000
 Gap=     0.048 Goal=   None    Shift=    0.000
 RMSDP=2.62D-05 MaxDP=1.44D-03 DE=-1.61D-06 OVMax= 1.70D-03

 Cycle  10  Pass 1  IDiag  1:
 E= -1136.12276299626     Delta-E=       -0.000000569600 Rises=F Damp=F
 DIIS: error= 9.53D-06 at cycle  10 NSaved=  10.
 NSaved=10 IEnMin=10 EnMin= -1136.12276299626     IErMin=10 ErrMin= 9.53D-06
 ErrMax= 9.53D-06  0.00D+00 EMaxC= 1.00D-01 BMatC= 2.28D-08 BMatP= 8.80D-08
 IDIUse=1 WtCom= 1.00D+00 WtEn= 0.00D+00
 Coeff-Com: -0.138D-03 0.168D-03 0.526D-02 0.365D-02 0.151D-01 0.309D-02
 Coeff-Com: -0.155D+00-0.515D-01 0.236D+00 0.943D+00
 Coeff:     -0.138D-03 0.168D-03 0.526D-02 0.365D-02 0.151D-01 0.309D-02
 Coeff:     -0.155D+00-0.515D-01 0.236D+00 0.943D+00
 Gap=     0.041 Goal=   None    Shift=    0.000
 Gap=     0.048 Goal=   None    Shift=    0.000
 RMSDP=1.45D-05 MaxDP=6.40D-04 DE=-5.70D-07 OVMax= 1.03D-03

 Cycle  11  Pass 1  IDiag  1:
 E= -1136.12276317304     Delta-E=       -0.000000176784 Rises=F Damp=F
 DIIS: error= 4.81D-06 at cycle  11 NSaved=  11.
 NSaved=11 IEnMin=11 EnMin= -1136.12276317304     IErMin=11 ErrMin= 4.81D-06
 ErrMax= 4.81D-06  0.00D+00 EMaxC= 1.00D-01 BMatC= 9.48D-09 BMatP= 2.28D-08
 IDIUse=1 WtCom= 1.00D+00 WtEn= 0.00D+00
 Coeff-Com: -0.109D-03 0.124D-03-0.142D-03-0.493D-03 0.129D-01 0.210D-01
 Coeff-Com: -0.194D-01-0.106D+00-0.329D+00 0.420D+00 0.100D+01
 Coeff:     -0.109D-03 0.124D-03-0.142D-03-0.493D-03 0.129D-01 0.210D-01
 Coeff:     -0.194D-01-0.106D+00-0.329D+00 0.420D+00 0.100D+01
 Gap=     0.041 Goal=   None    Shift=    0.000
 Gap=     0.048 Goal=   None    Shift=    0.000
 RMSDP=1.25D-05 MaxDP=5.30D-04 DE=-1.77D-07 OVMax= 8.33D-04

 Cycle  12  Pass 1  IDiag  1:
 E= -1136.12276324978     Delta-E=       -0.000000076736 Rises=F Damp=F
 DIIS: error= 2.23D-06 at cycle  12 NSaved=  12.
 NSaved=12 IEnMin=12 EnMin= -1136.12276324978     IErMin=12 ErrMin= 2.23D-06
 ErrMax= 2.23D-06  0.00D+00 EMaxC= 1.00D-01 BMatC= 1.39D-09 BMatP= 9.48D-09
 IDIUse=1 WtCom= 1.00D+00 WtEn= 0.00D+00
 Coeff-Com:  0.204D-04-0.311D-04-0.888D-03-0.548D-03 0.581D-03 0.258D-02
 Coeff-Com:  0.195D-01-0.107D-01-0.948D-01-0.780D-01 0.136D+00 0.103D+01
 Coeff:      0.204D-04-0.311D-04-0.888D-03-0.548D-03 0.581D-03 0.258D-02
 Coeff:      0.195D-01-0.107D-01-0.948D-01-0.780D-01 0.136D+00 0.103D+01
 Gap=     0.041 Goal=   None    Shift=    0.000
 Gap=     0.048 Goal=   None    Shift=    0.000
 RMSDP=4.94D-06 MaxDP=2.38D-04 DE=-7.67D-08 OVMax= 3.47D-04

 Cycle  13  Pass 1  IDiag  1:
 E= -1136.12276326357     Delta-E=       -0.000000013788 Rises=F Damp=F
 DIIS: error= 1.01D-06 at cycle  13 NSaved=  13.
 NSaved=13 IEnMin=13 EnMin= -1136.12276326357     IErMin=13 ErrMin= 1.01D-06
 ErrMax= 1.01D-06  0.00D+00 EMaxC= 1.00D-01 BMatC= 3.88D-10 BMatP= 1.39D-09
 IDIUse=1 WtCom= 1.00D+00 WtEn= 0.00D+00
 Coeff-Com:  0.412D-04-0.494D-04 0.602D-04 0.162D-03-0.337D-02-0.602D-02
 Coeff-Com:  0.527D-02 0.307D-01 0.923D-01-0.135D+00-0.268D+00 0.806D-02
 Coeff-Com:  0.128D+01
 Coeff:      0.412D-04-0.494D-04 0.602D-04 0.162D-03-0.337D-02-0.602D-02
 Coeff:      0.527D-02 0.307D-01 0.923D-01-0.135D+00-0.268D+00 0.806D-02
 Coeff:      0.128D+01
 Gap=     0.041 Goal=   None    Shift=    0.000
 Gap=     0.048 Goal=   None    Shift=    0.000
 RMSDP=3.07D-06 MaxDP=1.38D-04 DE=-1.38D-08 OVMax= 2.12D-04

 Cycle  14  Pass 1  IDiag  1:
 E= -1136.12276326850     Delta-E=       -0.000000004931 Rises=F Damp=F
 DIIS: error= 5.62D-07 at cycle  14 NSaved=  14.
 NSaved=14 IEnMin=14 EnMin= -1136.12276326850     IErMin=14 ErrMin= 5.62D-07
 ErrMax= 5.62D-07  0.00D+00 EMaxC= 1.00D-01 BMatC= 1.05D-10 BMatP= 3.88D-10
 IDIUse=1 WtCom= 1.00D+00 WtEn= 0.00D+00
 Coeff-Com: -0.659D-05 0.102D-04 0.141D-03 0.750D-04 0.256D-04-0.353D-03
 Coeff-Com: -0.575D-02 0.231D-02 0.342D-01 0.105D-01-0.521D-01-0.232D+00
 Coeff-Com:  0.795D-01 0.116D+01
 Coeff:     -0.659D-05 0.102D-04 0.141D-03 0.750D-04 0.256D-04-0.353D-03
 Coeff:     -0.575D-02 0.231D-02 0.342D-01 0.105D-01-0.521D-01-0.232D+00
 Coeff:      0.795D-01 0.116D+01
 Gap=     0.041 Goal=   None    Shift=    0.000
 Gap=     0.048 Goal=   None    Shift=    0.000
 RMSDP=1.54D-06 MaxDP=7.32D-05 DE=-4.93D-09 OVMax= 8.04D-05

 Cycle  15  Pass 1  IDiag  1:
 E= -1136.12276326959     Delta-E=       -0.000000001089 Rises=F Damp=F
 DIIS: error= 2.56D-07 at cycle  15 NSaved=  15.
 NSaved=15 IEnMin=15 EnMin= -1136.12276326959     IErMin=15 ErrMin= 2.56D-07
 ErrMax= 2.56D-07  0.00D+00 EMaxC= 1.00D-01 BMatC= 3.38D-11 BMatP= 1.05D-10
 IDIUse=1 WtCom= 1.00D+00 WtEn= 0.00D+00
 Coeff-Com: -0.225D-04 0.290D-04 0.104D-03 0.742D-05 0.125D-02 0.211D-02
 Coeff-Com: -0.457D-02-0.120D-01-0.196D-01 0.609D-01 0.754D-01-0.114D+00
 Coeff-Com: -0.401D+00 0.407D+00 0.100D+01
 Coeff:     -0.225D-04 0.290D-04 0.104D-03 0.742D-05 0.125D-02 0.211D-02
 Coeff:     -0.457D-02-0.120D-01-0.196D-01 0.609D-01 0.754D-01-0.114D+00
 Coeff:     -0.401D+00 0.407D+00 0.100D+01
 Gap=     0.041 Goal=   None    Shift=    0.000
 Gap=     0.048 Goal=   None    Shift=    0.000
 RMSDP=1.04D-06 MaxDP=5.65D-05 DE=-1.09D-09 OVMax= 4.05D-05

 Cycle  16  Pass 1  IDiag  1:
 E= -1136.12276326982     Delta-E=       -0.000000000233 Rises=F Damp=F
 DIIS: error= 8.85D-08 at cycle  16 NSaved=  16.
 NSaved=16 IEnMin=16 EnMin= -1136.12276326982     IErMin=16 ErrMin= 8.85D-08
 ErrMax= 8.85D-08  0.00D+00 EMaxC= 1.00D-01 BMatC= 2.49D-12 BMatP= 3.38D-11
 IDIUse=1 WtCom= 1.00D+00 WtEn= 0.00D+00
 Coeff-Com:  0.372D-05-0.512D-05-0.184D-04-0.270D-05-0.328D-05-0.183D-03
 Coeff-Com:  0.822D-03 0.454D-03-0.286D-02-0.607D-02-0.288D-03 0.498D-01
 Coeff-Com:  0.324D-02-0.198D+00-0.521D-01 0.120D+01
 Coeff:      0.372D-05-0.512D-05-0.184D-04-0.270D-05-0.328D-05-0.183D-03
 Coeff:      0.822D-03 0.454D-03-0.286D-02-0.607D-02-0.288D-03 0.498D-01
 Coeff:      0.324D-02-0.198D+00-0.521D-01 0.120D+01
 Gap=     0.041 Goal=   None    Shift=    0.000
 Gap=     0.048 Goal=   None    Shift=    0.000
 RMSDP=3.79D-07 MaxDP=2.61D-05 DE=-2.33D-10 OVMax= 1.22D-05

 Cycle  17  Pass 1  IDiag  1:
 E= -1136.12276326984     Delta-E=       -0.000000000020 Rises=F Damp=F
 DIIS: error= 2.99D-08 at cycle  17 NSaved=  17.
 NSaved=17 IEnMin=17 EnMin= -1136.12276326984     IErMin=17 ErrMin= 2.99D-08
 ErrMax= 2.99D-08  0.00D+00 EMaxC= 1.00D-01 BMatC= 2.55D-13 BMatP= 2.49D-12
 IDIUse=1 WtCom= 1.00D+00 WtEn= 0.00D+00
 Coeff-Com:  0.237D-05-0.311D-05-0.140D-04-0.405D-05-0.804D-04-0.147D-03
 Coeff-Com:  0.321D-03 0.104D-02 0.172D-02-0.578D-02-0.585D-02 0.891D-02
 Coeff-Com:  0.415D-01-0.437D-01-0.994D-01 0.559D-01 0.105D+01
 Coeff:      0.237D-05-0.311D-05-0.140D-04-0.405D-05-0.804D-04-0.147D-03
 Coeff:      0.321D-03 0.104D-02 0.172D-02-0.578D-02-0.585D-02 0.891D-02
 Coeff:      0.415D-01-0.437D-01-0.994D-01 0.559D-01 0.105D+01
 Gap=     0.041 Goal=   None    Shift=    0.000
 Gap=     0.048 Goal=   None    Shift=    0.000
 RMSDP=7.72D-08 MaxDP=4.66D-06 DE=-1.96D-11 OVMax= 3.07D-06

 Cycle  18  Pass 1  IDiag  1:
 E= -1136.12276326984     Delta-E=        0.000000000003 Rises=F Damp=F
 DIIS: error= 9.93D-09 at cycle  18 NSaved=  18.
 NSaved=18 IEnMin=17 EnMin= -1136.12276326984     IErMin=18 ErrMin= 9.93D-09
 ErrMax= 9.93D-09  0.00D+00 EMaxC= 1.00D-01 BMatC= 5.10D-14 BMatP= 2.55D-13
 IDIUse=1 WtCom= 1.00D+00 WtEn= 0.00D+00
 Coeff-Com: -0.246D-06 0.358D-06 0.133D-05 0.225D-06-0.153D-04 0.110D-04
 Coeff-Com: -0.718D-04 0.136D-04 0.685D-03 0.158D-03-0.995D-03-0.426D-02
 Coeff-Com:  0.335D-02 0.187D-01-0.181D-02-0.165D+00 0.123D+00 0.103D+01
 Coeff:     -0.246D-06 0.358D-06 0.133D-05 0.225D-06-0.153D-04 0.110D-04
 Coeff:     -0.718D-04 0.136D-04 0.685D-03 0.158D-03-0.995D-03-0.426D-02
 Coeff:      0.335D-02 0.187D-01-0.181D-02-0.165D+00 0.123D+00 0.103D+01
 Gap=     0.041 Goal=   None    Shift=    0.000
 Gap=     0.048 Goal=   None    Shift=    0.000
 RMSDP=3.27D-08 MaxDP=1.88D-06 DE= 2.73D-12 OVMax= 1.38D-06

 Cycle  19  Pass 1  IDiag  1:
 E= -1136.12276326985     Delta-E=       -0.000000000008 Rises=F Damp=F
 DIIS: error= 4.45D-09 at cycle  19 NSaved=  19.
 NSaved=19 IEnMin=19 EnMin= -1136.12276326985     IErMin=19 ErrMin= 4.45D-09
 ErrMax= 4.45D-09  0.00D+00 EMaxC= 1.00D-01 BMatC= 1.08D-14 BMatP= 5.10D-14
 IDIUse=1 WtCom= 1.00D+00 WtEn= 0.00D+00
 Coeff-Com: -0.370D-06 0.496D-06 0.212D-05 0.383D-06 0.102D-04 0.177D-04
 Coeff-Com: -0.635D-04-0.124D-03-0.113D-03 0.926D-03 0.570D-03-0.279D-02
 Coeff-Com: -0.472D-02 0.108D-01 0.117D-01-0.232D-01-0.171D+00 0.118D+00
 Coeff-Com:  0.106D+01
 Coeff:     -0.370D-06 0.496D-06 0.212D-05 0.383D-06 0.102D-04 0.177D-04
 Coeff:     -0.635D-04-0.124D-03-0.113D-03 0.926D-03 0.570D-03-0.279D-02
 Coeff:     -0.472D-02 0.108D-01 0.117D-01-0.232D-01-0.171D+00 0.118D+00
 Coeff:      0.106D+01
 Gap=     0.041 Goal=   None    Shift=    0.000
 Gap=     0.048 Goal=   None    Shift=    0.000
 RMSDP=1.44D-08 MaxDP=5.49D-07 DE=-7.73D-12 OVMax= 8.32D-07

 Cycle  20  Pass 1  IDiag  1:
 E= -1136.12276326986     Delta-E=       -0.000000000016 Rises=F Damp=F
 DIIS: error= 1.91D-09 at cycle  20 NSaved=  20.
 NSaved=20 IEnMin=20 EnMin= -1136.12276326986     IErMin=20 ErrMin= 1.91D-09
 ErrMax= 1.91D-09  0.00D+00 EMaxC= 1.00D-01 BMatC= 2.19D-15 BMatP= 1.08D-14
 IDIUse=1 WtCom= 1.00D+00 WtEn= 0.00D+00
 Large coefficients: NSaved= 20 BigCof=    0.00 CofMax=   10.00 Det=-4.08D-15
 Inversion failed.  Reducing to 19 matrices.
 Large coefficients: NSaved= 19 BigCof=    0.00 CofMax=   10.00 Det=-4.42D-15
 Inversion failed.  Reducing to 18 matrices.
 Large coefficients: NSaved= 18 BigCof=    0.00 CofMax=   10.00 Det=-4.45D-15
 Inversion failed.  Reducing to 17 matrices.
 Large coefficients: NSaved= 17 BigCof=    0.00 CofMax=   10.00 Det=-4.45D-15
 Inversion failed.  Reducing to 16 matrices.
 Large coefficients: NSaved= 16 BigCof=    0.00 CofMax=   10.00 Det=-4.85D-15
 Inversion failed.  Reducing to 15 matrices.
 Coeff-Com: -0.145D-05 0.884D-05 0.143D-05-0.706D-04 0.224D-04 0.768D-04
 Coeff-Com:  0.427D-03-0.945D-03-0.185D-02 0.287D-02 0.217D-01-0.279D-01
 Coeff-Com: -0.231D+00 0.853D-01 0.115D+01
 Coeff:     -0.145D-05 0.884D-05 0.143D-05-0.706D-04 0.224D-04 0.768D-04
 Coeff:      0.427D-03-0.945D-03-0.185D-02 0.287D-02 0.217D-01-0.279D-01
 Coeff:     -0.231D+00 0.853D-01 0.115D+01
 Gap=     0.041 Goal=   None    Shift=    0.000
 Gap=     0.048 Goal=   None    Shift=    0.000
 RMSDP=8.18D-09 MaxDP=3.39D-07 DE=-1.59D-11 OVMax= 4.38D-07

 SCF Done:  E(UB3LYP) =  -1136.12276327     A.U. after   20 cycles
            NFock= 20  Conv=0.82D-08     -V/T= 2.0029
 <Sx>= 0.0000 <Sy>= 0.0000 <Sz>= 0.5000 <S**2>= 0.7900 S= 0.5198
 <L.S>= 0.000000000000E+00
 KE= 1.132873042124D+03 PE=-3.326675538319D+03 EE= 7.589599930062D+02
 Annihilation of the first spin contaminant:
 S**2 before annihilation     0.7900,   after     0.7508
 Leave Link  502 at Wed Nov 29 01:19:26 2023, MaxMem=  1879048192 cpu:             182.4 elap:              16.4
 (Enter /home/sekinelabo/g16/l601.exe)
 Copying SCF densities to generalized density rwf, IOpCl= 1 IROHF=0.

 **********************************************************************

            Population analysis using the SCF Density.

 **********************************************************************

 Orbital symmetries:
 Alpha Orbitals:
       Occupied  (A) (A) (A) (A) (A) (A) (A) (A) (A) (A) (A) (A)
                 (A) (A) (A) (A) (A) (A) (A) (A) (A) (A) (A) (A)
                 (A) (A) (A) (A) (A) (A) (A) (A) (A) (A) (A) (A)
                 (A) (A) (A)
       Virtual   (A) (A) (A) (A) (A) (A) (A) (A) (A) (A) (A) (A)
                 (A) (A) (A) (A) (A) (A) (A) (A) (A) (A) (A) (A)
                 (A) (A) (A) (A) (A) (A) (A) (A) (A) (A) (A) (A)
                 (A) (A) (A) (A) (A) (A) (A) (A) (A) (A) (A) (A)
                 (A) (A) (A) (A) (A) (A) (A) (A) (A) (A) (A) (A)
                 (A) (A) (A) (A) (A) (A) (A) (A) (A) (A) (A) (A)
                 (A) (A) (A) (A) (A) (A) (A) (A) (A) (A) (A) (A)
                 (A) (A) (A) (A) (A) (A) (A) (A) (A) (A) (A) (A)
                 (A) (A) (A) (A) (A) (A) (A) (A) (A) (A) (A) (A)
                 (A) (A) (A) (A) (A) (A) (A) (A) (A) (A) (A) (A)
                 (A) (A) (A) (A) (A) (A) (A) (A) (A) (A) (A) (A)
                 (A) (A) (A) (A) (A) (A) (A) (A) (A) (A) (A) (A)
                 (A) (A) (A) (A) (A) (A) (A) (A) (A) (A) (A) (A)
                 (A) (A) (A) (A) (A) (A) (A) (A) (A) (A) (A) (A)
                 (A) (A) (A)
 Beta  Orbitals:
       Occupied  (A) (A) (A) (A) (A) (A) (A) (A) (A) (A) (A) (A)
                 (A) (A) (A) (A) (A) (A) (A) (A) (A) (A) (A) (A)
                 (A) (A) (A) (A) (A) (A) (A) (A) (A) (A) (A) (A)
                 (A) (A)
       Virtual   (A) (A) (A) (A) (A) (A) (A) (A) (A) (A) (A) (A)
                 (A) (A) (A) (A) (A) (A) (A) (A) (A) (A) (A) (A)
                 (A) (A) (A) (A) (A) (A) (A) (A) (A) (A) (A) (A)
                 (A) (A) (A) (A) (A) (A) (A) (A) (A) (A) (A) (A)
                 (A) (A) (A) (A) (A) (A) (A) (A) (A) (A) (A) (A)
                 (A) (A) (A) (A) (A) (A) (A) (A) (A) (A) (A) (A)
                 (A) (A) (A) (A) (A) (A) (A) (A) (A) (A) (A) (A)
                 (A) (A) (A) (A) (A) (A) (A) (A) (A) (A) (A) (A)
                 (A) (A) (A) (A) (A) (A) (A) (A) (A) (A) (A) (A)
                 (A) (A) (A) (A) (A) (A) (A) (A) (A) (A) (A) (A)
                 (A) (A) (A) (A) (A) (A) (A) (A) (A) (A) (A) (A)
                 (A) (A) (A) (A) (A) (A) (A) (A) (A) (A) (A) (A)
                 (A) (A) (A) (A) (A) (A) (A) (A) (A) (A) (A) (A)
                 (A) (A) (A) (A) (A) (A) (A) (A) (A) (A) (A) (A)
                 (A) (A) (A) (A)
 The electronic state is 2-A.
 Alpha  occ. eigenvalues --  -38.44590 -38.44173 -38.44043 -38.43950 -38.43891
 Alpha  occ. eigenvalues --  -38.43730 -38.43709  -2.20444  -2.20025  -2.19927
 Alpha  occ. eigenvalues --   -2.19798  -2.19692  -2.19551  -2.19481  -1.14152
 Alpha  occ. eigenvalues --   -1.14100  -1.14047  -1.13747  -1.13712  -1.13651
 Alpha  occ. eigenvalues --   -1.13623  -1.13608  -1.13524  -1.13442  -1.13435
 Alpha  occ. eigenvalues --   -1.13396  -1.13350  -1.13344  -1.13296  -1.13275
 Alpha  occ. eigenvalues --   -1.13250  -1.13159  -1.13157  -1.13126  -1.13094
 Alpha  occ. eigenvalues --   -0.17417  -0.13762  -0.12245  -0.10700
 Alpha virt. eigenvalues --   -0.06596  -0.05287  -0.04505  -0.03596  -0.02700
 Alpha virt. eigenvalues --   -0.02547  -0.01723  -0.01155  -0.01051  -0.00723
 Alpha virt. eigenvalues --   -0.00586  -0.00220   0.00346   0.00522   0.00644
 Alpha virt. eigenvalues --    0.00779   0.00897   0.01066   0.01115   0.01326
 Alpha virt. eigenvalues --    0.01451   0.01527   0.01634   0.01774   0.01882
 Alpha virt. eigenvalues --    0.02050   0.02119   0.02243   0.02380   0.02445
 Alpha virt. eigenvalues --    0.02681   0.02762   0.02891   0.02984   0.03038
 Alpha virt. eigenvalues --    0.03231   0.03286   0.03328   0.03501   0.03571
 Alpha virt. eigenvalues --    0.03579   0.03730   0.04037   0.04162   0.04491
 Alpha virt. eigenvalues --    0.04737   0.04775   0.05162   0.05304   0.05493
 Alpha virt. eigenvalues --    0.05742   0.05792   0.06604   0.06802   0.07254
 Alpha virt. eigenvalues --    0.07487   0.07906   0.08051   0.08229   0.08611
 Alpha virt. eigenvalues --    0.09002   0.09288   0.09568   0.10018   0.10427
 Alpha virt. eigenvalues --    0.10742   0.11080   0.11769   0.11909   0.12101
 Alpha virt. eigenvalues --    0.12437   0.13181   0.13285   0.13751   0.13933
 Alpha virt. eigenvalues --    0.14180   0.14526   0.15612   0.15723   0.17754
 Alpha virt. eigenvalues --    0.25875   0.27107   0.28233   0.29258   0.29385
 Alpha virt. eigenvalues --    0.30394   0.31378   0.31501   0.32909   0.33175
 Alpha virt. eigenvalues --    0.34411   0.34803   0.36155   0.36514   0.37437
 Alpha virt. eigenvalues --    0.37737   0.37993   0.38592   0.39393   0.40200
 Alpha virt. eigenvalues --    0.40897   0.41097   0.42218   0.43052   0.43714
 Alpha virt. eigenvalues --    0.44007   0.44117   0.44245   0.44550   0.44959
 Alpha virt. eigenvalues --    0.45122   0.45238   0.46110   0.46272   0.46799
 Alpha virt. eigenvalues --    0.47203   0.47641   0.47720   0.47749   0.48764
 Alpha virt. eigenvalues --    0.50133   0.51295   0.51643   0.52751   0.52996
 Alpha virt. eigenvalues --    0.53509   0.54256   0.55237   0.56023   0.56404
 Alpha virt. eigenvalues --    0.56644   0.58384   0.61077   0.62577   0.67973
 Alpha virt. eigenvalues --    0.70644   2.02269   2.09007   2.10389   2.14100
 Alpha virt. eigenvalues --    2.16214   2.19092   2.21161   4.42658   4.43652
 Alpha virt. eigenvalues --    4.44757   4.45031   4.45314   4.45541   4.45704
 Alpha virt. eigenvalues --    4.45931   4.46329   4.46495   4.46945   4.47173
 Alpha virt. eigenvalues --    4.47418   4.48324   4.48808   4.48960   4.51213
 Alpha virt. eigenvalues --    4.51701   4.56965   4.61176   4.62983  96.21511
 Alpha virt. eigenvalues --   96.29745  96.31321  96.35752  96.38045  96.41564
 Alpha virt. eigenvalues --   96.44999
  Beta  occ. eigenvalues --  -38.44545 -38.44156 -38.44022 -38.43875 -38.43821
  Beta  occ. eigenvalues --  -38.43738 -38.43708  -2.20364  -2.19998  -2.19894
  Beta  occ. eigenvalues --   -2.19661  -2.19561  -2.19549  -2.19496  -1.14079
  Beta  occ. eigenvalues --   -1.14046  -1.13991  -1.13723  -1.13677  -1.13622
  Beta  occ. eigenvalues --   -1.13606  -1.13576  -1.13482  -1.13345  -1.13342
  Beta  occ. eigenvalues --   -1.13312  -1.13274  -1.13259  -1.13254  -1.13241
  Beta  occ. eigenvalues --   -1.13214  -1.13169  -1.13166  -1.13126  -1.13096
  Beta  occ. eigenvalues --   -0.16919  -0.13062  -0.11965
  Beta virt. eigenvalues --   -0.07178  -0.06383  -0.05184  -0.04053  -0.03197
  Beta virt. eigenvalues --   -0.02493  -0.02205  -0.01557  -0.00908  -0.00614
  Beta virt. eigenvalues --   -0.00518  -0.00231   0.00006   0.00433   0.00598
  Beta virt. eigenvalues --    0.00747   0.00844   0.00931   0.01165   0.01193
  Beta virt. eigenvalues --    0.01398   0.01487   0.01622   0.01680   0.01877
  Beta virt. eigenvalues --    0.01996   0.02142   0.02257   0.02385   0.02447
  Beta virt. eigenvalues --    0.02508   0.02757   0.02815   0.02963   0.03058
  Beta virt. eigenvalues --    0.03097   0.03250   0.03318   0.03383   0.03570
  Beta virt. eigenvalues --    0.03614   0.03671   0.03802   0.04107   0.04228
  Beta virt. eigenvalues --    0.04535   0.04820   0.04915   0.05237   0.05399
  Beta virt. eigenvalues --    0.05531   0.05814   0.05885   0.06697   0.06940
  Beta virt. eigenvalues --    0.07340   0.07650   0.08000   0.08163   0.08432
  Beta virt. eigenvalues --    0.08731   0.09174   0.09404   0.09726   0.10265
  Beta virt. eigenvalues --    0.10787   0.10862   0.11178   0.11988   0.12093
  Beta virt. eigenvalues --    0.12318   0.12605   0.13293   0.13385   0.13755
  Beta virt. eigenvalues --    0.14161   0.14238   0.14640   0.15653   0.15921
  Beta virt. eigenvalues --    0.17951   0.26200   0.27517   0.28382   0.29456
  Beta virt. eigenvalues --    0.29806   0.30816   0.31567   0.31790   0.33188
  Beta virt. eigenvalues --    0.33562   0.34740   0.35136   0.36516   0.36922
  Beta virt. eigenvalues --    0.37653   0.37903   0.38197   0.38886   0.39810
  Beta virt. eigenvalues --    0.40572   0.41190   0.41470   0.42478   0.43248
  Beta virt. eigenvalues --    0.43878   0.44169   0.44228   0.44335   0.44689
  Beta virt. eigenvalues --    0.45004   0.45246   0.45452   0.46241   0.46365
  Beta virt. eigenvalues --    0.46980   0.47304   0.47710   0.47812   0.47898
  Beta virt. eigenvalues --    0.48820   0.50193   0.51379   0.51774   0.52822
  Beta virt. eigenvalues --    0.53081   0.53678   0.54354   0.55393   0.56101
  Beta virt. eigenvalues --    0.56510   0.56767   0.58479   0.61121   0.62648
  Beta virt. eigenvalues --    0.68235   0.70761   2.02389   2.09238   2.10435
  Beta virt. eigenvalues --    2.14337   2.16299   2.19153   2.21229   4.42757
  Beta virt. eigenvalues --    4.43752   4.44762   4.45112   4.45425   4.45542
  Beta virt. eigenvalues --    4.45762   4.46008   4.46336   4.46538   4.46967
  Beta virt. eigenvalues --    4.47221   4.47457   4.48372   4.48863   4.48983
  Beta virt. eigenvalues --    4.51234   4.51734   4.56957   4.61260   4.63074
  Beta virt. eigenvalues --   96.21553  96.29819  96.31336  96.35828  96.38078
  Beta virt. eigenvalues --   96.41592  96.45032
          Condensed to atoms (all electrons):
               1          2          3          4          5          6
     1  Na  10.941331  -0.584669   0.108085   0.055314  -0.248457   0.200113
     2  Na  -0.584669  11.981946   0.012135   0.112156   0.446646  -0.204382
     3  Na   0.108085   0.012135  11.365470   0.316949  -0.233420   0.079083
     4  Na   0.055314   0.112156   0.316949  10.835778  -0.101956  -0.006289
     5  Na  -0.248457   0.446646  -0.233420  -0.101956  10.858806  -0.128796
     6  Na   0.200113  -0.204382   0.079083  -0.006289  -0.128796  10.549876
     7  Na   0.102754   0.007884   0.083011  -0.000597  -0.080467   0.005628
               7
     1  Na   0.102754
     2  Na   0.007884
     3  Na   0.083011
     4  Na  -0.000597
     5  Na  -0.080467
     6  Na   0.005628
     7  Na  10.585343
          Atomic-Atomic Spin Densities.
               1          2          3          4          5          6
     1  Na   0.211198  -0.148677  -0.005692   0.080350   0.006321   0.025090
     2  Na  -0.148677   0.303654   0.089721   0.012633  -0.082701  -0.041202
     3  Na  -0.005692   0.089721   0.036128  -0.150932   0.188163  -0.014180
     4  Na   0.080350   0.012633  -0.150932  -0.030562   0.111018   0.006174
     5  Na   0.006321  -0.082701   0.188163   0.111018   0.079063   0.012958
     6  Na   0.025090  -0.041202  -0.014180   0.006174   0.012958  -0.023988
     7  Na  -0.036986   0.098581  -0.034878  -0.049744   0.028064  -0.007469
               7
     1  Na  -0.036986
     2  Na   0.098581
     3  Na  -0.034878
     4  Na  -0.049744
     5  Na   0.028064
     6  Na  -0.007469
     7  Na   0.251288
 Mulliken charges and spin densities:
               1          2
     1  Na   0.425529   0.131605
     2  Na  -0.771716   0.232009
     3  Na  -0.731313   0.108329
     4  Na  -0.211355  -0.021064
     5  Na   0.487644   0.342885
     6  Na   0.504767  -0.042619
     7  Na   0.296445   0.248855
 Sum of Mulliken charges =  -0.00000   1.00000
 Mulliken charges and spin densities with hydrogens summed into heavy atoms:
               1          2
     1  Na   0.425529   0.131605
     2  Na  -0.771716   0.232009
     3  Na  -0.731313   0.108329
     4  Na  -0.211355  -0.021064
     5  Na   0.487644   0.342885
     6  Na   0.504767  -0.042619
     7  Na   0.296445   0.248855
 Electronic spatial extent (au):  <R**2>=           3363.2875
 Charge=             -0.0000 electrons
 Dipole moment (field-independent basis, Debye):
    X=              0.4433    Y=             -0.6918    Z=              0.6456  Tot=              1.0449
 Quadrupole moment (field-independent basis, Debye-Ang):
   XX=            -65.3634   YY=            -64.2812   ZZ=            -67.5505
   XY=             -2.6968   XZ=              2.1108   YZ=              1.1842
 Traceless Quadrupole moment (field-independent basis, Debye-Ang):
   XX=              0.3683   YY=              1.4505   ZZ=             -1.8188
   XY=             -2.6968   XZ=              2.1108   YZ=              1.1842
 Octapole moment (field-independent basis, Debye-Ang**2):
  XXX=             -7.4748  YYY=             38.7314  ZZZ=             12.6206  XYY=              2.2543
  XXY=            -28.2553  XXZ=              5.0765  XZZ=              9.4635  YZZ=            -11.8054
  YYZ=              8.6306  XYZ=            -10.1119
 Hexadecapole moment (field-independent basis, Debye-Ang**3):
 XXXX=          -2900.2924 YYYY=          -1816.8094 ZZZZ=           -490.1294 XXXY=            -20.7271
 XXXZ=             27.3399 YYYX=            -20.5607 YYYZ=             45.2806 ZZZX=             28.7940
 ZZZY=            -15.2025 XXYY=           -886.5372 XXZZ=           -631.8750 YYZZ=           -429.5506
 XXYZ=              8.6605 YYXZ=             22.9558 ZZXY=            -25.5570
 N-N= 2.987197399196D+02 E-N=-3.326675538348D+03  KE= 1.132873042124D+03
                          Isotropic Fermi Contact Couplings
        Atom                 a.u.       MegaHertz       Gauss      10(-4) cm-1
     1  Na(23)             0.15961     188.82896      67.37887      62.98656
     2  Na(23)             0.02316      27.39805       9.77630       9.13900
     3  Na(23)            -0.01439     -17.02016      -6.07322      -5.67732
     4  Na(23)             0.03972      46.98703      16.76614      15.67319
     5  Na(23)             0.31013     366.89241     130.91634     122.38214
     6  Na(23)            -0.03534     -41.80944     -14.91865     -13.94613
     7  Na(23)             0.31802     376.22707     134.24717     125.49584
 --------------------------------------------------------
       Center         ----  Spin Dipole Couplings  ----
                      3XX-RR        3YY-RR        3ZZ-RR
 --------------------------------------------------------
     1   Atom        0.027986     -0.011946     -0.016040
     2   Atom        0.039680     -0.026637     -0.013043
     3   Atom        0.028537     -0.021217     -0.007320
     4   Atom        0.012056     -0.020103      0.008047
     5   Atom       -0.007763      0.004696      0.003067
     6   Atom       -0.001016      0.002179     -0.001162
     7   Atom       -0.008479      0.009274     -0.000794
 --------------------------------------------------------
                        XY            XZ            YZ
 --------------------------------------------------------
     1   Atom        0.007745      0.007584      0.003127
     2   Atom       -0.001759     -0.023458      0.001893
     3   Atom        0.003021      0.008772     -0.003146
     4   Atom        0.001182      0.034030     -0.002540
     5   Atom       -0.000535     -0.001100     -0.000369
     6   Atom        0.000611     -0.000208     -0.000138
     7   Atom       -0.003172      0.005770     -0.004915
 --------------------------------------------------------


 ---------------------------------------------------------------------------------
              Anisotropic Spin Dipole Couplings in Principal Axis System
 ---------------------------------------------------------------------------------

       Atom             a.u.   MegaHertz   Gauss  10(-4) cm-1        Axes

              Baa    -0.0180    -2.543    -0.907    -0.848 -0.0923 -0.3608  0.9281
     1 Na(23) Bbb    -0.0128    -1.808    -0.645    -0.603 -0.2351  0.9136  0.3318
              Bcc     0.0308     4.351     1.553     1.451  0.9676  0.1876  0.1691
 
              Baa    -0.0270    -3.809    -1.359    -1.270 -0.0513  0.9744 -0.2188
     2 Na(23) Bbb    -0.0217    -3.065    -1.094    -1.023  0.3536  0.2227  0.9085
              Bcc     0.0487     6.874     2.453     2.293  0.9340 -0.0308 -0.3559
 
              Baa    -0.0224    -3.161    -1.128    -1.055 -0.1017  0.9603  0.2597
     3 Na(23) Bbb    -0.0083    -1.169    -0.417    -0.390 -0.2014 -0.2755  0.9400
              Bcc     0.0307     4.330     1.545     1.444  0.9742  0.0433  0.2214
 
              Baa    -0.0254    -3.584    -1.279    -1.196 -0.6082  0.4507  0.6534
     4 Na(23) Bbb    -0.0188    -2.651    -0.946    -0.884  0.3183  0.8926 -0.3194
              Bcc     0.0442     6.235     2.225     2.080  0.7272 -0.0138  0.6863
 
              Baa    -0.0079    -1.116    -0.398    -0.372  0.9938  0.0451  0.1012
     5 Na(23) Bbb     0.0031     0.440     0.157     0.147 -0.1080  0.1912  0.9756
              Bcc     0.0048     0.675     0.241     0.225 -0.0247  0.9805 -0.1949
 
              Baa    -0.0013    -0.188    -0.067    -0.063  0.6599 -0.0854  0.7465
     6 Na(23) Bbb    -0.0010    -0.137    -0.049    -0.046  0.7285 -0.1705 -0.6635
              Bcc     0.0023     0.325     0.116     0.108  0.1839  0.9817 -0.0503
 
              Baa    -0.0116    -1.636    -0.584    -0.546  0.8863  0.0259 -0.4623
     7 Na(23) Bbb    -0.0010    -0.142    -0.051    -0.047  0.3912  0.4925  0.7775
              Bcc     0.0126     1.777     0.634     0.593 -0.2478  0.8699 -0.4264
 

 ---------------------------------------------------------------------------------

 No NMR shielding tensors so no spin-rotation constants.
 Leave Link  601 at Wed Nov 29 01:19:26 2023, MaxMem=  1879048192 cpu:               2.2 elap:               0.2
 (Enter /home/sekinelabo/g16/l701.exe)
 ... and contract with generalized density number  0.
 Compute integral first derivatives.
 Leave Link  701 at Wed Nov 29 01:19:26 2023, MaxMem=  1879048192 cpu:               1.5 elap:               0.1
 (Enter /home/sekinelabo/g16/l702.exe)
 L702 exits ... SP integral derivatives will be done elsewhere.
 Leave Link  702 at Wed Nov 29 01:19:26 2023, MaxMem=  1879048192 cpu:               0.4 elap:               0.0
 (Enter /home/sekinelabo/g16/l703.exe)
 Integral derivatives from FoFJK, PRISM(SPDF).
 Compute integral first derivatives, UseDBF=F ICtDFT=           0.
 Calling FoFJK, ICntrl=      2127 FMM=F ISym2X=0 I1Cent= 0 IOpClX= 1 NMat=1 NMatS=1 NMatT=0.
 FoFJK:  IHMeth= 1 ICntrl=    2127 DoSepK=F KAlg= 0 I1Cent=           0 FoldK=F
 IRaf=         0 NMat=       1 IRICut=       1 DoRegI=T DoRafI=F ISym2E= 0 IDoP0=0 IntGTp=1.
 FoFCou: FMM=F IPFlag=           0 FMFlag=      100000 FMFlg1=         800
         NFxFlg=           0 DoJE=F BraDBF=F KetDBF=F FulRan=T
         wScrn=  0.000000 ICntrl=      2127 IOpCl=  1 I1Cent=           0 NGrid=           0
         NMat0=    1 NMatS0=      1 NMatT0=    0 NMatD0=    1 NMtDS0=    0 NMtDT0=    0
 Symmetry not used in FoFCou.
 Leave Link  703 at Wed Nov 29 01:19:28 2023, MaxMem=  1879048192 cpu:              30.4 elap:               2.0
 (Enter /home/sekinelabo/g16/l716.exe)
 Dipole        = 1.74407908D-01-2.72193383D-01 2.53982028D-01
 ***** Axes restored to original set *****
 -------------------------------------------------------------------
 Center     Atomic                   Forces (Hartrees/Bohr)
 Number     Number              X              Y              Z
 -------------------------------------------------------------------
      1       11           0.001745620    0.002686320   -0.000752581
      2       11          -0.003795577   -0.000006452   -0.004922136
      3       11           0.000652559    0.000455550   -0.003161385
      4       11          -0.002026622   -0.005635816    0.001148551
      5       11           0.001656360    0.002483316    0.000515178
      6       11           0.000876397   -0.001344748    0.005164153
      7       11           0.000891263    0.001361830    0.002008220
 -------------------------------------------------------------------
 Cartesian Forces:  Max     0.005635816 RMS     0.002603869
 Z-matrix is all fixed cartesians, so copy forces.
 Force constants in Cartesian coordinates: 
                1             2             3             4             5 
      1  0.524719D-01
      2 -0.375493D-02  0.512158D-01
      3 -0.950574D-02  0.118553D-01  0.357753D-01
      4 -0.189479D-01  0.484852D-03  0.584506D-02  0.983034D-01
      5  0.528841D-02 -0.907196D-02 -0.685506D-02  0.648868D-02  0.851069D-01
      6  0.262675D-02  0.159953D-03 -0.147489D-01 -0.777942D-02  0.551937D-02
      7  0.261685D-02  0.101879D-02  0.195135D-02 -0.274935D-01  0.655473D-03
      8 -0.433490D-02  0.680766D-04 -0.750347D-02  0.252621D-02 -0.179961D-01
      9 -0.332923D-02 -0.289250D-02 -0.186491D-02  0.736429D-02  0.373649D-02
     10 -0.257025D-01  0.118688D-01 -0.590401D-03 -0.125741D-01 -0.114270D-01
     11  0.316130D-02 -0.356472D-01  0.108772D-01  0.197074D-02 -0.147161D-01
     12  0.938459D-03 -0.105174D-01 -0.156011D-01 -0.689567D-02  0.803505D-03
     13  0.470755D-02  0.163510D-03  0.179588D-02  0.185011D-02 -0.513065D-02
     14 -0.373519D-02 -0.108892D-03 -0.159678D-02 -0.931185D-03 -0.139621D-03
     15  0.997628D-03 -0.568219D-04  0.755603D-03  0.207988D-02  0.127504D-02
     16  0.341966D-02 -0.453760D-03  0.270126D-02 -0.175340D-01  0.710471D-03
     17 -0.987655D-03  0.418137D-03 -0.907900D-03 -0.144976D-02 -0.156334D-01
     18 -0.166235D-02  0.207035D-03 -0.130523D-02  0.642336D-02  0.413799D-02
     19 -0.185656D-01 -0.932725D-02 -0.219740D-02 -0.236040D-01  0.341464D-02
     20  0.436296D-02 -0.687396D-02 -0.586928D-02 -0.908954D-02 -0.275497D-01
     21  0.993448D-02  0.124445D-02 -0.301079D-02 -0.703750D-02 -0.861732D-02
                6             7             8             9            10 
      6  0.103010D+00
      7 -0.367735D-02  0.689001D-01
      8 -0.220593D-02  0.104481D-01  0.766772D-01
      9 -0.232242D-01  0.745829D-02 -0.181221D-02  0.866210D-01
     10  0.754153D-02 -0.208026D-01 -0.347040D-02 -0.105886D-01  0.638087D-01
     11 -0.204649D-02 -0.534394D-02 -0.231396D-01  0.239083D-02  0.620804D-02
     12 -0.250309D-01 -0.259381D-02  0.681217D-02 -0.286471D-01  0.107532D-01
     13  0.164977D-02 -0.117663D-01  0.501915D-02 -0.530552D-02 -0.130697D-01
     14 -0.485756D-03 -0.444776D-02 -0.198896D-01 -0.300160D-02  0.225835D-02
     15  0.585369D-02  0.283486D-02  0.895602D-02 -0.190119D-01 -0.842215D-02
     16 -0.116513D-01 -0.144401D-01 -0.712343D-02  0.868816D-02  0.683788D-02
     17 -0.944630D-03 -0.160577D-02 -0.170664D-01  0.249306D-02  0.190154D-02
     18 -0.115322D-01 -0.489834D-02 -0.472190D-02 -0.172087D-01  0.738233D-03
     19  0.112900D-01  0.298549D-02 -0.306471D-02 -0.428739D-02  0.150243D-02
     20  0.348494D-05 -0.724879D-03  0.134633D-02 -0.914067D-03 -0.733930D-02
     21 -0.343280D-01 -0.107500D-02  0.475314D-03  0.333579D-02  0.568146D-03
               11            12            13            14            15 
     11  0.834257D-01
     12 -0.434218D-02  0.811136D-01
     13 -0.583377D-02 -0.534538D-03  0.169909D-01
     14 -0.117864D-01  0.602260D-02  0.760192D-02  0.291517D-01
     15 -0.116345D-01 -0.136926D-01  0.310029D-02 -0.246667D-02  0.236549D-01
     16  0.180176D-02  0.791107D-03  0.128078D-02 -0.739349D-03 -0.645889D-03
     17  0.404350D-02  0.218835D-02 -0.183928D-02  0.279645D-02  0.399725D-02
     18  0.227728D-02 -0.186853D-02 -0.655973D-03  0.151453D-02  0.234003D-02
     19 -0.196412D-02 -0.245880D-02  0.658374D-05 -0.679305D-05  0.553771D-04
     20 -0.217996D-02 -0.967037D-03  0.191306D-04 -0.236946D-04 -0.703566D-04
     21  0.247784D-02  0.372669D-02 -0.499121D-04  0.136708D-04  0.100332D-03
               16            17            18            19            20 
     16  0.197006D-01
     17  0.602520D-02  0.204701D-01
     18  0.328818D-03 -0.329928D-02  0.293086D-01
     19  0.735129D-03 -0.204427D-02 -0.273754D-03  0.369400D-01
     20 -0.220892D-03  0.497159D-02 -0.115657D-03  0.129925D-01  0.303094D-01
     21 -0.212164D-03 -0.352686D-02  0.265999D-03 -0.212805D-02  0.793291D-02
               21 
     21  0.299099D-01
 Leave Link  716 at Wed Nov 29 01:19:28 2023, MaxMem=  1879048192 cpu:               0.4 elap:               0.0
 (Enter /home/sekinelabo/g16/l103.exe)

 GradGradGradGradGradGradGradGradGradGradGradGradGradGradGradGradGradGrad
 Berny optimization.
 Search for a local minimum.
 Step number   1 out of a maximum of    2
 All quantities printed in internal units (Hartrees-Bohrs-Radians)
 Second derivative matrix not updated -- first step.
 ITU=  0
     Eigenvalues ---    0.01234   0.02354   0.02594   0.02815   0.03623
     Eigenvalues ---    0.05679   0.05944   0.06946   0.07957   0.09591
     Eigenvalues ---    0.10921   0.12207   0.12462   0.13220   0.14152
 Angle between quadratic step and forces=  36.60 degrees.
 Linear search not attempted -- first point.
 B after Tr=    -0.000000    0.000000    0.000000
         Rot=    1.000000    0.000000   -0.000000    0.000000 Ang=   0.00 deg.
 Variable       Old X    -DE/DX   Delta X   Delta X   Delta X     New X
                                 (Linear)    (Quad)   (Total)
    X1       28.00442   0.00175   0.00000   0.01367   0.01367  28.01809
    Y1       32.43224   0.00269   0.00000   0.03176   0.03176  32.46399
    Z1       33.37710  -0.00075   0.00000  -0.02845  -0.02845  33.34865
    X2       32.11967  -0.00380   0.00000  -0.04559  -0.04559  32.07409
    Y2       30.77873  -0.00001   0.00000  -0.01268  -0.01268  30.76604
    Z2       27.79919  -0.00492   0.00000  -0.04733  -0.04733  27.75187
    X3       26.44124   0.00065   0.00000   0.00006   0.00006  26.44129
    Y3       26.88608   0.00046   0.00000   0.00318   0.00318  26.88925
    Z3       26.60848  -0.00316   0.00000  -0.02214  -0.02214  26.58634
    X4       28.51616  -0.00203   0.00000  -0.03184  -0.03184  28.48432
    Y4       26.67707  -0.00564   0.00000  -0.04683  -0.04683  26.63024
    Z4       32.48968   0.00115   0.00000  -0.01593  -0.01593  32.47376
    X5       24.72801   0.00166   0.00000   0.04213   0.04213  24.77014
    Y5       21.20726   0.00248   0.00000   0.05038   0.05038  21.25765
    Z5       29.81629   0.00052   0.00000  -0.03401  -0.03401  29.78228
    X6       28.79168   0.00088   0.00000   0.00841   0.00841  28.80009
    Y6       30.47561  -0.00134   0.00000  -0.03709  -0.03709  30.43852
    Z6       21.12582   0.00516   0.00000   0.15699   0.15699  21.28281
    X7       34.40341   0.00089   0.00000   0.01316   0.01316  34.41657
    Y7       34.54760   0.00136   0.00000   0.01129   0.01129  34.55888
    Z7       31.78822   0.00201   0.00000  -0.00914  -0.00914  31.77907
         Item               Value     Threshold  Converged?
 Maximum Force            0.005636     0.000450     NO 
 RMS     Force            0.002604     0.000300     NO 
 Maximum Displacement     0.156993     0.001800     NO 
 RMS     Displacement     0.044930     0.001200     NO 
 Predicted change in Energy=-9.861911D-04
 GradGradGradGradGradGradGradGradGradGradGradGradGradGradGradGradGradGrad

 Leave Link  103 at Wed Nov 29 01:19:28 2023, MaxMem=  1879048192 cpu:               0.2 elap:               0.0
 (Enter /home/sekinelabo/g16/l9999.exe)
 1\1\GINC-SEKINELABO-XA7R-R37\Force\UB3LYP\6-311+G(d)\Na7(2)\SEKINELABO
 \29-Nov-2023\0\\#P B3LYP/6-311+g(d) force\\DPGEN\\0,2\Na,14.8193,17.16
 24,17.6624\Na,16.997,16.2874,14.7107\Na,13.9921,14.2275,14.0806\Na,15.
 0901,14.1169,17.1928\Na,13.0855,11.2224,15.7781\Na,15.2359,16.127,11.1
 793\Na,18.2055,18.2818,16.8216\\Version=ES64L-G16RevB.01\State=2-A\HF=
 -1136.1227633\S2=0.78996\S2-1=0.\S2A=0.750798\RMSD=8.182e-09\RMSF=2.60
 4e-03\Dipole=-0.1302822,0.2373022,0.3094001\Quadrupole=-2.547331,0.821
 6747,1.7256562,-0.1706347,1.5910064,1.076987\PG=C01 [X(Na7)]\\@


 IF YOU'RE NOT PART OF THE SOLUTION,
 THEN YOU'RE PART OF THE PRECIPITATE.
 Job cpu time:       0 days  0 hours  3 minutes 48.5 seconds.
 Elapsed time:       0 days  0 hours  0 minutes 19.6 seconds.
 File lengths (MBytes):  RWF=     32 Int=      0 D2E=      0 Chk=      4 Scr=      1
 Normal termination of Gaussian 16 at Wed Nov 29 01:19:28 2023.
