ITEM: TIMESTEP
3920
ITEM: NUMBER OF ATOMS
7
ITEM: BOX BOUNDS xy xz yz ff ff ff
0.0000000000000000e+00 2.3627484014400000e+01 0.0000000000000000e+00
0.0000000000000000e+00 2.3627484014400000e+01 0.0000000000000000e+00
0.0000000000000000e+00 2.3627484014400000e+01 0.0000000000000000e+00
ITEM: ATOMS id type x y z fx fy fz
3 1 12.3667 9.58581 12.6839 -0.00450546 -0.125813 -0.121925
1 1 10.3054 15.3834 9.88085 0.157599 -0.156651 0.104386
2 1 11.2299 7.89961 10.1588 0.0133792 0.173125 0.0920978
4 1 10.9944 12.8022 13.3644 -0.123469 0.0945379 0.0951992
5 1 13.5074 13.5709 11.4156 -0.0350362 0.0290112 -0.000718659
6 1 10.2452 11.9295 10.2807 -0.0356713 -0.0838837 -0.096718
7 1 14.0472 11.5248 14.9119 0.0277031 0.069674 -0.072322
