ITEM: TIMESTEP
8050
ITEM: NUMBER OF ATOMS
7
ITEM: BOX BOUNDS xy xz yz ff ff ff
0.0000000000000000e+00 2.4490927561500001e+01 0.0000000000000000e+00
0.0000000000000000e+00 2.4490927561500001e+01 0.0000000000000000e+00
0.0000000000000000e+00 2.4490927561500001e+01 0.0000000000000000e+00
ITEM: ATOMS id type x y z fx fy fz
4 1 11.3951 11.7724 9.67761 -0.0310641 0.0015375 -0.0580026
1 1 12.0982 8.47914 9.82569 0.0179174 -0.0294551 -0.00323485
2 1 9.6069 13.8717 11.3563 0.156251 0.13208 0.0726395
3 1 13.0859 11.0217 14.9386 -0.00819868 -0.156973 0.153935
6 1 14.4185 9.75239 12.3836 0.0442645 -0.0834762 -0.12913
7 1 12.7017 14.1986 14.9066 -0.0486466 0.244414 0.00345445
5 1 12.412 16.6222 12.6299 -0.130524 -0.108127 -0.0396622
