 Set GAUSS_MDEF to "14GB".
 Entering Gaussian System, Link 0=g16
 Initial command:
 /home/sekinelabo/g16/l1.exe "/home/sekinelabo/g16temp/Gau-256355.inp" -scrdir="/home/sekinelabo/g16temp/"
 Entering Link 1 = /home/sekinelabo/g16/l1.exe PID=    256357.
  
 Copyright (c) 1988-2017, Gaussian, Inc.  All Rights Reserved.
  
 This is part of the Gaussian(R) 16 program.  It is based on
 the Gaussian(R) 09 system (copyright 2009, Gaussian, Inc.),
 the Gaussian(R) 03 system (copyright 2003, Gaussian, Inc.),
 the Gaussian(R) 98 system (copyright 1998, Gaussian, Inc.),
 the Gaussian(R) 94 system (copyright 1995, Gaussian, Inc.),
 the Gaussian 92(TM) system (copyright 1992, Gaussian, Inc.),
 the Gaussian 90(TM) system (copyright 1990, Gaussian, Inc.),
 the Gaussian 88(TM) system (copyright 1988, Gaussian, Inc.),
 the Gaussian 86(TM) system (copyright 1986, Carnegie Mellon
 University), and the Gaussian 82(TM) system (copyright 1983,
 Carnegie Mellon University). Gaussian is a federally registered
 trademark of Gaussian, Inc.
  
 This software contains proprietary and confidential information,
 including trade secrets, belonging to Gaussian, Inc.
  
 This software is provided under written license and may be
 used, copied, transmitted, or stored only in accord with that
 written license.
  
 The following legend is applicable only to US Government
 contracts under FAR:
  
                    RESTRICTED RIGHTS LEGEND
  
 Use, reproduction and disclosure by the US Government is
 subject to restrictions as set forth in subparagraphs (a)
 and (c) of the Commercial Computer Software - Restricted
 Rights clause in FAR 52.227-19.
  
 Gaussian, Inc.
 340 Quinnipiac St., Bldg. 40, Wallingford CT 06492
  
  
 ---------------------------------------------------------------
 Warning -- This program may not be used in any manner that
 competes with the business of Gaussian, Inc. or will provide
 assistance to any competitor of Gaussian, Inc.  The licensee
 of this program is prohibited from giving any competitor of
 Gaussian, Inc. access to this program.  By using this program,
 the user acknowledges that Gaussian, Inc. is engaged in the
 business of creating and licensing software in the field of
 computational chemistry and represents and warrants to the
 licensee that it is not a competitor of Gaussian, Inc. and that
 it will not use this program in any manner prohibited above.
 ---------------------------------------------------------------
  

 Cite this work as:
 Gaussian 16, Revision B.01,
 M. J. Frisch, G. W. Trucks, H. B. Schlegel, G. E. Scuseria, 
 M. A. Robb, J. R. Cheeseman, G. Scalmani, V. Barone, 
 G. A. Petersson, H. Nakatsuji, X. Li, M. Caricato, A. V. Marenich, 
 J. Bloino, B. G. Janesko, R. Gomperts, B. Mennucci, H. P. Hratchian, 
 J. V. Ortiz, A. F. Izmaylov, J. L. Sonnenberg, D. Williams-Young, 
 F. Ding, F. Lipparini, F. Egidi, J. Goings, B. Peng, A. Petrone, 
 T. Henderson, D. Ranasinghe, V. G. Zakrzewski, J. Gao, N. Rega, 
 G. Zheng, W. Liang, M. Hada, M. Ehara, K. Toyota, R. Fukuda, 
 J. Hasegawa, M. Ishida, T. Nakajima, Y. Honda, O. Kitao, H. Nakai, 
 T. Vreven, K. Throssell, J. A. Montgomery, Jr., J. E. Peralta, 
 F. Ogliaro, M. J. Bearpark, J. J. Heyd, E. N. Brothers, K. N. Kudin, 
 V. N. Staroverov, T. A. Keith, R. Kobayashi, J. Normand, 
 K. Raghavachari, A. P. Rendell, J. C. Burant, S. S. Iyengar, 
 J. Tomasi, M. Cossi, J. M. Millam, M. Klene, C. Adamo, R. Cammi, 
 J. W. Ochterski, R. L. Martin, K. Morokuma, O. Farkas, 
 J. B. Foresman, and D. J. Fox, Gaussian, Inc., Wallingford CT, 2016.
 
 ******************************************
 Gaussian 16:  ES64L-G16RevB.01 20-Dec-2017
                 5-Dec-2023 
 ******************************************
 %nproc=15
 Will use up to   15 processors via shared memory.
 -------------------------
 #P B3LYP/6-311+g(d) force
 -------------------------
 1/10=7,30=1,38=1/1,3;
 2/12=2,17=6,18=5,40=1/2;
 3/5=4,6=6,7=11,11=2,25=1,30=1,71=1,74=-5/1,2,3;
 4//1;
 5/5=2,38=5/2;
 6/7=2,8=2,9=2,10=2,28=1/1;
 7/29=1/1,2,3,16;
 1/10=7,30=1/3;
 99//99;
 Leave Link    1 at Tue Dec  5 16:27:11 2023, MaxMem=           0 cpu:               0.3 elap:               0.0
 (Enter /home/sekinelabo/g16/l101.exe)
 -----
 DPGEN
 -----
 Symbolic Z-matrix:
 Charge =  0 Multiplicity = 2
 Na                    11.79     10.5321   13.4892 
 Na                    14.8465   11.7175   11.413 
 Na                    13.1833   14.1447   13.0479 
 Na                    12.6697   10.305    8.85478 
 Na                    11.359    13.127    10.6104 
 Na                    9.24456   12.5541   13.8005 
 Na                    9.16907   9.88165   11.0463 
 
 ITRead=  0  0  0  0  0  0  0
 MicOpt= -1 -1 -1 -1 -1 -1 -1
 NAtoms=      7 NQM=        7 NQMF=       0 NMMI=      0 NMMIF=      0
                NMic=       0 NMicF=      0.
                    Isotopes and Nuclear Properties:
 (Nuclear quadrupole moments (NQMom) in fm**2, nuclear magnetic moments (NMagM)
  in nuclear magnetons)

  Atom         1           2           3           4           5           6           7
 IAtWgt=          23          23          23          23          23          23          23
 AtmWgt=  22.9897697  22.9897697  22.9897697  22.9897697  22.9897697  22.9897697  22.9897697
 NucSpn=           3           3           3           3           3           3           3
 AtZEff=  -0.0000000  -0.0000000  -0.0000000  -0.0000000  -0.0000000  -0.0000000  -0.0000000
 NQMom=   10.4000000  10.4000000  10.4000000  10.4000000  10.4000000  10.4000000  10.4000000
 NMagM=    2.2175200   2.2175200   2.2175200   2.2175200   2.2175200   2.2175200   2.2175200
 AtZNuc=  11.0000000  11.0000000  11.0000000  11.0000000  11.0000000  11.0000000  11.0000000
 Leave Link  101 at Tue Dec  5 16:27:11 2023, MaxMem=  1879048192 cpu:               2.3 elap:               0.2
 (Enter /home/sekinelabo/g16/l103.exe)

 GradGradGradGradGradGradGradGradGradGradGradGradGradGradGradGradGradGrad
 Berny optimization.
 Initialization pass.
 Trust Radius=3.00D-01 FncErr=1.00D-07 GrdErr=1.00D-07 EigMax=2.50D+02 EigMin=1.00D-04
 Number of steps in this run=      2 maximum allowed number of steps=      2.
 GradGradGradGradGradGradGradGradGradGradGradGradGradGradGradGradGradGrad

 Leave Link  103 at Tue Dec  5 16:27:11 2023, MaxMem=  1879048192 cpu:               0.2 elap:               0.0
 (Enter /home/sekinelabo/g16/l202.exe)
                          Input orientation:                          
 ---------------------------------------------------------------------
 Center     Atomic      Atomic             Coordinates (Angstroms)
 Number     Number       Type             X           Y           Z
 ---------------------------------------------------------------------
      1         11           0       11.790000   10.532100   13.489200
      2         11           0       14.846500   11.717500   11.413000
      3         11           0       13.183300   14.144700   13.047900
      4         11           0       12.669700   10.305000    8.854780
      5         11           0       11.359000   13.127000   10.610400
      6         11           0        9.244560   12.554100   13.800500
      7         11           0        9.169070    9.881650   11.046300
 ---------------------------------------------------------------------
                    Distance matrix (angstroms):
                    1          2          3          4          5
     1  Na   0.000000
     2  Na   3.880460   0.000000
     3  Na   3.897039   3.366071   0.000000
     4  Na   4.722636   3.643913   5.708707   0.000000
     5  Na   3.899584   3.846234   3.210170   3.572649   0.000000
     6  Na   3.265679   6.146689   4.313941   6.422630   3.869859
     7  Na   3.641445   5.978129   6.188218   4.151674   3.939302
                    6          7
     6  Na   0.000000
     7  Na   3.838399   0.000000
 Stoichiometry    Na7(2)
 Framework group  C1[X(Na7)]
 Deg. of freedom    15
 Full point group                 C1      NOp   1
 Largest Abelian subgroup         C1      NOp   1
 Largest concise Abelian subgroup C1      NOp   1
                         Standard orientation:                         
 ---------------------------------------------------------------------
 Center     Atomic      Atomic             Coordinates (Angstroms)
 Number     Number       Type             X           Y           Z
 ---------------------------------------------------------------------
      1         11           0        0.785083   -0.412638    1.929024
      2         11           0       -2.946060   -0.511481    0.867528
      3         11           0       -0.985399   -2.864467   -0.528788
      4         11           0       -1.887843    2.768436   -0.315866
      5         11           0       -0.233461   -0.020863   -1.814749
      6         11           0        3.042374   -1.347033   -0.238048
      7         11           0        2.225307    2.388047    0.100899
 ---------------------------------------------------------------------
 Rotational constants (GHZ):           0.6862695           0.6054792           0.4234614
 Leave Link  202 at Tue Dec  5 16:27:11 2023, MaxMem=  1879048192 cpu:               0.0 elap:               0.0
 (Enter /home/sekinelabo/g16/l301.exe)
 Standard basis: 6-311+G(d) (5D, 7F)
 Ernie: Thresh=  0.10000D-02 Tol=  0.10000D-05 Strict=F.
 There are   217 symmetry adapted cartesian basis functions of A   symmetry.
 There are   210 symmetry adapted basis functions of A   symmetry.
   210 basis functions,   350 primitive gaussians,   217 cartesian basis functions
    39 alpha electrons       38 beta electrons
       nuclear repulsion energy       323.6184763341 Hartrees.
 IExCor=  402 DFT=T Ex+Corr=B3LYP ExCW=0 ScaHFX=  0.200000
 ScaDFX=  0.800000  0.720000  1.000000  0.810000 ScalE2=  1.000000  1.000000
 IRadAn=      5 IRanWt=     -1 IRanGd=            0 ICorTp=0 IEmpDi=  4
 NAtoms=    7 NActive=    7 NUniq=    7 SFac= 1.00D+00 NAtFMM=   60 NAOKFM=F Big=F
 Integral buffers will be    131072 words long.
 Raffenetti 2 integral format.
 Two-electron integral symmetry is turned on.
 Leave Link  301 at Tue Dec  5 16:27:11 2023, MaxMem=  1879048192 cpu:               0.5 elap:               0.0
 (Enter /home/sekinelabo/g16/l302.exe)
 NPDir=0 NMtPBC=     1 NCelOv=     1 NCel=       1 NClECP=     1 NCelD=      1
         NCelK=      1 NCelE2=     1 NClLst=     1 CellRange=     0.0.
 One-electron integrals computed using PRISM.
 One-electron integral symmetry used in STVInt
 NBasis=   210 RedAO= T EigKep=  6.61D-06  NBF=   210
 NBsUse=   210 1.00D-06 EigRej= -1.00D+00 NBFU=   210
 Precomputing XC quadrature grid using
 IXCGrd= 4 IRadAn=           5 IRanWt=          -1 IRanGd=           0 AccXCQ= 0.00D+00.
 Generated NRdTot=       0 NPtTot=           0 NUsed=           0 NTot=          32
 NSgBfM=   211   211   211   211   211 MxSgAt=     7 MxSgA2=     7.
 Leave Link  302 at Tue Dec  5 16:27:11 2023, MaxMem=  1879048192 cpu:               2.0 elap:               0.1
 (Enter /home/sekinelabo/g16/l303.exe)
 DipDrv:  MaxL=1.
 Leave Link  303 at Tue Dec  5 16:27:11 2023, MaxMem=  1879048192 cpu:               0.5 elap:               0.0
 (Enter /home/sekinelabo/g16/l401.exe)
 ExpMin= 7.60D-03 ExpMax= 3.62D+04 ExpMxC= 1.21D+03 IAcc=3 IRadAn=         5 AccDes= 0.00D+00
 Harris functional with IExCor=  402 and IRadAn=       5 diagonalized for initial guess.
 HarFok:  IExCor=  402 AccDes= 0.00D+00 IRadAn=         5 IDoV= 1 UseB2=F ITyADJ=14
 ICtDFT=  3500011 ScaDFX=  1.000000  1.000000  1.000000  1.000000
 FoFCou: FMM=F IPFlag=           0 FMFlag=      100000 FMFlg1=           0
         NFxFlg=           0 DoJE=T BraDBF=F KetDBF=T FulRan=T
         wScrn=  0.000000 ICntrl=       500 IOpCl=  0 I1Cent=   200000004 NGrid=           0
         NMat0=    1 NMatS0=      1 NMatT0=    0 NMatD0=    1 NMtDS0=    0 NMtDT0=    0
 Petite list used in FoFCou.
 Harris En= -1135.90091541315    
 JPrj=0 DoOrth=F DoCkMO=F.
 Initial guess <Sx>= 0.0000 <Sy>= 0.0000 <Sz>= 0.5000 <S**2>= 0.7500 S= 0.5000
 Leave Link  401 at Tue Dec  5 16:27:11 2023, MaxMem=  1879048192 cpu:               4.5 elap:               0.3
 (Enter /home/sekinelabo/g16/l502.exe)
 Keep R1 and R2 ints in memory in canonical form, NReq=506573279.
 FoFCou: FMM=F IPFlag=           0 FMFlag=           0 FMFlg1=           0
         NFxFlg=           0 DoJE=F BraDBF=F KetDBF=F FulRan=T
         wScrn=  0.000000 ICntrl=       600 IOpCl=  0 I1Cent=           0 NGrid=           0
         NMat0=    1 NMatS0=  22155 NMatT0=    0 NMatD0=    1 NMtDS0=    0 NMtDT0=    0
 Symmetry not used in FoFCou.
 Two-electron integral symmetry not used.
 UHF open shell SCF:
 Using DIIS extrapolation, IDIIS=  1040.
 NGot=  1879048192 LenX=  1388082621 LenY=  1388035091
 Requested convergence on RMS density matrix=1.00D-08 within 128 cycles.
 Requested convergence on MAX density matrix=1.00D-06.
 Requested convergence on             energy=1.00D-06.
 No special actions if energy rises.

 Cycle   1  Pass 1  IDiag  1:
 E= -1136.09723276469    
 DIIS: error= 1.21D-02 at cycle   1 NSaved=   1.
 NSaved= 1 IEnMin= 1 EnMin= -1136.09723276469     IErMin= 1 ErrMin= 1.21D-02
 ErrMax= 1.21D-02  0.00D+00 EMaxC= 1.00D-01 BMatC= 1.92D-01 BMatP= 1.92D-01
 IDIUse=3 WtCom= 8.79D-01 WtEn= 1.21D-01
 Coeff-Com:  0.100D+01
 Coeff-En:   0.100D+01
 Coeff:      0.100D+01
 Gap=     0.033 Goal=   None    Shift=    0.000
 Gap=     0.051 Goal=   None    Shift=    0.000
 GapD=    0.033 DampG=0.250 DampE=0.500 DampFc=0.2500 IDamp=-1.
 Damping current iteration by 2.50D-01
 RMSDP=1.29D-02 MaxDP=9.73D-01              OVMax= 2.25D-01

 Cycle   2  Pass 1  IDiag  1:
 E= -1136.10912398559     Delta-E=       -0.011891220902 Rises=F Damp=T
 DIIS: error= 8.36D-03 at cycle   2 NSaved=   2.
 NSaved= 2 IEnMin= 2 EnMin= -1136.10912398559     IErMin= 2 ErrMin= 8.36D-03
 ErrMax= 8.36D-03  0.00D+00 EMaxC= 1.00D-01 BMatC= 7.31D-02 BMatP= 1.92D-01
 IDIUse=3 WtCom= 9.16D-01 WtEn= 8.36D-02
 Coeff-Com: -0.128D+01 0.228D+01
 Coeff-En:   0.000D+00 0.100D+01
 Coeff:     -0.117D+01 0.217D+01
 Gap=     0.050 Goal=   None    Shift=    0.000
 Gap=     0.057 Goal=   None    Shift=    0.000
 RMSDP=7.65D-03 MaxDP=7.83D-01 DE=-1.19D-02 OVMax= 1.50D-01

 Cycle   3  Pass 1  IDiag  1:
 E= -1136.12938940976     Delta-E=       -0.020265424167 Rises=F Damp=F
 DIIS: error= 1.97D-03 at cycle   3 NSaved=   3.
 NSaved= 3 IEnMin= 3 EnMin= -1136.12938940976     IErMin= 3 ErrMin= 1.97D-03
 ErrMax= 1.97D-03  0.00D+00 EMaxC= 1.00D-01 BMatC= 2.23D-03 BMatP= 7.31D-02
 IDIUse=3 WtCom= 9.80D-01 WtEn= 1.97D-02
 Coeff-Com: -0.157D+00 0.287D+00 0.870D+00
 Coeff-En:   0.000D+00 0.000D+00 0.100D+01
 Coeff:     -0.154D+00 0.282D+00 0.872D+00
 Gap=     0.042 Goal=   None    Shift=    0.000
 Gap=     0.051 Goal=   None    Shift=    0.000
 RMSDP=4.69D-03 MaxDP=4.72D-01 DE=-2.03D-02 OVMax= 1.25D-01

 Cycle   4  Pass 1  IDiag  1:
 E= -1136.12521438599     Delta-E=        0.004175023764 Rises=F Damp=F
 DIIS: error= 3.54D-03 at cycle   4 NSaved=   4.
 NSaved= 4 IEnMin= 3 EnMin= -1136.12938940976     IErMin= 3 ErrMin= 1.97D-03
 ErrMax= 3.54D-03  0.00D+00 EMaxC= 1.00D-01 BMatC= 5.08D-03 BMatP= 2.23D-03
 IDIUse=3 WtCom= 1.44D-01 WtEn= 8.56D-01
 Coeff-Com:  0.757D-02-0.675D-02 0.605D+00 0.394D+00
 Coeff-En:   0.000D+00 0.000D+00 0.688D+00 0.312D+00
 Coeff:      0.109D-02-0.971D-03 0.676D+00 0.324D+00
 Gap=     0.045 Goal=   None    Shift=    0.000
 Gap=     0.050 Goal=   None    Shift=    0.000
 RMSDP=1.33D-03 MaxDP=1.19D-01 DE= 4.18D-03 OVMax= 7.59D-02

 Cycle   5  Pass 1  IDiag  1:
 E= -1136.13160860619     Delta-E=       -0.006394220200 Rises=F Damp=F
 DIIS: error= 8.21D-04 at cycle   5 NSaved=   5.
 NSaved= 5 IEnMin= 5 EnMin= -1136.13160860619     IErMin= 5 ErrMin= 8.21D-04
 ErrMax= 8.21D-04  0.00D+00 EMaxC= 1.00D-01 BMatC= 2.30D-04 BMatP= 2.23D-03
 IDIUse=3 WtCom= 9.92D-01 WtEn= 8.21D-03
 Coeff-Com:  0.262D-02-0.443D-02 0.345D+00 0.146D+00 0.510D+00
 Coeff-En:   0.000D+00 0.000D+00 0.915D-03 0.000D+00 0.999D+00
 Coeff:      0.260D-02-0.440D-02 0.342D+00 0.145D+00 0.514D+00
 Gap=     0.047 Goal=   None    Shift=    0.000
 Gap=     0.049 Goal=   None    Shift=    0.000
 RMSDP=4.93D-04 MaxDP=3.26D-02 DE=-6.39D-03 OVMax= 1.21D-02

 Cycle   6  Pass 1  IDiag  1:
 E= -1136.13178753388     Delta-E=       -0.000178927692 Rises=F Damp=F
 DIIS: error= 1.45D-04 at cycle   6 NSaved=   6.
 NSaved= 6 IEnMin= 6 EnMin= -1136.13178753388     IErMin= 6 ErrMin= 1.45D-04
 ErrMax= 1.45D-04  0.00D+00 EMaxC= 1.00D-01 BMatC= 5.31D-06 BMatP= 2.30D-04
 IDIUse=3 WtCom= 9.99D-01 WtEn= 1.45D-03
 Coeff-Com: -0.270D-02 0.305D-02 0.566D-01 0.105D-01 0.175D+00 0.758D+00
 Coeff-En:   0.000D+00 0.000D+00 0.000D+00 0.000D+00 0.000D+00 0.100D+01
 Coeff:     -0.269D-02 0.304D-02 0.566D-01 0.105D-01 0.174D+00 0.758D+00
 Gap=     0.047 Goal=   None    Shift=    0.000
 Gap=     0.050 Goal=   None    Shift=    0.000
 RMSDP=2.03D-04 MaxDP=2.40D-02 DE=-1.79D-04 OVMax= 5.06D-03

 Cycle   7  Pass 1  IDiag  1:
 E= -1136.13178990647     Delta-E=       -0.000002372590 Rises=F Damp=F
 DIIS: error= 1.32D-04 at cycle   7 NSaved=   7.
 NSaved= 7 IEnMin= 7 EnMin= -1136.13178990647     IErMin= 7 ErrMin= 1.32D-04
 ErrMax= 1.32D-04  0.00D+00 EMaxC= 1.00D-01 BMatC= 4.51D-06 BMatP= 5.31D-06
 IDIUse=3 WtCom= 9.99D-01 WtEn= 1.32D-03
 Coeff-Com: -0.278D-02 0.347D-02-0.383D-01-0.270D-01 0.146D-01 0.560D+00
 Coeff-Com:  0.490D+00
 Coeff-En:   0.000D+00 0.000D+00 0.000D+00 0.000D+00 0.000D+00 0.413D+00
 Coeff-En:   0.587D+00
 Coeff:     -0.277D-02 0.347D-02-0.382D-01-0.269D-01 0.146D-01 0.560D+00
 Coeff:      0.490D+00
 Gap=     0.047 Goal=   None    Shift=    0.000
 Gap=     0.050 Goal=   None    Shift=    0.000
 RMSDP=1.28D-04 MaxDP=1.85D-02 DE=-2.37D-06 OVMax= 2.68D-03

 Cycle   8  Pass 1  IDiag  1:
 E= -1136.13179614488     Delta-E=       -0.000006238403 Rises=F Damp=F
 DIIS: error= 2.56D-05 at cycle   8 NSaved=   8.
 NSaved= 8 IEnMin= 8 EnMin= -1136.13179614488     IErMin= 8 ErrMin= 2.56D-05
 ErrMax= 2.56D-05  0.00D+00 EMaxC= 1.00D-01 BMatC= 1.30D-07 BMatP= 4.51D-06
 IDIUse=1 WtCom= 1.00D+00 WtEn= 0.00D+00
 Coeff-Com: -0.127D-03 0.130D-03-0.166D-01-0.830D-02-0.133D-01 0.653D-01
 Coeff-Com:  0.127D+00 0.846D+00
 Coeff:     -0.127D-03 0.130D-03-0.166D-01-0.830D-02-0.133D-01 0.653D-01
 Coeff:      0.127D+00 0.846D+00
 Gap=     0.047 Goal=   None    Shift=    0.000
 Gap=     0.050 Goal=   None    Shift=    0.000
 RMSDP=5.01D-05 MaxDP=6.81D-03 DE=-6.24D-06 OVMax= 8.49D-04

 Cycle   9  Pass 1  IDiag  1:
 E= -1136.13179637644     Delta-E=       -0.000000231566 Rises=F Damp=F
 DIIS: error= 2.22D-05 at cycle   9 NSaved=   9.
 NSaved= 9 IEnMin= 9 EnMin= -1136.13179637644     IErMin= 9 ErrMin= 2.22D-05
 ErrMax= 2.22D-05  0.00D+00 EMaxC= 1.00D-01 BMatC= 9.79D-08 BMatP= 1.30D-07
 IDIUse=1 WtCom= 1.00D+00 WtEn= 0.00D+00
 Coeff-Com:  0.772D-03-0.990D-03-0.114D-02 0.204D-02-0.147D-01-0.111D+00
 Coeff-Com: -0.529D-01 0.571D+00 0.607D+00
 Coeff:      0.772D-03-0.990D-03-0.114D-02 0.204D-02-0.147D-01-0.111D+00
 Coeff:     -0.529D-01 0.571D+00 0.607D+00
 Gap=     0.047 Goal=   None    Shift=    0.000
 Gap=     0.050 Goal=   None    Shift=    0.000
 RMSDP=2.57D-05 MaxDP=2.91D-03 DE=-2.32D-07 OVMax= 4.69D-04

 Cycle  10  Pass 1  IDiag  1:
 E= -1136.13179654884     Delta-E=       -0.000000172398 Rises=F Damp=F
 DIIS: error= 6.11D-06 at cycle  10 NSaved=  10.
 NSaved=10 IEnMin=10 EnMin= -1136.13179654884     IErMin=10 ErrMin= 6.11D-06
 ErrMax= 6.11D-06  0.00D+00 EMaxC= 1.00D-01 BMatC= 5.51D-09 BMatP= 9.79D-08
 IDIUse=1 WtCom= 1.00D+00 WtEn= 0.00D+00
 Coeff-Com:  0.162D-03-0.200D-03 0.171D-02 0.170D-02-0.269D-02-0.219D-01
 Coeff-Com: -0.238D-01-0.475D-01 0.869D-01 0.101D+01
 Coeff:      0.162D-03-0.200D-03 0.171D-02 0.170D-02-0.269D-02-0.219D-01
 Coeff:     -0.238D-01-0.475D-01 0.869D-01 0.101D+01
 Gap=     0.047 Goal=   None    Shift=    0.000
 Gap=     0.050 Goal=   None    Shift=    0.000
 RMSDP=1.15D-05 MaxDP=1.32D-03 DE=-1.72D-07 OVMax= 3.02D-04

 Cycle  11  Pass 1  IDiag  1:
 E= -1136.13179657487     Delta-E=       -0.000000026027 Rises=F Damp=F
 DIIS: error= 2.28D-06 at cycle  11 NSaved=  11.
 NSaved=11 IEnMin=11 EnMin= -1136.13179657487     IErMin=11 ErrMin= 2.28D-06
 ErrMax= 2.28D-06  0.00D+00 EMaxC= 1.00D-01 BMatC= 8.96D-10 BMatP= 5.51D-09
 IDIUse=1 WtCom= 1.00D+00 WtEn= 0.00D+00
 Coeff-Com: -0.115D-03 0.150D-03 0.597D-03-0.205D-03 0.236D-02 0.134D-01
 Coeff-Com:  0.671D-02-0.840D-01-0.105D+00-0.527D-01 0.122D+01
 Coeff:     -0.115D-03 0.150D-03 0.597D-03-0.205D-03 0.236D-02 0.134D-01
 Coeff:      0.671D-02-0.840D-01-0.105D+00-0.527D-01 0.122D+01
 Gap=     0.047 Goal=   None    Shift=    0.000
 Gap=     0.050 Goal=   None    Shift=    0.000
 RMSDP=1.02D-05 MaxDP=1.75D-03 DE=-2.60D-08 OVMax= 2.04D-04

 Cycle  12  Pass 1  IDiag  1:
 E= -1136.13179658255     Delta-E=       -0.000000007684 Rises=F Damp=F
 DIIS: error= 1.03D-06 at cycle  12 NSaved=  12.
 NSaved=12 IEnMin=12 EnMin= -1136.13179658255     IErMin=12 ErrMin= 1.03D-06
 ErrMax= 1.03D-06  0.00D+00 EMaxC= 1.00D-01 BMatC= 1.95D-10 BMatP= 8.96D-10
 IDIUse=1 WtCom= 1.00D+00 WtEn= 0.00D+00
 Coeff-Com: -0.526D-04 0.666D-04-0.772D-04-0.290D-03 0.106D-02 0.667D-02
 Coeff-Com:  0.368D-02-0.178D-01-0.326D-01-0.104D+00 0.162D+00 0.982D+00
 Coeff:     -0.526D-04 0.666D-04-0.772D-04-0.290D-03 0.106D-02 0.667D-02
 Coeff:      0.368D-02-0.178D-01-0.326D-01-0.104D+00 0.162D+00 0.982D+00
 Gap=     0.047 Goal=   None    Shift=    0.000
 Gap=     0.050 Goal=   None    Shift=    0.000
 RMSDP=2.70D-06 MaxDP=3.98D-04 DE=-7.68D-09 OVMax= 8.56D-05

 Cycle  13  Pass 1  IDiag  1:
 E= -1136.13179658405     Delta-E=       -0.000000001500 Rises=F Damp=F
 DIIS: error= 5.67D-07 at cycle  13 NSaved=  13.
 NSaved=13 IEnMin=13 EnMin= -1136.13179658405     IErMin=13 ErrMin= 5.67D-07
 ErrMax= 5.67D-07  0.00D+00 EMaxC= 1.00D-01 BMatC= 7.04D-11 BMatP= 1.95D-10
 IDIUse=1 WtCom= 1.00D+00 WtEn= 0.00D+00
 Coeff-Com:  0.187D-04-0.254D-04-0.182D-03-0.249D-04-0.317D-03-0.230D-02
 Coeff-Com: -0.901D-03 0.229D-01 0.182D-01-0.454D-01-0.256D+00 0.282D+00
 Coeff-Com:  0.982D+00
 Coeff:      0.187D-04-0.254D-04-0.182D-03-0.249D-04-0.317D-03-0.230D-02
 Coeff:     -0.901D-03 0.229D-01 0.182D-01-0.454D-01-0.256D+00 0.282D+00
 Coeff:      0.982D+00
 Gap=     0.047 Goal=   None    Shift=    0.000
 Gap=     0.050 Goal=   None    Shift=    0.000
 RMSDP=1.82D-06 MaxDP=2.56D-04 DE=-1.50D-09 OVMax= 6.23D-05

 Cycle  14  Pass 1  IDiag  1:
 E= -1136.13179658461     Delta-E=       -0.000000000562 Rises=F Damp=F
 DIIS: error= 2.96D-07 at cycle  14 NSaved=  14.
 NSaved=14 IEnMin=14 EnMin= -1136.13179658461     IErMin=14 ErrMin= 2.96D-07
 ErrMax= 2.96D-07  0.00D+00 EMaxC= 1.00D-01 BMatC= 1.68D-11 BMatP= 7.04D-11
 IDIUse=1 WtCom= 1.00D+00 WtEn= 0.00D+00
 Coeff-Com:  0.181D-04-0.233D-04-0.477D-04 0.801D-04-0.412D-03-0.196D-02
 Coeff-Com: -0.107D-02 0.749D-02 0.136D-01 0.298D-01-0.101D+00-0.248D+00
 Coeff-Com:  0.105D+00 0.120D+01
 Coeff:      0.181D-04-0.233D-04-0.477D-04 0.801D-04-0.412D-03-0.196D-02
 Coeff:     -0.107D-02 0.749D-02 0.136D-01 0.298D-01-0.101D+00-0.248D+00
 Coeff:      0.105D+00 0.120D+01
 Gap=     0.047 Goal=   None    Shift=    0.000
 Gap=     0.050 Goal=   None    Shift=    0.000
 RMSDP=1.10D-06 MaxDP=1.50D-04 DE=-5.62D-10 OVMax= 4.12D-05

 Cycle  15  Pass 1  IDiag  1:
 E= -1136.13179658480     Delta-E=       -0.000000000182 Rises=F Damp=F
 DIIS: error= 1.14D-07 at cycle  15 NSaved=  15.
 NSaved=15 IEnMin=15 EnMin= -1136.13179658480     IErMin=15 ErrMin= 1.14D-07
 ErrMax= 1.14D-07  0.00D+00 EMaxC= 1.00D-01 BMatC= 2.38D-12 BMatP= 1.68D-11
 IDIUse=1 WtCom= 1.00D+00 WtEn= 0.00D+00
 Coeff-Com: -0.690D-05 0.931D-05 0.594D-04-0.103D-04 0.149D-03 0.687D-03
 Coeff-Com:  0.405D-03-0.561D-02-0.652D-02-0.232D-02 0.909D-01-0.225D-01
 Coeff-Com: -0.217D+00-0.266D+00 0.143D+01
 Coeff:     -0.690D-05 0.931D-05 0.594D-04-0.103D-04 0.149D-03 0.687D-03
 Coeff:      0.405D-03-0.561D-02-0.652D-02-0.232D-02 0.909D-01-0.225D-01
 Coeff:     -0.217D+00-0.266D+00 0.143D+01
 Gap=     0.047 Goal=   None    Shift=    0.000
 Gap=     0.050 Goal=   None    Shift=    0.000
 RMSDP=4.89D-07 MaxDP=5.84D-05 DE=-1.82D-10 OVMax= 1.80D-05

 Cycle  16  Pass 1  IDiag  1:
 E= -1136.13179658481     Delta-E=       -0.000000000012 Rises=F Damp=F
 DIIS: error= 3.27D-08 at cycle  16 NSaved=  16.
 NSaved=16 IEnMin=16 EnMin= -1136.13179658481     IErMin=16 ErrMin= 3.27D-08
 ErrMax= 3.27D-08  0.00D+00 EMaxC= 1.00D-01 BMatC= 2.42D-13 BMatP= 2.38D-12
 IDIUse=1 WtCom= 1.00D+00 WtEn= 0.00D+00
 Coeff-Com: -0.724D-06 0.873D-06-0.519D-06-0.240D-05 0.111D-04 0.850D-04
 Coeff-Com:  0.139D-04 0.122D-04-0.146D-03 0.245D-03-0.131D-01 0.357D-01
 Coeff-Com:  0.293D-01-0.854D-01-0.255D+00 0.129D+01
 Coeff:     -0.724D-06 0.873D-06-0.519D-06-0.240D-05 0.111D-04 0.850D-04
 Coeff:      0.139D-04 0.122D-04-0.146D-03 0.245D-03-0.131D-01 0.357D-01
 Coeff:      0.293D-01-0.854D-01-0.255D+00 0.129D+01
 Gap=     0.047 Goal=   None    Shift=    0.000
 Gap=     0.050 Goal=   None    Shift=    0.000
 RMSDP=1.02D-07 MaxDP=8.90D-06 DE=-1.23D-11 OVMax= 4.30D-06

 Cycle  17  Pass 1  IDiag  1:
 E= -1136.13179658483     Delta-E=       -0.000000000019 Rises=F Damp=F
 DIIS: error= 1.52D-08 at cycle  17 NSaved=  17.
 NSaved=17 IEnMin=17 EnMin= -1136.13179658483     IErMin=17 ErrMin= 1.52D-08
 ErrMax= 1.52D-08  0.00D+00 EMaxC= 1.00D-01 BMatC= 5.34D-14 BMatP= 2.42D-13
 IDIUse=1 WtCom= 1.00D+00 WtEn= 0.00D+00
 Coeff-Com:  0.634D-06-0.887D-06-0.824D-05-0.433D-07-0.134D-04-0.617D-04
 Coeff-Com: -0.357D-04 0.612D-03 0.839D-03 0.166D-03-0.127D-01 0.894D-02
 Coeff-Com:  0.292D-01 0.246D-01-0.235D+00 0.272D+00 0.912D+00
 Coeff:      0.634D-06-0.887D-06-0.824D-05-0.433D-07-0.134D-04-0.617D-04
 Coeff:     -0.357D-04 0.612D-03 0.839D-03 0.166D-03-0.127D-01 0.894D-02
 Coeff:      0.292D-01 0.246D-01-0.235D+00 0.272D+00 0.912D+00
 Gap=     0.047 Goal=   None    Shift=    0.000
 Gap=     0.050 Goal=   None    Shift=    0.000
 RMSDP=2.13D-08 MaxDP=1.10D-06 DE=-1.91D-11 OVMax= 1.19D-06

 Cycle  18  Pass 1  IDiag  1:
 E= -1136.13179658482     Delta-E=        0.000000000004 Rises=F Damp=F
 DIIS: error= 5.33D-09 at cycle  18 NSaved=  18.
 NSaved=18 IEnMin=17 EnMin= -1136.13179658483     IErMin=18 ErrMin= 5.33D-09
 ErrMax= 5.33D-09  0.00D+00 EMaxC= 1.00D-01 BMatC= 1.03D-14 BMatP= 5.34D-14
 IDIUse=1 WtCom= 1.00D+00 WtEn= 0.00D+00
 Coeff-Com:  0.350D-06-0.447D-06-0.150D-05 0.759D-06-0.557D-05-0.345D-04
 Coeff-Com: -0.900D-05 0.114D-03 0.165D-03 0.876D-04 0.873D-03-0.812D-02
 Coeff-Com: -0.965D-03 0.260D-01 0.263D-01-0.296D+00 0.101D+00 0.115D+01
 Coeff:      0.350D-06-0.447D-06-0.150D-05 0.759D-06-0.557D-05-0.345D-04
 Coeff:     -0.900D-05 0.114D-03 0.165D-03 0.876D-04 0.873D-03-0.812D-02
 Coeff:     -0.965D-03 0.260D-01 0.263D-01-0.296D+00 0.101D+00 0.115D+01
 Gap=     0.047 Goal=   None    Shift=    0.000
 Gap=     0.050 Goal=   None    Shift=    0.000
 RMSDP=1.56D-08 MaxDP=1.73D-06 DE= 4.09D-12 OVMax= 8.15D-07

 Cycle  19  Pass 1  IDiag  1:
 E= -1136.13179658483     Delta-E=       -0.000000000005 Rises=F Damp=F
 DIIS: error= 2.87D-09 at cycle  19 NSaved=  19.
 NSaved=19 IEnMin=19 EnMin= -1136.13179658483     IErMin=19 ErrMin= 2.87D-09
 ErrMax= 2.87D-09  0.00D+00 EMaxC= 1.00D-01 BMatC= 1.54D-15 BMatP= 1.03D-14
 IDIUse=1 WtCom= 1.00D+00 WtEn= 0.00D+00
 Large coefficients: NSaved= 19 BigCof=    0.00 CofMax=   10.00 Det=-2.13D-15
 Inversion failed.  Reducing to 18 matrices.
 Large coefficients: NSaved= 18 BigCof=    0.00 CofMax=   10.00 Det=-2.32D-15
 Inversion failed.  Reducing to 17 matrices.
 Large coefficients: NSaved= 17 BigCof=    0.00 CofMax=   10.00 Det=-2.36D-15
 Inversion failed.  Reducing to 16 matrices.
 Large coefficients: NSaved= 16 BigCof=    0.00 CofMax=   10.00 Det=-2.38D-15
 Inversion failed.  Reducing to 15 matrices.
 Coeff-Com: -0.957D-06 0.106D-05-0.581D-06 0.191D-05-0.287D-04-0.668D-04
 Coeff-Com:  0.517D-03-0.492D-03-0.170D-02-0.181D-02 0.159D-01 0.730D-03
 Coeff-Com: -0.124D+00-0.732D-01 0.118D+01
 Coeff:     -0.957D-06 0.106D-05-0.581D-06 0.191D-05-0.287D-04-0.668D-04
 Coeff:      0.517D-03-0.492D-03-0.170D-02-0.181D-02 0.159D-01 0.730D-03
 Coeff:     -0.124D+00-0.732D-01 0.118D+01
 Gap=     0.047 Goal=   None    Shift=    0.000
 Gap=     0.050 Goal=   None    Shift=    0.000
 RMSDP=7.10D-09 MaxDP=7.25D-07 DE=-5.00D-12 OVMax= 3.28D-07

 SCF Done:  E(UB3LYP) =  -1136.13179658     A.U. after   19 cycles
            NFock= 19  Conv=0.71D-08     -V/T= 2.0029
 <Sx>= 0.0000 <Sy>= 0.0000 <Sz>= 0.5000 <S**2>= 0.7618 S= 0.5059
 <L.S>= 0.000000000000E+00
 KE= 1.132814759999D+03 PE=-3.376528020790D+03 EE= 7.839629878720D+02
 Annihilation of the first spin contaminant:
 S**2 before annihilation     0.7618,   after     0.7501
 Leave Link  502 at Tue Dec  5 16:27:27 2023, MaxMem=  1879048192 cpu:             179.3 elap:              16.0
 (Enter /home/sekinelabo/g16/l601.exe)
 Copying SCF densities to generalized density rwf, IOpCl= 1 IROHF=0.

 **********************************************************************

            Population analysis using the SCF Density.

 **********************************************************************

 Orbital symmetries:
 Alpha Orbitals:
       Occupied  (A) (A) (A) (A) (A) (A) (A) (A) (A) (A) (A) (A)
                 (A) (A) (A) (A) (A) (A) (A) (A) (A) (A) (A) (A)
                 (A) (A) (A) (A) (A) (A) (A) (A) (A) (A) (A) (A)
                 (A) (A) (A)
       Virtual   (A) (A) (A) (A) (A) (A) (A) (A) (A) (A) (A) (A)
                 (A) (A) (A) (A) (A) (A) (A) (A) (A) (A) (A) (A)
                 (A) (A) (A) (A) (A) (A) (A) (A) (A) (A) (A) (A)
                 (A) (A) (A) (A) (A) (A) (A) (A) (A) (A) (A) (A)
                 (A) (A) (A) (A) (A) (A) (A) (A) (A) (A) (A) (A)
                 (A) (A) (A) (A) (A) (A) (A) (A) (A) (A) (A) (A)
                 (A) (A) (A) (A) (A) (A) (A) (A) (A) (A) (A) (A)
                 (A) (A) (A) (A) (A) (A) (A) (A) (A) (A) (A) (A)
                 (A) (A) (A) (A) (A) (A) (A) (A) (A) (A) (A) (A)
                 (A) (A) (A) (A) (A) (A) (A) (A) (A) (A) (A) (A)
                 (A) (A) (A) (A) (A) (A) (A) (A) (A) (A) (A) (A)
                 (A) (A) (A) (A) (A) (A) (A) (A) (A) (A) (A) (A)
                 (A) (A) (A) (A) (A) (A) (A) (A) (A) (A) (A) (A)
                 (A) (A) (A) (A) (A) (A) (A) (A) (A) (A) (A) (A)
                 (A) (A) (A)
 Beta  Orbitals:
       Occupied  (A) (A) (A) (A) (A) (A) (A) (A) (A) (A) (A) (A)
                 (A) (A) (A) (A) (A) (A) (A) (A) (A) (A) (A) (A)
                 (A) (A) (A) (A) (A) (A) (A) (A) (A) (A) (A) (A)
                 (A) (A)
       Virtual   (A) (A) (A) (A) (A) (A) (A) (A) (A) (A) (A) (A)
                 (A) (A) (A) (A) (A) (A) (A) (A) (A) (A) (A) (A)
                 (A) (A) (A) (A) (A) (A) (A) (A) (A) (A) (A) (A)
                 (A) (A) (A) (A) (A) (A) (A) (A) (A) (A) (A) (A)
                 (A) (A) (A) (A) (A) (A) (A) (A) (A) (A) (A) (A)
                 (A) (A) (A) (A) (A) (A) (A) (A) (A) (A) (A) (A)
                 (A) (A) (A) (A) (A) (A) (A) (A) (A) (A) (A) (A)
                 (A) (A) (A) (A) (A) (A) (A) (A) (A) (A) (A) (A)
                 (A) (A) (A) (A) (A) (A) (A) (A) (A) (A) (A) (A)
                 (A) (A) (A) (A) (A) (A) (A) (A) (A) (A) (A) (A)
                 (A) (A) (A) (A) (A) (A) (A) (A) (A) (A) (A) (A)
                 (A) (A) (A) (A) (A) (A) (A) (A) (A) (A) (A) (A)
                 (A) (A) (A) (A) (A) (A) (A) (A) (A) (A) (A) (A)
                 (A) (A) (A) (A) (A) (A) (A) (A) (A) (A) (A) (A)
                 (A) (A) (A) (A)
 The electronic state is 2-A.
 Alpha  occ. eigenvalues --  -38.44471 -38.44443 -38.43886 -38.43861 -38.43627
 Alpha  occ. eigenvalues --  -38.43529 -38.43493  -2.20241  -2.20233  -2.19723
 Alpha  occ. eigenvalues --   -2.19709  -2.19401  -2.19387  -2.19373  -1.13936
 Alpha  occ. eigenvalues --   -1.13924  -1.13904  -1.13893  -1.13873  -1.13853
 Alpha  occ. eigenvalues --   -1.13392  -1.13380  -1.13371  -1.13369  -1.13350
 Alpha  occ. eigenvalues --   -1.13330  -1.13130  -1.13086  -1.13065  -1.13050
 Alpha  occ. eigenvalues --   -1.13042  -1.13018  -1.13009  -1.12999  -1.12976
 Alpha  occ. eigenvalues --   -0.17892  -0.12999  -0.12072  -0.10691
 Alpha virt. eigenvalues --   -0.05975  -0.05428  -0.04707  -0.03468  -0.02854
 Alpha virt. eigenvalues --   -0.02568  -0.01592  -0.01302  -0.00688  -0.00461
 Alpha virt. eigenvalues --   -0.00036   0.00369   0.00695   0.00744   0.00779
 Alpha virt. eigenvalues --    0.00864   0.00911   0.00954   0.01160   0.01208
 Alpha virt. eigenvalues --    0.01254   0.01369   0.01743   0.01812   0.02087
 Alpha virt. eigenvalues --    0.02212   0.02298   0.02453   0.02498   0.02709
 Alpha virt. eigenvalues --    0.02818   0.02842   0.02929   0.02997   0.03069
 Alpha virt. eigenvalues --    0.03102   0.03138   0.03253   0.03303   0.03414
 Alpha virt. eigenvalues --    0.03997   0.04283   0.04355   0.04564   0.04703
 Alpha virt. eigenvalues --    0.04776   0.04839   0.05069   0.05141   0.05307
 Alpha virt. eigenvalues --    0.05803   0.06139   0.06662   0.07148   0.07225
 Alpha virt. eigenvalues --    0.07351   0.07622   0.07768   0.07937   0.08770
 Alpha virt. eigenvalues --    0.08985   0.09453   0.10728   0.10905   0.11442
 Alpha virt. eigenvalues --    0.11667   0.12078   0.12255   0.12337   0.12599
 Alpha virt. eigenvalues --    0.12922   0.13643   0.13905   0.14199   0.14274
 Alpha virt. eigenvalues --    0.14653   0.15060   0.15403   0.15700   0.16785
 Alpha virt. eigenvalues --    0.27099   0.27551   0.28134   0.28806   0.29449
 Alpha virt. eigenvalues --    0.30738   0.30780   0.31169   0.31652   0.33239
 Alpha virt. eigenvalues --    0.33290   0.34352   0.35648   0.37630   0.38367
 Alpha virt. eigenvalues --    0.39351   0.40061   0.40298   0.41219   0.41619
 Alpha virt. eigenvalues --    0.42160   0.42528   0.43266   0.43657   0.43999
 Alpha virt. eigenvalues --    0.44386   0.44719   0.44923   0.45148   0.45404
 Alpha virt. eigenvalues --    0.45721   0.46205   0.46515   0.47788   0.48125
 Alpha virt. eigenvalues --    0.48283   0.48913   0.49574   0.49690   0.51327
 Alpha virt. eigenvalues --    0.51575   0.52315   0.52621   0.53534   0.54295
 Alpha virt. eigenvalues --    0.55709   0.56434   0.57451   0.57726   0.58394
 Alpha virt. eigenvalues --    0.59016   0.59586   0.63407   0.64899   0.67293
 Alpha virt. eigenvalues --    0.67653   2.02884   2.10163   2.12594   2.15050
 Alpha virt. eigenvalues --    2.18439   2.19503   2.20710   4.43108   4.43962
 Alpha virt. eigenvalues --    4.44431   4.45293   4.45626   4.45827   4.46057
 Alpha virt. eigenvalues --    4.46217   4.46356   4.47373   4.47578   4.48356
 Alpha virt. eigenvalues --    4.48889   4.49169   4.50360   4.52568   4.53281
 Alpha virt. eigenvalues --    4.53929   4.57310   4.60416   4.64806  96.22804
 Alpha virt. eigenvalues --   96.30292  96.33543  96.36388  96.40619  96.42032
 Alpha virt. eigenvalues --   96.43669
  Beta  occ. eigenvalues --  -38.44471 -38.44442 -38.43862 -38.43794 -38.43627
  Beta  occ. eigenvalues --  -38.43517 -38.43418  -2.20241  -2.20234  -2.19665
  Beta  occ. eigenvalues --   -2.19598  -2.19403  -2.19355  -2.19250  -1.13928
  Beta  occ. eigenvalues --   -1.13914  -1.13903  -1.13889  -1.13870  -1.13854
  Beta  occ. eigenvalues --   -1.13346  -1.13337  -1.13317  -1.13305  -1.13286
  Beta  occ. eigenvalues --   -1.13239  -1.13083  -1.13075  -1.13061  -1.13045
  Beta  occ. eigenvalues --   -1.12999  -1.12989  -1.12959  -1.12917  -1.12889
  Beta  occ. eigenvalues --   -0.17187  -0.12790  -0.11863
  Beta virt. eigenvalues --   -0.06893  -0.05998  -0.05202  -0.04609  -0.02770
  Beta virt. eigenvalues --   -0.02202  -0.01619  -0.01512  -0.01230  -0.00633
  Beta virt. eigenvalues --   -0.00472   0.00098   0.00405   0.00722   0.00807
  Beta virt. eigenvalues --    0.00868   0.00901   0.01015   0.01140   0.01275
  Beta virt. eigenvalues --    0.01384   0.01410   0.01498   0.01776   0.01844
  Beta virt. eigenvalues --    0.02158   0.02221   0.02386   0.02436   0.02490
  Beta virt. eigenvalues --    0.02795   0.02848   0.02954   0.03039   0.03044
  Beta virt. eigenvalues --    0.03115   0.03153   0.03281   0.03297   0.03410
  Beta virt. eigenvalues --    0.03495   0.04067   0.04345   0.04425   0.04667
  Beta virt. eigenvalues --    0.04749   0.04867   0.04974   0.05236   0.05392
  Beta virt. eigenvalues --    0.05462   0.06149   0.06183   0.06704   0.07158
  Beta virt. eigenvalues --    0.07271   0.07534   0.07725   0.07922   0.08070
  Beta virt. eigenvalues --    0.08915   0.09261   0.09751   0.10809   0.11047
  Beta virt. eigenvalues --    0.11523   0.11867   0.12305   0.12426   0.12662
  Beta virt. eigenvalues --    0.12948   0.13160   0.13777   0.14078   0.14328
  Beta virt. eigenvalues --    0.14442   0.14812   0.15341   0.15791   0.16077
  Beta virt. eigenvalues --    0.17156   0.27297   0.27837   0.28440   0.29067
  Beta virt. eigenvalues --    0.29798   0.30899   0.31186   0.31504   0.32020
  Beta virt. eigenvalues --    0.33399   0.33552   0.34608   0.35865   0.37691
  Beta virt. eigenvalues --    0.38631   0.39523   0.40094   0.40414   0.41408
  Beta virt. eigenvalues --    0.41647   0.42255   0.42757   0.43384   0.43922
  Beta virt. eigenvalues --    0.44203   0.44568   0.44871   0.45071   0.45387
  Beta virt. eigenvalues --    0.45582   0.45800   0.46439   0.46620   0.48034
  Beta virt. eigenvalues --    0.48246   0.48352   0.49027   0.49660   0.49812
  Beta virt. eigenvalues --    0.51450   0.51721   0.52592   0.52827   0.53551
  Beta virt. eigenvalues --    0.54593   0.55915   0.56646   0.57672   0.58002
  Beta virt. eigenvalues --    0.58669   0.59275   0.59856   0.63470   0.65113
  Beta virt. eigenvalues --    0.67578   0.67823   2.03000   2.10191   2.12614
  Beta virt. eigenvalues --    2.15047   2.18546   2.19753   2.20969   4.43172
  Beta virt. eigenvalues --    4.44035   4.44460   4.45308   4.45646   4.45847
  Beta virt. eigenvalues --    4.46082   4.46217   4.46396   4.47467   4.47615
  Beta virt. eigenvalues --    4.48390   4.48918   4.49228   4.50418   4.52619
  Beta virt. eigenvalues --    4.53320   4.53962   4.57375   4.60496   4.64884
  Beta virt. eigenvalues --   96.22840  96.30304  96.33552  96.36389  96.40659
  Beta virt. eigenvalues --   96.42111  96.43735
          Condensed to atoms (all electrons):
               1          2          3          4          5          6
     1  Na  13.343183   1.111751  -0.477835  -0.037557  -2.418056  -0.550036
     2  Na   1.111751  11.283497  -0.107686   0.158150  -1.378938  -0.137595
     3  Na  -0.477835  -0.107686  10.933476   0.100052  -0.002572   0.389041
     4  Na  -0.037557   0.158150   0.100052  10.651249  -0.047268   0.091750
     5  Na  -2.418056  -1.378938  -0.002572  -0.047268  14.847919   0.095143
     6  Na  -0.550036  -0.137595   0.389041   0.091750   0.095143  10.835089
     7  Na  -0.015845   0.202294   0.022101   0.174469  -0.216181   0.200545
               7
     1  Na  -0.015845
     2  Na   0.202294
     3  Na   0.022101
     4  Na   0.174469
     5  Na  -0.216181
     6  Na   0.200545
     7  Na  10.794130
          Atomic-Atomic Spin Densities.
               1          2          3          4          5          6
     1  Na   2.309634   0.943121  -0.202658   0.090391  -2.471562  -0.251166
     2  Na   0.943121   0.621700  -0.114995   0.023178  -1.136188  -0.128191
     3  Na  -0.202658  -0.114995   0.032576  -0.020333   0.339722   0.006863
     4  Na   0.090391   0.023178  -0.020333  -0.049871  -0.017443  -0.034539
     5  Na  -2.471562  -1.136188   0.339722  -0.017443   3.412953   0.380013
     6  Na  -0.251166  -0.128191   0.006863  -0.034539   0.380013  -0.019523
     7  Na   0.104696  -0.030911  -0.029067  -0.044237   0.058681  -0.063946
               7
     1  Na   0.104696
     2  Na  -0.030911
     3  Na  -0.029067
     4  Na  -0.044237
     5  Na   0.058681
     6  Na  -0.063946
     7  Na  -0.110330
 Mulliken charges and spin densities:
               1          2
     1  Na   0.044395   0.522457
     2  Na  -0.131473   0.177715
     3  Na   0.143424   0.012108
     4  Na  -0.090846  -0.052854
     5  Na   0.119952   0.566176
     6  Na   0.076062  -0.110489
     7  Na  -0.161514  -0.115113
 Sum of Mulliken charges =  -0.00000   1.00000
 Mulliken charges and spin densities with hydrogens summed into heavy atoms:
               1          2
     1  Na   0.044395   0.522457
     2  Na  -0.131473   0.177715
     3  Na   0.143424   0.012108
     4  Na  -0.090846  -0.052854
     5  Na   0.119952   0.566176
     6  Na   0.076062  -0.110489
     7  Na  -0.161514  -0.115113
 Electronic spatial extent (au):  <R**2>=           2506.0360
 Charge=             -0.0000 electrons
 Dipole moment (field-independent basis, Debye):
    X=              0.6767    Y=             -0.0372    Z=              0.0923  Tot=              0.6839
 Quadrupole moment (field-independent basis, Debye-Ang):
   XX=            -57.6105   YY=            -62.2411   ZZ=            -74.1119
   XY=              0.1209   XZ=             -2.5178   YZ=              0.9850
 Traceless Quadrupole moment (field-independent basis, Debye-Ang):
   XX=              7.0440   YY=              2.4134   ZZ=             -9.4574
   XY=              0.1209   XZ=             -2.5178   YZ=              0.9850
 Octapole moment (field-independent basis, Debye-Ang**2):
  XXX=             13.5246  YYY=              0.8529  ZZZ=              2.9727  XYY=              6.3288
  XXY=             -1.6721  XXZ=             -0.2564  XZZ=              0.5012  YZZ=             -0.6572
  YYZ=             -4.3532  XYZ=              3.5400
 Hexadecapole moment (field-independent basis, Debye-Ang**3):
 XXXX=          -1695.1297 YYYY=          -1548.1798 ZZZZ=           -831.9352 XXXY=            -30.9577
 XXXZ=            -83.7912 YYYX=             27.9118 YYYZ=             31.1397 ZZZX=              3.6080
 ZZZY=             -4.4466 XXYY=           -491.0511 XXZZ=           -481.5058 YYZZ=           -460.7683
 XXYZ=              3.1895 YYXZ=             13.6016 ZZXY=              0.8652
 N-N= 3.236184763341D+02 E-N=-3.376528020750D+03  KE= 1.132814759999D+03
                          Isotropic Fermi Contact Couplings
        Atom                 a.u.       MegaHertz       Gauss      10(-4) cm-1
     1  Na(23)             0.27350     323.55973     115.45416     107.92791
     2  Na(23)             0.08674     102.61561      36.61580      34.22888
     3  Na(23)             0.00818       9.67840       3.45349       3.22837
     4  Na(23)            -0.01947     -23.03242      -8.21854      -7.68279
     5  Na(23)             0.29606     350.25324     124.97907     116.83191
     6  Na(23)            -0.02557     -30.25230     -10.79477     -10.09108
     7  Na(23)            -0.01785     -21.11322      -7.53372      -7.04261
 --------------------------------------------------------
       Center         ----  Spin Dipole Couplings  ----
                      3XX-RR        3YY-RR        3ZZ-RR
 --------------------------------------------------------
     1   Atom        0.004900     -0.004752     -0.000148
     2   Atom       -0.003139     -0.010403      0.013542
     3   Atom       -0.013721     -0.013264      0.026985
     4   Atom       -0.005013     -0.006008      0.011021
     5   Atom       -0.007470      0.009813     -0.002343
     6   Atom       -0.008599     -0.013187      0.021785
     7   Atom       -0.007698     -0.007576      0.015274
 --------------------------------------------------------
                        XY            XZ            YZ
 --------------------------------------------------------
     1   Atom        0.001345     -0.003239     -0.000590
     2   Atom        0.001280      0.009433     -0.000385
     3   Atom        0.004911     -0.013370     -0.010473
     4   Atom       -0.002172     -0.007085      0.000206
     5   Atom       -0.003259     -0.001767      0.007069
     6   Atom       -0.000619      0.006523      0.003528
     7   Atom        0.002480      0.003365     -0.003970
 --------------------------------------------------------


 ---------------------------------------------------------------------------------
              Anisotropic Spin Dipole Couplings in Principal Axis System
 ---------------------------------------------------------------------------------

       Atom             a.u.   MegaHertz   Gauss  10(-4) cm-1        Axes

              Baa    -0.0049    -0.698    -0.249    -0.233 -0.1226  0.9917  0.0393
     1 Na(23) Bbb    -0.0017    -0.244    -0.087    -0.081  0.4359  0.0183  0.8998
              Bcc     0.0067     0.942     0.336     0.314  0.8916  0.1274 -0.4346
 
              Baa    -0.0109    -1.540    -0.549    -0.514 -0.3241  0.9356  0.1398
     2 Na(23) Bbb    -0.0069    -0.973    -0.347    -0.325  0.8520  0.3529 -0.3867
              Bcc     0.0178     2.513     0.897     0.838  0.4112  0.0062  0.9115
 
              Baa    -0.0187    -2.646    -0.944    -0.883  0.8498 -0.5104  0.1316
     3 Na(23) Bbb    -0.0150    -2.122    -0.757    -0.708  0.4428  0.8267  0.3470
              Bcc     0.0338     4.769     1.702     1.591 -0.2859 -0.2366  0.9286
 
              Baa    -0.0090    -1.270    -0.453    -0.424  0.7870  0.5533  0.2729
     4 Na(23) Bbb    -0.0048    -0.671    -0.240    -0.224 -0.5026  0.8315 -0.2366
              Bcc     0.0137     1.942     0.693     0.648 -0.3578  0.0490  0.9325
 
              Baa    -0.0081    -1.149    -0.410    -0.383  0.9807  0.1161  0.1573
     5 Na(23) Bbb    -0.0056    -0.786    -0.280    -0.262 -0.0927 -0.4320  0.8971
              Bcc     0.0137     1.935     0.691     0.645 -0.1721  0.8944  0.4129
 
              Baa    -0.0139    -1.966    -0.701    -0.656  0.2893  0.9460 -0.1463
     6 Na(23) Bbb    -0.0095    -1.343    -0.479    -0.448  0.9367 -0.3113 -0.1602
              Bcc     0.0234     3.309     1.181     1.104  0.1971  0.0907  0.9762
 
              Baa    -0.0111    -1.573    -0.561    -0.525 -0.6911  0.6965  0.1928
     7 Na(23) Bbb    -0.0052    -0.729    -0.260    -0.243  0.7124  0.7016  0.0190
              Bcc     0.0163     2.302     0.821     0.768  0.1220 -0.1505  0.9811
 

 ---------------------------------------------------------------------------------

 No NMR shielding tensors so no spin-rotation constants.
 Leave Link  601 at Tue Dec  5 16:27:28 2023, MaxMem=  1879048192 cpu:               2.3 elap:               0.2
 (Enter /home/sekinelabo/g16/l701.exe)
 ... and contract with generalized density number  0.
 Compute integral first derivatives.
 Leave Link  701 at Tue Dec  5 16:27:28 2023, MaxMem=  1879048192 cpu:               1.7 elap:               0.1
 (Enter /home/sekinelabo/g16/l702.exe)
 L702 exits ... SP integral derivatives will be done elsewhere.
 Leave Link  702 at Tue Dec  5 16:27:28 2023, MaxMem=  1879048192 cpu:               0.4 elap:               0.0
 (Enter /home/sekinelabo/g16/l703.exe)
 Integral derivatives from FoFJK, PRISM(SPDF).
 Compute integral first derivatives, UseDBF=F ICtDFT=           0.
 Calling FoFJK, ICntrl=      2127 FMM=F ISym2X=0 I1Cent= 0 IOpClX= 1 NMat=1 NMatS=1 NMatT=0.
 FoFJK:  IHMeth= 1 ICntrl=    2127 DoSepK=F KAlg= 0 I1Cent=           0 FoldK=F
 IRaf=         0 NMat=       1 IRICut=       1 DoRegI=T DoRafI=F ISym2E= 0 IDoP0=0 IntGTp=1.
 FoFCou: FMM=F IPFlag=           0 FMFlag=      100000 FMFlg1=         800
         NFxFlg=           0 DoJE=F BraDBF=F KetDBF=F FulRan=T
         wScrn=  0.000000 ICntrl=      2127 IOpCl=  1 I1Cent=           0 NGrid=           0
         NMat0=    1 NMatS0=      1 NMatT0=    0 NMatD0=    1 NMtDS0=    0 NMtDT0=    0
 Symmetry not used in FoFCou.
 Leave Link  703 at Tue Dec  5 16:27:30 2023, MaxMem=  1879048192 cpu:              32.7 elap:               2.2
 (Enter /home/sekinelabo/g16/l716.exe)
 Dipole        = 2.66215966D-01-1.46347823D-02 3.62996447D-02
 ***** Axes restored to original set *****
 -------------------------------------------------------------------
 Center     Atomic                   Forces (Hartrees/Bohr)
 Number     Number              X              Y              Z
 -------------------------------------------------------------------
      1       11           0.002301604    0.000619953   -0.002416670
      2       11          -0.002925458   -0.001041688   -0.000442004
      3       11          -0.001244944   -0.000190560    0.003102334
      4       11          -0.002519897    0.000434813    0.003219968
      5       11          -0.001402656   -0.003161426   -0.000906758
      6       11           0.001630199    0.000160822   -0.002859945
      7       11           0.004161152    0.003178087    0.000303075
 -------------------------------------------------------------------
 Cartesian Forces:  Max     0.004161152 RMS     0.002189073
 Z-matrix is all fixed cartesians, so copy forces.
 Force constants in Cartesian coordinates: 
                1             2             3             4             5 
      1  0.731014D-01
      2 -0.113514D-01  0.934713D-01
      3  0.701571D-02 -0.181095D-01  0.846557D-01
      4 -0.159718D-01  0.967597D-02 -0.795933D-02  0.806032D-01
      5 -0.133513D-01 -0.137006D-01  0.789616D-02 -0.590948D-02  0.512098D-01
      6  0.111821D-01 -0.585104D-03 -0.165492D-01 -0.764655D-04  0.553553D-02
      7 -0.811199D-02  0.207362D-02 -0.670440D-02 -0.200593D-01  0.175961D-01
      8 -0.220662D-02 -0.211635D-01 -0.944964D-02 -0.578288D-02 -0.198392D-01
      9  0.193191D-02  0.127138D-01 -0.810932D-02 -0.474468D-02 -0.854748D-02
     10  0.177090D-02  0.112895D-02  0.279228D-02 -0.190520D-01 -0.801567D-02
     11 -0.250345D-03  0.239380D-02  0.293939D-02  0.550833D-02 -0.854658D-02
     12 -0.548449D-04 -0.425388D-02 -0.597273D-02  0.389765D-02 -0.654479D-02
     13 -0.123741D-01  0.374635D-02 -0.264431D-02 -0.198435D-01  0.118869D-01
     14  0.476009D-02 -0.199953D-01  0.894258D-02 -0.279122D-02 -0.161821D-01
     15 -0.330886D-02  0.426684D-02 -0.184570D-01  0.606182D-02  0.501634D-02
     16 -0.224717D-01  0.507449D-02  0.121866D-01 -0.231951D-02  0.200713D-02
     17  0.127424D-01 -0.286154D-01 -0.551326D-02 -0.101526D-02  0.463857D-02
     18 -0.850878D-02  0.121032D-01 -0.149941D-01  0.123674D-02 -0.289100D-02
     19 -0.159427D-01 -0.103479D-01 -0.468658D-02 -0.335715D-02 -0.421377D-02
     20  0.965712D-02 -0.123903D-01  0.132943D-01  0.314537D-03  0.242006D-02
     21 -0.825728D-02 -0.613536D-02 -0.205733D-01  0.158427D-02 -0.464755D-03
                6             7             8             9            10 
      6  0.476049D-01
      7  0.112010D-01  0.504787D-01
      8 -0.854709D-02  0.182798D-02  0.616115D-01
      9 -0.136266D-01  0.461819D-02  0.137740D-01  0.500158D-01
     10 -0.123472D-01  0.707548D-02 -0.218643D-02  0.838653D-03  0.284194D-01
     11 -0.153710D-02 -0.232099D-02  0.534325D-03 -0.303720D-02 -0.219567D-03
     12 -0.101763D-01  0.526761D-03 -0.421657D-02 -0.563654D-03  0.172369D-02
     13 -0.114577D-01 -0.232973D-01  0.103121D-01 -0.602456D-02 -0.160379D-01
     14  0.850191D-02 -0.965602D-02 -0.240778D-01 -0.133843D-01  0.498555D-02
     15 -0.144400D-01 -0.673065D-02  0.137545D-01 -0.350935D-01  0.407716D-02
     16  0.376752D-02 -0.633258D-02  0.109980D-03  0.331684D-02  0.231730D-03
     17 -0.198913D-02 -0.574506D-02  0.127010D-02  0.190743D-02  0.235402D-02
     18  0.360656D-02 -0.144678D-02 -0.117372D-02  0.241028D-02  0.589503D-03
     19 -0.226931D-02  0.246993D-03 -0.207413D-02  0.636584D-04 -0.240758D-02
     20 -0.137902D-02 -0.377566D-02  0.166461D-02 -0.342630D-02  0.195314D-02
     21  0.358071D-02 -0.146409D-02 -0.414149D-02  0.496703D-02  0.232587D-02
               11            12            13            14            15 
     11  0.273139D-01
     12  0.755405D-02  0.307608D-01
     13 -0.405727D-03 -0.816872D-02  0.922612D-01
     14 -0.265612D-01  0.121863D-01 -0.107997D-01  0.122712D+00
     15 -0.779552D-02 -0.131169D-01  0.140605D-01 -0.210214D-01  0.116086D+00
     16 -0.393426D-03  0.763273D-03 -0.109716D-01  0.826859D-02 -0.527635D-02
     17  0.339587D-02 -0.374107D-02 -0.763974D-02 -0.153508D-01  0.128800D-01
     18  0.321869D-03 -0.162109D-03  0.803098D-02 -0.828810D-02 -0.208848D-01
     19 -0.191828D-02  0.131219D-02 -0.973679D-02  0.523268D-02 -0.888361D-02
     20  0.146986D-02 -0.984069D-03 -0.710022D-02 -0.205445D-01 -0.710074D-02
     21  0.155450D-02 -0.769186D-03  0.620381D-02  0.130630D-01 -0.140937D-01
               16            17            18            19            20 
     16  0.448195D-01
     17 -0.732913D-02  0.460375D-01
     18 -0.871290D-02  0.704349D-02  0.413533D-01
     19 -0.295584D-02  0.663273D-02  0.881123D-02  0.341531D-01
     20 -0.773763D-02 -0.113758D-01 -0.711576D-02  0.668871D-02  0.387560D-01
     21 -0.604500D-02 -0.105875D-01 -0.113291D-01  0.565242D-02  0.671161D-02
               21 
     21  0.382176D-01
 Leave Link  716 at Tue Dec  5 16:27:30 2023, MaxMem=  1879048192 cpu:               0.4 elap:               0.0
 (Enter /home/sekinelabo/g16/l103.exe)

 GradGradGradGradGradGradGradGradGradGradGradGradGradGradGradGradGradGrad
 Berny optimization.
 Search for a local minimum.
 Step number   1 out of a maximum of    2
 All quantities printed in internal units (Hartrees-Bohrs-Radians)
 Second derivative matrix not updated -- first step.
 ITU=  0
     Eigenvalues ---    0.02348   0.02667   0.03980   0.04205   0.04818
     Eigenvalues ---    0.05784   0.06714   0.08506   0.09354   0.09635
     Eigenvalues ---    0.10384   0.11255   0.12976   0.14089   0.17650
 Quadratic step=3.100D-01 exceeds max=3.000D-01 adjusted using Lamda=-8.017D-04.
 Angle between NR and scaled steps=   0.33 degrees.
 Angle between quadratic step and forces=  25.80 degrees.
 Linear search not attempted -- first point.
 B after Tr=     0.000000    0.000000    0.000000
         Rot=    1.000000   -0.000000   -0.000000    0.000000 Ang=   0.00 deg.
 Variable       Old X    -DE/DX   Delta X   Delta X   Delta X     New X
                                 (Linear)    (Quad)   (Total)
    X1       22.27987   0.00230   0.00000   0.05097   0.05097  22.33084
    Y1       19.90278   0.00062   0.00000   0.02562   0.02562  19.92841
    Z1       25.49089  -0.00242   0.00000  -0.05235  -0.05235  25.43854
    X2       28.05582  -0.00293   0.00000  -0.07495  -0.07495  27.98087
    Y2       22.14287  -0.00104   0.00000  -0.00369  -0.00369  22.13918
    Z2       21.56744  -0.00044   0.00000  -0.00868  -0.00868  21.55876
    X3       24.91283  -0.00124   0.00000  -0.04104  -0.04104  24.87178
    Y3       26.72961  -0.00019   0.00000  -0.03313  -0.03313  26.69648
    Z3       24.65696   0.00310   0.00000   0.05691   0.05691  24.71386
    X4       23.94226  -0.00252   0.00000  -0.13221  -0.13221  23.81005
    Y4       19.47363   0.00043   0.00000  -0.01344  -0.01344  19.46019
    Z4       16.73311   0.00322   0.00000   0.11730   0.11730  16.85041
    X5       21.46540  -0.00140   0.00000  -0.01232  -0.01232  21.45307
    Y5       24.80643  -0.00316   0.00000  -0.03557  -0.03557  24.77087
    Z5       20.05075  -0.00091   0.00000   0.01519   0.01519  20.06594
    X6       17.46969   0.00163   0.00000   0.06122   0.06122  17.53091
    Y6       23.72381   0.00016   0.00000  -0.00141  -0.00141  23.72240
    Z6       26.07917  -0.00286   0.00000  -0.09562  -0.09562  25.98354
    X7       17.32703   0.00416   0.00000   0.14834   0.14834  17.47538
    Y7       18.67361   0.00318   0.00000   0.06161   0.06161  18.73522
    Z7       20.87448   0.00030   0.00000  -0.03274  -0.03274  20.84174
         Item               Value     Threshold  Converged?
 Maximum Force            0.004161     0.000450     NO 
 RMS     Force            0.002189     0.000300     NO 
 Maximum Displacement     0.148344     0.001800     NO 
 RMS     Displacement     0.065667     0.001200     NO 
 Predicted change in Energy=-1.395178D-03
 GradGradGradGradGradGradGradGradGradGradGradGradGradGradGradGradGradGrad

 Leave Link  103 at Tue Dec  5 16:27:30 2023, MaxMem=  1879048192 cpu:               0.2 elap:               0.0
 (Enter /home/sekinelabo/g16/l9999.exe)
 1\1\GINC-SEKINELABO-XA7R-R37\Force\UB3LYP\6-311+G(d)\Na7(2)\SEKINELABO
 \05-Dec-2023\0\\#P B3LYP/6-311+g(d) force\\DPGEN\\0,2\Na,11.79,10.5321
 ,13.4892\Na,14.8465,11.7175,11.413\Na,13.1833,14.1447,13.0479\Na,12.66
 97,10.305,8.85478\Na,11.359,13.127,10.6104\Na,9.24456,12.5541,13.8005\
 Na,9.16907,9.88165,11.0463\\Version=ES64L-G16RevB.01\State=2-A\HF=-113
 6.1317966\S2=0.76185\S2-1=0.\S2A=0.750091\RMSD=7.099e-09\RMSF=2.189e-0
 3\Dipole=-0.2259275,-0.0409596,0.140292\Quadrupole=4.6976827,-2.507330
 8,-2.1903519,1.2998927,-2.5065517,4.420688\PG=C01 [X(Na7)]\\@


    UPON JULIA'S CLOTHES

 WHENAS IN SILKS MY JULIA GOES,
 THEN, THEN, METHINKS, HOW SWEETLY FLOWS
 THAT LIQUEFACTION OF HER CLOTHES.

 NEXT, WHEN I CAST MINE EYES, AND SEE
 THAT BRAVE VIBRATION, EACH WAY FREE,
 O, HOW THAT GLITTERING TAKETH ME!
     -- ROBERT HERRICK, 1648
 Job cpu time:       0 days  0 hours  3 minutes 48.2 seconds.
 Elapsed time:       0 days  0 hours  0 minutes 19.3 seconds.
 File lengths (MBytes):  RWF=     32 Int=      0 D2E=      0 Chk=      4 Scr=      1
 Normal termination of Gaussian 16 at Tue Dec  5 16:27:30 2023.
