ITEM: TIMESTEP
3010
ITEM: NUMBER OF ATOMS
7
ITEM: BOX BOUNDS xy xz yz ff ff ff
0.0000000000000000e+00 2.5849589882899998e+01 0.0000000000000000e+00
0.0000000000000000e+00 2.5849589882899998e+01 0.0000000000000000e+00
0.0000000000000000e+00 2.5849589882899998e+01 0.0000000000000000e+00
ITEM: ATOMS id type x y z fx fy fz
3 1 11.3972 12.6587 10.271 -0.00696679 -0.024099 -0.00945735
4 1 14.6814 12.3944 9.77783 -0.00550161 0.0287781 0.0941099
1 1 10.7748 11.9169 13.7983 -0.228957 -0.196097 0.0356585
7 1 16.5831 12.8801 12.5541 -0.0593002 -0.00711428 -0.0162083
6 1 13.901 12.0024 14.5457 0.112501 0.0651001 0.0109472
5 1 11.2712 13.9337 16.6066 0.0554312 -0.032509 -0.11314
2 1 11.8649 14.6872 12.9201 0.132793 0.165941 -0.00190963
