 Set GAUSS_MDEF to "14GB".
 Entering Gaussian System, Link 0=g16
 Initial command:
 /home/sekinelabo/g16/l1.exe "/home/sekinelabo/g16temp/Gau-157571.inp" -scrdir="/home/sekinelabo/g16temp/"
 Entering Link 1 = /home/sekinelabo/g16/l1.exe PID=    157573.
  
 Copyright (c) 1988-2017, Gaussian, Inc.  All Rights Reserved.
  
 This is part of the Gaussian(R) 16 program.  It is based on
 the Gaussian(R) 09 system (copyright 2009, Gaussian, Inc.),
 the Gaussian(R) 03 system (copyright 2003, Gaussian, Inc.),
 the Gaussian(R) 98 system (copyright 1998, Gaussian, Inc.),
 the Gaussian(R) 94 system (copyright 1995, Gaussian, Inc.),
 the Gaussian 92(TM) system (copyright 1992, Gaussian, Inc.),
 the Gaussian 90(TM) system (copyright 1990, Gaussian, Inc.),
 the Gaussian 88(TM) system (copyright 1988, Gaussian, Inc.),
 the Gaussian 86(TM) system (copyright 1986, Carnegie Mellon
 University), and the Gaussian 82(TM) system (copyright 1983,
 Carnegie Mellon University). Gaussian is a federally registered
 trademark of Gaussian, Inc.
  
 This software contains proprietary and confidential information,
 including trade secrets, belonging to Gaussian, Inc.
  
 This software is provided under written license and may be
 used, copied, transmitted, or stored only in accord with that
 written license.
  
 The following legend is applicable only to US Government
 contracts under FAR:
  
                    RESTRICTED RIGHTS LEGEND
  
 Use, reproduction and disclosure by the US Government is
 subject to restrictions as set forth in subparagraphs (a)
 and (c) of the Commercial Computer Software - Restricted
 Rights clause in FAR 52.227-19.
  
 Gaussian, Inc.
 340 Quinnipiac St., Bldg. 40, Wallingford CT 06492
  
  
 ---------------------------------------------------------------
 Warning -- This program may not be used in any manner that
 competes with the business of Gaussian, Inc. or will provide
 assistance to any competitor of Gaussian, Inc.  The licensee
 of this program is prohibited from giving any competitor of
 Gaussian, Inc. access to this program.  By using this program,
 the user acknowledges that Gaussian, Inc. is engaged in the
 business of creating and licensing software in the field of
 computational chemistry and represents and warrants to the
 licensee that it is not a competitor of Gaussian, Inc. and that
 it will not use this program in any manner prohibited above.
 ---------------------------------------------------------------
  

 Cite this work as:
 Gaussian 16, Revision B.01,
 M. J. Frisch, G. W. Trucks, H. B. Schlegel, G. E. Scuseria, 
 M. A. Robb, J. R. Cheeseman, G. Scalmani, V. Barone, 
 G. A. Petersson, H. Nakatsuji, X. Li, M. Caricato, A. V. Marenich, 
 J. Bloino, B. G. Janesko, R. Gomperts, B. Mennucci, H. P. Hratchian, 
 J. V. Ortiz, A. F. Izmaylov, J. L. Sonnenberg, D. Williams-Young, 
 F. Ding, F. Lipparini, F. Egidi, J. Goings, B. Peng, A. Petrone, 
 T. Henderson, D. Ranasinghe, V. G. Zakrzewski, J. Gao, N. Rega, 
 G. Zheng, W. Liang, M. Hada, M. Ehara, K. Toyota, R. Fukuda, 
 J. Hasegawa, M. Ishida, T. Nakajima, Y. Honda, O. Kitao, H. Nakai, 
 T. Vreven, K. Throssell, J. A. Montgomery, Jr., J. E. Peralta, 
 F. Ogliaro, M. J. Bearpark, J. J. Heyd, E. N. Brothers, K. N. Kudin, 
 V. N. Staroverov, T. A. Keith, R. Kobayashi, J. Normand, 
 K. Raghavachari, A. P. Rendell, J. C. Burant, S. S. Iyengar, 
 J. Tomasi, M. Cossi, J. M. Millam, M. Klene, C. Adamo, R. Cammi, 
 J. W. Ochterski, R. L. Martin, K. Morokuma, O. Farkas, 
 J. B. Foresman, and D. J. Fox, Gaussian, Inc., Wallingford CT, 2016.
 
 ******************************************
 Gaussian 16:  ES64L-G16RevB.01 20-Dec-2017
                28-Nov-2023 
 ******************************************
 %nproc=15
 Will use up to   15 processors via shared memory.
 -------------------------
 #P B3LYP/6-311+g(d) force
 -------------------------
 1/10=7,30=1,38=1/1,3;
 2/12=2,17=6,18=5,40=1/2;
 3/5=4,6=6,7=11,11=2,25=1,30=1,71=1,74=-5/1,2,3;
 4//1;
 5/5=2,38=5/2;
 6/7=2,8=2,9=2,10=2,28=1/1;
 7/29=1/1,2,3,16;
 1/10=7,30=1/3;
 99//99;
 Leave Link    1 at Tue Nov 28 22:32:57 2023, MaxMem=           0 cpu:               0.3 elap:               0.0
 (Enter /home/sekinelabo/g16/l101.exe)
 -----
 DPGEN
 -----
 Symbolic Z-matrix:
 Charge =  0 Multiplicity = 2
 Na                    15.1009   16.1877   17.5102 
 Na                    16.9441   17.0584   14.5234 
 Na                    14.651    14.6509   13.8291 
 Na                    12.6004   13.9867   16.835 
 Na                    13.343    11.5762   14.8744 
 Na                    17.6157   15.2313   12.1605 
 Na                    17.1703   18.7342   17.6929 
 
 ITRead=  0  0  0  0  0  0  0
 MicOpt= -1 -1 -1 -1 -1 -1 -1
 NAtoms=      7 NQM=        7 NQMF=       0 NMMI=      0 NMMIF=      0
                NMic=       0 NMicF=      0.
                    Isotopes and Nuclear Properties:
 (Nuclear quadrupole moments (NQMom) in fm**2, nuclear magnetic moments (NMagM)
  in nuclear magnetons)

  Atom         1           2           3           4           5           6           7
 IAtWgt=          23          23          23          23          23          23          23
 AtmWgt=  22.9897697  22.9897697  22.9897697  22.9897697  22.9897697  22.9897697  22.9897697
 NucSpn=           3           3           3           3           3           3           3
 AtZEff=  -0.0000000  -0.0000000  -0.0000000  -0.0000000  -0.0000000  -0.0000000  -0.0000000
 NQMom=   10.4000000  10.4000000  10.4000000  10.4000000  10.4000000  10.4000000  10.4000000
 NMagM=    2.2175200   2.2175200   2.2175200   2.2175200   2.2175200   2.2175200   2.2175200
 AtZNuc=  11.0000000  11.0000000  11.0000000  11.0000000  11.0000000  11.0000000  11.0000000
 Leave Link  101 at Tue Nov 28 22:32:57 2023, MaxMem=  1879048192 cpu:               2.4 elap:               0.2
 (Enter /home/sekinelabo/g16/l103.exe)

 GradGradGradGradGradGradGradGradGradGradGradGradGradGradGradGradGradGrad
 Berny optimization.
 Initialization pass.
 Trust Radius=3.00D-01 FncErr=1.00D-07 GrdErr=1.00D-07 EigMax=2.50D+02 EigMin=1.00D-04
 Number of steps in this run=      2 maximum allowed number of steps=      2.
 GradGradGradGradGradGradGradGradGradGradGradGradGradGradGradGradGradGrad

 Leave Link  103 at Tue Nov 28 22:32:57 2023, MaxMem=  1879048192 cpu:               0.2 elap:               0.0
 (Enter /home/sekinelabo/g16/l202.exe)
                          Input orientation:                          
 ---------------------------------------------------------------------
 Center     Atomic      Atomic             Coordinates (Angstroms)
 Number     Number       Type             X           Y           Z
 ---------------------------------------------------------------------
      1         11           0       15.100900   16.187700   17.510200
      2         11           0       16.944100   17.058400   14.523400
      3         11           0       14.651000   14.650900   13.829100
      4         11           0       12.600400   13.986700   16.835000
      5         11           0       13.343000   11.576200   14.874400
      6         11           0       17.615700   15.231300   12.160500
      7         11           0       17.170300   18.734200   17.692900
 ---------------------------------------------------------------------
                    Distance matrix (angstroms):
                    1          2          3          4          5
     1  Na   0.000000
     2  Na   3.616141   0.000000
     3  Na   4.014307   3.396530   0.000000
     4  Na   3.398940   5.800566   3.698859   0.000000
     5  Na   5.594961   6.568534   3.501042   3.194670   0.000000
     6  Na   5.988173   3.061476   3.451164   6.968014   6.243475
     7  Na   3.286405   3.592381   6.160289   6.645204   8.592388
                    6          7
     6  Na   0.000000
     7  Na   6.563242   0.000000
 Stoichiometry    Na7(2)
 Framework group  C1[X(Na7)]
 Deg. of freedom    15
 Full point group                 C1      NOp   1
 Largest Abelian subgroup         C1      NOp   1
 Largest concise Abelian subgroup C1      NOp   1
                         Standard orientation:                         
 ---------------------------------------------------------------------
 Center     Atomic      Atomic             Coordinates (Angstroms)
 Number     Number       Type             X           Y           Z
 ---------------------------------------------------------------------
      1         11           0        0.855850   -2.156943   -0.254303
      2         11           0        2.172348    1.170290    0.268030
      3         11           0       -1.195232    1.156246    0.710322
      4         11           0       -2.467188   -2.306817    0.444090
      5         11           0       -4.243670    0.109467   -0.656638
      6         11           0        0.754813    3.830362   -0.267926
      7         11           0        4.123079   -1.802606   -0.243575
 ---------------------------------------------------------------------
 Rotational constants (GHZ):           0.6866635           0.4401309           0.2777049
 Leave Link  202 at Tue Nov 28 22:32:57 2023, MaxMem=  1879048192 cpu:               0.0 elap:               0.0
 (Enter /home/sekinelabo/g16/l301.exe)
 Standard basis: 6-311+G(d) (5D, 7F)
 Ernie: Thresh=  0.10000D-02 Tol=  0.10000D-05 Strict=F.
 There are   217 symmetry adapted cartesian basis functions of A   symmetry.
 There are   210 symmetry adapted basis functions of A   symmetry.
   210 basis functions,   350 primitive gaussians,   217 cartesian basis functions
    39 alpha electrons       38 beta electrons
       nuclear repulsion energy       303.3719415738 Hartrees.
 IExCor=  402 DFT=T Ex+Corr=B3LYP ExCW=0 ScaHFX=  0.200000
 ScaDFX=  0.800000  0.720000  1.000000  0.810000 ScalE2=  1.000000  1.000000
 IRadAn=      5 IRanWt=     -1 IRanGd=            0 ICorTp=0 IEmpDi=  4
 NAtoms=    7 NActive=    7 NUniq=    7 SFac= 1.00D+00 NAtFMM=   60 NAOKFM=F Big=F
 Integral buffers will be    131072 words long.
 Raffenetti 2 integral format.
 Two-electron integral symmetry is turned on.
 Leave Link  301 at Tue Nov 28 22:32:57 2023, MaxMem=  1879048192 cpu:               0.5 elap:               0.0
 (Enter /home/sekinelabo/g16/l302.exe)
 NPDir=0 NMtPBC=     1 NCelOv=     1 NCel=       1 NClECP=     1 NCelD=      1
         NCelK=      1 NCelE2=     1 NClLst=     1 CellRange=     0.0.
 One-electron integrals computed using PRISM.
 One-electron integral symmetry used in STVInt
 NBasis=   210 RedAO= T EigKep=  5.58D-06  NBF=   210
 NBsUse=   210 1.00D-06 EigRej= -1.00D+00 NBFU=   210
 Precomputing XC quadrature grid using
 IXCGrd= 4 IRadAn=           5 IRanWt=          -1 IRanGd=           0 AccXCQ= 0.00D+00.
 Generated NRdTot=       0 NPtTot=           0 NUsed=           0 NTot=          32
 NSgBfM=   206   206   206   206   206 MxSgAt=     7 MxSgA2=     7.
 Leave Link  302 at Tue Nov 28 22:32:58 2023, MaxMem=  1879048192 cpu:               1.9 elap:               0.1
 (Enter /home/sekinelabo/g16/l303.exe)
 DipDrv:  MaxL=1.
 Leave Link  303 at Tue Nov 28 22:32:58 2023, MaxMem=  1879048192 cpu:               0.5 elap:               0.0
 (Enter /home/sekinelabo/g16/l401.exe)
 ExpMin= 7.60D-03 ExpMax= 3.62D+04 ExpMxC= 1.21D+03 IAcc=3 IRadAn=         5 AccDes= 0.00D+00
 Harris functional with IExCor=  402 and IRadAn=       5 diagonalized for initial guess.
 HarFok:  IExCor=  402 AccDes= 0.00D+00 IRadAn=         5 IDoV= 1 UseB2=F ITyADJ=14
 ICtDFT=  3500011 ScaDFX=  1.000000  1.000000  1.000000  1.000000
 FoFCou: FMM=F IPFlag=           0 FMFlag=      100000 FMFlg1=           0
         NFxFlg=           0 DoJE=T BraDBF=F KetDBF=T FulRan=T
         wScrn=  0.000000 ICntrl=       500 IOpCl=  0 I1Cent=   200000004 NGrid=           0
         NMat0=    1 NMatS0=      1 NMatT0=    0 NMatD0=    1 NMtDS0=    0 NMtDT0=    0
 Petite list used in FoFCou.
 Harris En= -1135.89598634124    
 JPrj=0 DoOrth=F DoCkMO=F.
 Initial guess <Sx>= 0.0000 <Sy>= 0.0000 <Sz>= 0.5000 <S**2>= 0.7500 S= 0.5000
 Leave Link  401 at Tue Nov 28 22:32:58 2023, MaxMem=  1879048192 cpu:               4.4 elap:               0.3
 (Enter /home/sekinelabo/g16/l502.exe)
 Keep R1 and R2 ints in memory in canonical form, NReq=506573307.
 FoFCou: FMM=F IPFlag=           0 FMFlag=           0 FMFlg1=           0
         NFxFlg=           0 DoJE=F BraDBF=F KetDBF=F FulRan=T
         wScrn=  0.000000 ICntrl=       600 IOpCl=  0 I1Cent=           0 NGrid=           0
         NMat0=    1 NMatS0=  22155 NMatT0=    0 NMatD0=    1 NMtDS0=    0 NMtDT0=    0
 Symmetry not used in FoFCou.
 Two-electron integral symmetry not used.
 UHF open shell SCF:
 Using DIIS extrapolation, IDIIS=  1040.
 NGot=  1879048192 LenX=  1388082593 LenY=  1388035063
 Requested convergence on RMS density matrix=1.00D-08 within 128 cycles.
 Requested convergence on MAX density matrix=1.00D-06.
 Requested convergence on             energy=1.00D-06.
 No special actions if energy rises.

 Cycle   1  Pass 1  IDiag  1:
 E= -1136.10074558029    
 DIIS: error= 8.38D-03 at cycle   1 NSaved=   1.
 NSaved= 1 IEnMin= 1 EnMin= -1136.10074558029     IErMin= 1 ErrMin= 8.38D-03
 ErrMax= 8.38D-03  0.00D+00 EMaxC= 1.00D-01 BMatC= 1.82D-01 BMatP= 1.82D-01
 IDIUse=3 WtCom= 9.16D-01 WtEn= 8.38D-02
 Coeff-Com:  0.100D+01
 Coeff-En:   0.100D+01
 Coeff:      0.100D+01
 Gap=     0.033 Goal=   None    Shift=    0.000
 Gap=     0.058 Goal=   None    Shift=    0.000
 GapD=    0.033 DampG=0.250 DampE=1.000 DampFc=0.2500 IDamp=-1.
 Damping current iteration by 2.50D-01
 RMSDP=1.82D-02 MaxDP=1.66D+00              OVMax= 1.81D-01

 Cycle   2  Pass 1  IDiag  1:
 E= -1136.11014104014     Delta-E=       -0.009395459854 Rises=F Damp=T
 DIIS: error= 6.00D-03 at cycle   2 NSaved=   2.
 NSaved= 2 IEnMin= 2 EnMin= -1136.11014104014     IErMin= 2 ErrMin= 6.00D-03
 ErrMax= 6.00D-03  0.00D+00 EMaxC= 1.00D-01 BMatC= 7.05D-02 BMatP= 1.82D-01
 IDIUse=3 WtCom= 9.40D-01 WtEn= 6.00D-02
 Coeff-Com: -0.129D+01 0.229D+01
 Coeff-En:   0.000D+00 0.100D+01
 Coeff:     -0.121D+01 0.221D+01
 Gap=     0.038 Goal=   None    Shift=    0.000
 Gap=     0.063 Goal=   None    Shift=    0.000
 RMSDP=9.47D-03 MaxDP=5.90D-01 DE=-9.40D-03 OVMax= 1.23D-01

 Cycle   3  Pass 1  IDiag  1:
 E= -1136.12752678982     Delta-E=       -0.017385749674 Rises=F Damp=F
 DIIS: error= 1.83D-03 at cycle   3 NSaved=   3.
 NSaved= 3 IEnMin= 3 EnMin= -1136.12752678982     IErMin= 3 ErrMin= 1.83D-03
 ErrMax= 1.83D-03  0.00D+00 EMaxC= 1.00D-01 BMatC= 1.50D-03 BMatP= 7.05D-02
 IDIUse=3 WtCom= 9.82D-01 WtEn= 1.83D-02
 Coeff-Com: -0.157D+00 0.263D+00 0.893D+00
 Coeff-En:   0.000D+00 0.000D+00 0.100D+01
 Coeff:     -0.154D+00 0.258D+00 0.895D+00
 Gap=     0.038 Goal=   None    Shift=    0.000
 Gap=     0.060 Goal=   None    Shift=    0.000
 RMSDP=3.49D-03 MaxDP=3.06D-01 DE=-1.74D-02 OVMax= 6.18D-02

 Cycle   4  Pass 1  IDiag  1:
 E= -1136.12742327701     Delta-E=        0.000103512808 Rises=F Damp=F
 DIIS: error= 1.98D-03 at cycle   4 NSaved=   4.
 NSaved= 4 IEnMin= 3 EnMin= -1136.12752678982     IErMin= 3 ErrMin= 1.83D-03
 ErrMax= 1.98D-03  0.00D+00 EMaxC= 1.00D-01 BMatC= 1.82D-03 BMatP= 1.50D-03
 IDIUse=3 WtCom= 1.83D-01 WtEn= 8.17D-01
 Coeff-Com: -0.174D-01 0.221D-01 0.524D+00 0.471D+00
 Coeff-En:   0.000D+00 0.000D+00 0.515D+00 0.485D+00
 Coeff:     -0.320D-02 0.406D-02 0.517D+00 0.482D+00
 Gap=     0.038 Goal=   None    Shift=    0.000
 Gap=     0.061 Goal=   None    Shift=    0.000
 RMSDP=1.75D-03 MaxDP=1.61D-01 DE= 1.04D-04 OVMax= 3.14D-02

 Cycle   5  Pass 1  IDiag  1:
 E= -1136.12902670481     Delta-E=       -0.001603427796 Rises=F Damp=F
 DIIS: error= 1.29D-04 at cycle   5 NSaved=   5.
 NSaved= 5 IEnMin= 5 EnMin= -1136.12902670481     IErMin= 5 ErrMin= 1.29D-04
 ErrMax= 1.29D-04  0.00D+00 EMaxC= 1.00D-01 BMatC= 6.99D-06 BMatP= 1.50D-03
 IDIUse=3 WtCom= 9.99D-01 WtEn= 1.29D-03
 Coeff-Com:  0.138D-01-0.192D-01-0.332D-01-0.104D-01 0.105D+01
 Coeff-En:   0.000D+00 0.000D+00 0.000D+00 0.000D+00 0.100D+01
 Coeff:      0.137D-01-0.191D-01-0.332D-01-0.104D-01 0.105D+01
 Gap=     0.038 Goal=   None    Shift=    0.000
 Gap=     0.062 Goal=   None    Shift=    0.000
 RMSDP=2.82D-04 MaxDP=2.47D-02 DE=-1.60D-03 OVMax= 8.57D-03

 Cycle   6  Pass 1  IDiag  1:
 E= -1136.12904973550     Delta-E=       -0.000023030696 Rises=F Damp=F
 DIIS: error= 1.16D-04 at cycle   6 NSaved=   6.
 NSaved= 6 IEnMin= 6 EnMin= -1136.12904973550     IErMin= 6 ErrMin= 1.16D-04
 ErrMax= 1.16D-04  0.00D+00 EMaxC= 1.00D-01 BMatC= 2.86D-06 BMatP= 6.99D-06
 IDIUse=3 WtCom= 9.99D-01 WtEn= 1.16D-03
 Coeff-Com:  0.887D-02-0.120D-01-0.102D+00-0.844D-01 0.442D+00 0.748D+00
 Coeff-En:   0.000D+00 0.000D+00 0.000D+00 0.000D+00 0.000D+00 0.100D+01
 Coeff:      0.886D-02-0.120D-01-0.102D+00-0.843D-01 0.441D+00 0.749D+00
 Gap=     0.038 Goal=   None    Shift=    0.000
 Gap=     0.062 Goal=   None    Shift=    0.000
 RMSDP=1.82D-04 MaxDP=9.85D-03 DE=-2.30D-05 OVMax= 6.90D-03

 Cycle   7  Pass 1  IDiag  1:
 E= -1136.12905845257     Delta-E=       -0.000008717063 Rises=F Damp=F
 DIIS: error= 6.57D-05 at cycle   7 NSaved=   7.
 NSaved= 7 IEnMin= 7 EnMin= -1136.12905845257     IErMin= 7 ErrMin= 6.57D-05
 ErrMax= 6.57D-05  0.00D+00 EMaxC= 1.00D-01 BMatC= 1.01D-06 BMatP= 2.86D-06
 IDIUse=1 WtCom= 1.00D+00 WtEn= 0.00D+00
 Coeff-Com:  0.931D-03-0.110D-02-0.417D-01-0.393D-01-0.955D-01 0.393D+00
 Coeff-Com:  0.784D+00
 Coeff:      0.931D-03-0.110D-02-0.417D-01-0.393D-01-0.955D-01 0.393D+00
 Coeff:      0.784D+00
 Gap=     0.038 Goal=   None    Shift=    0.000
 Gap=     0.062 Goal=   None    Shift=    0.000
 RMSDP=9.48D-05 MaxDP=7.50D-03 DE=-8.72D-06 OVMax= 4.28D-03

 Cycle   8  Pass 1  IDiag  1:
 E= -1136.12906228501     Delta-E=       -0.000003832442 Rises=F Damp=F
 DIIS: error= 2.35D-05 at cycle   8 NSaved=   8.
 NSaved= 8 IEnMin= 8 EnMin= -1136.12906228501     IErMin= 8 ErrMin= 2.35D-05
 ErrMax= 2.35D-05  0.00D+00 EMaxC= 1.00D-01 BMatC= 1.41D-07 BMatP= 1.01D-06
 IDIUse=1 WtCom= 1.00D+00 WtEn= 0.00D+00
 Coeff-Com: -0.109D-02 0.154D-02 0.141D-01 0.974D-02-0.115D+00-0.864D-01
 Coeff-Com:  0.138D+00 0.104D+01
 Coeff:     -0.109D-02 0.154D-02 0.141D-01 0.974D-02-0.115D+00-0.864D-01
 Coeff:      0.138D+00 0.104D+01
 Gap=     0.038 Goal=   None    Shift=    0.000
 Gap=     0.062 Goal=   None    Shift=    0.000
 RMSDP=7.07D-05 MaxDP=6.95D-03 DE=-3.83D-06 OVMax= 3.64D-03

 Cycle   9  Pass 1  IDiag  1:
 E= -1136.12906340500     Delta-E=       -0.000001119989 Rises=F Damp=F
 DIIS: error= 1.31D-05 at cycle   9 NSaved=   9.
 NSaved= 9 IEnMin= 9 EnMin= -1136.12906340500     IErMin= 9 ErrMin= 1.31D-05
 ErrMax= 1.31D-05  0.00D+00 EMaxC= 1.00D-01 BMatC= 3.92D-08 BMatP= 1.41D-07
 IDIUse=1 WtCom= 1.00D+00 WtEn= 0.00D+00
 Coeff-Com: -0.357D-03 0.471D-03 0.115D-01 0.899D-02 0.588D-02-0.960D-01
 Coeff-Com: -0.165D+00 0.138D+00 0.110D+01
 Coeff:     -0.357D-03 0.471D-03 0.115D-01 0.899D-02 0.588D-02-0.960D-01
 Coeff:     -0.165D+00 0.138D+00 0.110D+01
 Gap=     0.038 Goal=   None    Shift=    0.000
 Gap=     0.062 Goal=   None    Shift=    0.000
 RMSDP=4.58D-05 MaxDP=4.69D-03 DE=-1.12D-06 OVMax= 2.18D-03

 Cycle  10  Pass 1  IDiag  1:
 E= -1136.12906372645     Delta-E=       -0.000000321457 Rises=F Damp=F
 DIIS: error= 6.33D-06 at cycle  10 NSaved=  10.
 NSaved=10 IEnMin=10 EnMin= -1136.12906372645     IErMin=10 ErrMin= 6.33D-06
 ErrMax= 6.33D-06  0.00D+00 EMaxC= 1.00D-01 BMatC= 1.25D-08 BMatP= 3.92D-08
 IDIUse=1 WtCom= 1.00D+00 WtEn= 0.00D+00
 Coeff-Com: -0.222D-04 0.219D-05 0.312D-02 0.288D-02 0.282D-01-0.268D-01
 Coeff-Com: -0.114D+00-0.161D+00 0.449D+00 0.818D+00
 Coeff:     -0.222D-04 0.219D-05 0.312D-02 0.288D-02 0.282D-01-0.268D-01
 Coeff:     -0.114D+00-0.161D+00 0.449D+00 0.818D+00
 Gap=     0.038 Goal=   None    Shift=    0.000
 Gap=     0.062 Goal=   None    Shift=    0.000
 RMSDP=2.53D-05 MaxDP=2.39D-03 DE=-3.21D-07 OVMax= 1.05D-03

 Cycle  11  Pass 1  IDiag  1:
 E= -1136.12906379542     Delta-E=       -0.000000068968 Rises=F Damp=F
 DIIS: error= 2.87D-06 at cycle  11 NSaved=  11.
 NSaved=11 IEnMin=11 EnMin= -1136.12906379542     IErMin=11 ErrMin= 2.87D-06
 ErrMax= 2.87D-06  0.00D+00 EMaxC= 1.00D-01 BMatC= 3.87D-09 BMatP= 1.25D-08
 IDIUse=1 WtCom= 1.00D+00 WtEn= 0.00D+00
 Coeff-Com:  0.512D-04-0.817D-04-0.129D-02-0.706D-03 0.116D-01 0.134D-01
 Coeff-Com: -0.123D-01-0.116D+00-0.100D+00 0.417D+00 0.789D+00
 Coeff:      0.512D-04-0.817D-04-0.129D-02-0.706D-03 0.116D-01 0.134D-01
 Coeff:     -0.123D-01-0.116D+00-0.100D+00 0.417D+00 0.789D+00
 Gap=     0.038 Goal=   None    Shift=    0.000
 Gap=     0.062 Goal=   None    Shift=    0.000
 RMSDP=1.31D-05 MaxDP=9.72D-04 DE=-6.90D-08 OVMax= 5.35D-04

 Cycle  12  Pass 1  IDiag  1:
 E= -1136.12906381195     Delta-E=       -0.000000016534 Rises=F Damp=F
 DIIS: error= 1.19D-06 at cycle  12 NSaved=  12.
 NSaved=12 IEnMin=12 EnMin= -1136.12906381195     IErMin=12 ErrMin= 1.19D-06
 ErrMax= 1.19D-06  0.00D+00 EMaxC= 1.00D-01 BMatC= 4.19D-10 BMatP= 3.87D-09
 IDIUse=1 WtCom= 1.00D+00 WtEn= 0.00D+00
 Coeff-Com:  0.285D-04-0.384D-04-0.685D-03-0.492D-03-0.194D-02 0.740D-02
 Coeff-Com:  0.155D-01-0.335D-02-0.111D+00-0.606D-02 0.223D+00 0.877D+00
 Coeff:      0.285D-04-0.384D-04-0.685D-03-0.492D-03-0.194D-02 0.740D-02
 Coeff:      0.155D-01-0.335D-02-0.111D+00-0.606D-02 0.223D+00 0.877D+00
 Gap=     0.038 Goal=   None    Shift=    0.000
 Gap=     0.062 Goal=   None    Shift=    0.000
 RMSDP=4.81D-06 MaxDP=3.88D-04 DE=-1.65D-08 OVMax= 1.86D-04

 Cycle  13  Pass 1  IDiag  1:
 E= -1136.12906381401     Delta-E=       -0.000000002057 Rises=F Damp=F
 DIIS: error= 6.23D-07 at cycle  13 NSaved=  13.
 NSaved=13 IEnMin=13 EnMin= -1136.12906381401     IErMin=13 ErrMin= 6.23D-07
 ErrMax= 6.23D-07  0.00D+00 EMaxC= 1.00D-01 BMatC= 8.02D-11 BMatP= 4.19D-10
 IDIUse=1 WtCom= 1.00D+00 WtEn= 0.00D+00
 Coeff-Com:  0.902D-05-0.936D-05 0.924D-04 0.193D-04-0.282D-02-0.127D-02
 Coeff-Com:  0.543D-02 0.251D-01-0.408D-02-0.946D-01-0.129D+00 0.170D+00
 Coeff-Com:  0.103D+01
 Coeff:      0.902D-05-0.936D-05 0.924D-04 0.193D-04-0.282D-02-0.127D-02
 Coeff:      0.543D-02 0.251D-01-0.408D-02-0.946D-01-0.129D+00 0.170D+00
 Coeff:      0.103D+01
 Gap=     0.038 Goal=   None    Shift=    0.000
 Gap=     0.062 Goal=   None    Shift=    0.000
 RMSDP=2.54D-06 MaxDP=2.19D-04 DE=-2.06D-09 OVMax= 9.83D-05

 Cycle  14  Pass 1  IDiag  1:
 E= -1136.12906381452     Delta-E=       -0.000000000509 Rises=F Damp=F
 DIIS: error= 2.50D-07 at cycle  14 NSaved=  14.
 NSaved=14 IEnMin=14 EnMin= -1136.12906381452     IErMin=14 ErrMin= 2.50D-07
 ErrMax= 2.50D-07  0.00D+00 EMaxC= 1.00D-01 BMatC= 1.27D-11 BMatP= 8.02D-11
 IDIUse=1 WtCom= 1.00D+00 WtEn= 0.00D+00
 Coeff-Com: -0.825D-05 0.108D-04 0.659D-04 0.381D-04 0.763D-03-0.607D-03
 Coeff-Com: -0.329D-02-0.287D-02 0.160D-01 0.167D-01-0.164D-01-0.168D+00
 Coeff-Com: -0.139D+00 0.130D+01
 Coeff:     -0.825D-05 0.108D-04 0.659D-04 0.381D-04 0.763D-03-0.607D-03
 Coeff:     -0.329D-02-0.287D-02 0.160D-01 0.167D-01-0.164D-01-0.168D+00
 Coeff:     -0.139D+00 0.130D+01
 Gap=     0.038 Goal=   None    Shift=    0.000
 Gap=     0.062 Goal=   None    Shift=    0.000
 RMSDP=8.96D-07 MaxDP=8.24D-05 DE=-5.09D-10 OVMax= 3.18D-05

 Cycle  15  Pass 1  IDiag  1:
 E= -1136.12906381464     Delta-E=       -0.000000000117 Rises=F Damp=F
 DIIS: error= 8.55D-08 at cycle  15 NSaved=  15.
 NSaved=15 IEnMin=15 EnMin= -1136.12906381464     IErMin=15 ErrMin= 8.55D-08
 ErrMax= 8.55D-08  0.00D+00 EMaxC= 1.00D-01 BMatC= 3.23D-12 BMatP= 1.27D-11
 IDIUse=1 WtCom= 1.00D+00 WtEn= 0.00D+00
 Coeff-Com: -0.467D-05 0.563D-05 0.145D-04 0.163D-04 0.714D-03 0.794D-04
 Coeff-Com: -0.162D-02-0.590D-02 0.339D-02 0.255D-01 0.276D-01-0.656D-01
 Coeff-Com: -0.249D+00 0.217D+00 0.105D+01
 Coeff:     -0.467D-05 0.563D-05 0.145D-04 0.163D-04 0.714D-03 0.794D-04
 Coeff:     -0.162D-02-0.590D-02 0.339D-02 0.255D-01 0.276D-01-0.656D-01
 Coeff:     -0.249D+00 0.217D+00 0.105D+01
 Gap=     0.038 Goal=   None    Shift=    0.000
 Gap=     0.062 Goal=   None    Shift=    0.000
 RMSDP=3.69D-07 MaxDP=3.32D-05 DE=-1.17D-10 OVMax= 9.93D-06

 Cycle  16  Pass 1  IDiag  1:
 E= -1136.12906381466     Delta-E=       -0.000000000025 Rises=F Damp=F
 DIIS: error= 4.07D-08 at cycle  16 NSaved=  16.
 NSaved=16 IEnMin=16 EnMin= -1136.12906381466     IErMin=16 ErrMin= 4.07D-08
 ErrMax= 4.07D-08  0.00D+00 EMaxC= 1.00D-01 BMatC= 6.71D-13 BMatP= 3.23D-12
 IDIUse=1 WtCom= 1.00D+00 WtEn= 0.00D+00
 Coeff-Com:  0.293D-05-0.390D-05-0.182D-04-0.923D-05-0.182D-03 0.166D-03
 Coeff-Com:  0.822D-03 0.495D-03-0.343D-02-0.480D-02 0.541D-02 0.391D-01
 Coeff-Com:  0.324D-01-0.313D+00 0.351D-01 0.121D+01
 Coeff:      0.293D-05-0.390D-05-0.182D-04-0.923D-05-0.182D-03 0.166D-03
 Coeff:      0.822D-03 0.495D-03-0.343D-02-0.480D-02 0.541D-02 0.391D-01
 Coeff:      0.324D-01-0.313D+00 0.351D-01 0.121D+01
 Gap=     0.038 Goal=   None    Shift=    0.000
 Gap=     0.062 Goal=   None    Shift=    0.000
 RMSDP=1.85D-07 MaxDP=1.50D-05 DE=-2.50D-11 OVMax= 5.52D-06

 Cycle  17  Pass 1  IDiag  1:
 E= -1136.12906381467     Delta-E=       -0.000000000007 Rises=F Damp=F
 DIIS: error= 1.97D-08 at cycle  17 NSaved=  17.
 NSaved=17 IEnMin=17 EnMin= -1136.12906381467     IErMin=17 ErrMin= 1.97D-08
 ErrMax= 1.97D-08  0.00D+00 EMaxC= 1.00D-01 BMatC= 1.06D-13 BMatP= 6.71D-13
 IDIUse=1 WtCom= 1.00D+00 WtEn= 0.00D+00
 Coeff-Com:  0.920D-06-0.112D-05-0.438D-05-0.386D-05-0.139D-03-0.722D-05
 Coeff-Com:  0.330D-03 0.110D-02-0.112D-02-0.489D-02-0.459D-02 0.156D-01
 Coeff-Com:  0.421D-01-0.485D-01-0.197D+00 0.571D-01 0.114D+01
 Coeff:      0.920D-06-0.112D-05-0.438D-05-0.386D-05-0.139D-03-0.722D-05
 Coeff:      0.330D-03 0.110D-02-0.112D-02-0.489D-02-0.459D-02 0.156D-01
 Coeff:      0.421D-01-0.485D-01-0.197D+00 0.571D-01 0.114D+01
 Gap=     0.038 Goal=   None    Shift=    0.000
 Gap=     0.062 Goal=   None    Shift=    0.000
 RMSDP=8.33D-08 MaxDP=5.84D-06 DE=-7.28D-12 OVMax= 2.13D-06

 Cycle  18  Pass 1  IDiag  1:
 E= -1136.12906381467     Delta-E=       -0.000000000002 Rises=F Damp=F
 DIIS: error= 6.11D-09 at cycle  18 NSaved=  18.
 NSaved=18 IEnMin=18 EnMin= -1136.12906381467     IErMin=18 ErrMin= 6.11D-09
 ErrMax= 6.11D-09  0.00D+00 EMaxC= 1.00D-01 BMatC= 1.85D-14 BMatP= 1.06D-13
 IDIUse=1 WtCom= 1.00D+00 WtEn= 0.00D+00
 Coeff-Com: -0.261D-06 0.358D-06 0.539D-06-0.291D-06 0.198D-04-0.192D-04
 Coeff-Com: -0.990D-04 0.212D-04 0.427D-03 0.269D-03-0.146D-02-0.470D-02
 Coeff-Com:  0.167D-02 0.371D-01-0.210D-01-0.170D+00 0.749D-01 0.108D+01
 Coeff:     -0.261D-06 0.358D-06 0.539D-06-0.291D-06 0.198D-04-0.192D-04
 Coeff:     -0.990D-04 0.212D-04 0.427D-03 0.269D-03-0.146D-02-0.470D-02
 Coeff:      0.167D-02 0.371D-01-0.210D-01-0.170D+00 0.749D-01 0.108D+01
 Gap=     0.038 Goal=   None    Shift=    0.000
 Gap=     0.062 Goal=   None    Shift=    0.000
 RMSDP=3.38D-08 MaxDP=2.95D-06 DE=-1.82D-12 OVMax= 7.47D-07

 Cycle  19  Pass 1  IDiag  1:
 E= -1136.12906381467     Delta-E=        0.000000000003 Rises=F Damp=F
 DIIS: error= 3.17D-09 at cycle  19 NSaved=  19.
 NSaved=19 IEnMin=18 EnMin= -1136.12906381467     IErMin=19 ErrMin= 3.17D-09
 ErrMax= 3.17D-09  0.00D+00 EMaxC= 1.00D-01 BMatC= 4.40D-15 BMatP= 1.85D-14
 IDIUse=1 WtCom= 1.00D+00 WtEn= 0.00D+00
 Coeff-Com: -0.289D-06 0.367D-06 0.202D-05 0.130D-05 0.313D-04-0.496D-05
 Coeff-Com: -0.891D-04-0.203D-03 0.300D-03 0.114D-02 0.843D-03-0.385D-02
 Coeff-Com: -0.947D-02 0.171D-01 0.427D-01-0.505D-01-0.252D+00 0.270D+00
 Coeff-Com:  0.985D+00
 Coeff:     -0.289D-06 0.367D-06 0.202D-05 0.130D-05 0.313D-04-0.496D-05
 Coeff:     -0.891D-04-0.203D-03 0.300D-03 0.114D-02 0.843D-03-0.385D-02
 Coeff:     -0.947D-02 0.171D-01 0.427D-01-0.505D-01-0.252D+00 0.270D+00
 Coeff:      0.985D+00
 Gap=     0.038 Goal=   None    Shift=    0.000
 Gap=     0.062 Goal=   None    Shift=    0.000
 RMSDP=1.40D-08 MaxDP=1.02D-06 DE= 2.96D-12 OVMax= 3.25D-07

 Cycle  20  Pass 1  IDiag  1:
 E= -1136.12906381467     Delta-E=       -0.000000000000 Rises=F Damp=F
 DIIS: error= 7.35D-10 at cycle  20 NSaved=  20.
 NSaved=20 IEnMin=18 EnMin= -1136.12906381467     IErMin=20 ErrMin= 7.35D-10
 ErrMax= 7.35D-10  0.00D+00 EMaxC= 1.00D-01 BMatC= 3.38D-16 BMatP= 4.40D-15
 IDIUse=1 WtCom= 1.00D+00 WtEn= 0.00D+00
 Large coefficients: NSaved= 20 BigCof=    0.00 CofMax=   10.00 Det=-1.24D-15
 Inversion failed.  Reducing to 19 matrices.
 Large coefficients: NSaved= 19 BigCof=    0.00 CofMax=   10.00 Det=-1.49D-15
 Inversion failed.  Reducing to 18 matrices.
 Large coefficients: NSaved= 18 BigCof=    0.00 CofMax=   10.00 Det=-1.57D-15
 Inversion failed.  Reducing to 17 matrices.
 Large coefficients: NSaved= 17 BigCof=    0.00 CofMax=   10.00 Det=-1.58D-15
 Inversion failed.  Reducing to 16 matrices.
 Large coefficients: NSaved= 16 BigCof=    0.00 CofMax=   10.00 Det=-1.65D-15
 Inversion failed.  Reducing to 15 matrices.
 Coeff-Com:  0.270D-05 0.999D-06-0.218D-04-0.790D-06 0.407D-04 0.193D-03
 Coeff-Com: -0.333D-04-0.983D-03-0.174D-02 0.507D-02 0.145D-01-0.217D-01
 Coeff-Com: -0.125D+00 0.551D-01 0.107D+01
 Coeff:      0.270D-05 0.999D-06-0.218D-04-0.790D-06 0.407D-04 0.193D-03
 Coeff:     -0.333D-04-0.983D-03-0.174D-02 0.507D-02 0.145D-01-0.217D-01
 Coeff:     -0.125D+00 0.551D-01 0.107D+01
 Gap=     0.038 Goal=   None    Shift=    0.000
 Gap=     0.062 Goal=   None    Shift=    0.000
 RMSDP=4.59D-09 MaxDP=3.71D-07 DE=-2.27D-13 OVMax= 1.08D-07

 SCF Done:  E(UB3LYP) =  -1136.12906381     A.U. after   20 cycles
            NFock= 20  Conv=0.46D-08     -V/T= 2.0028
 <Sx>= 0.0000 <Sy>= 0.0000 <Sz>= 0.5000 <S**2>= 0.7778 S= 0.5138
 <L.S>= 0.000000000000E+00
 KE= 1.132946147970D+03 PE=-3.336153479571D+03 EE= 7.637063262120D+02
 Annihilation of the first spin contaminant:
 S**2 before annihilation     0.7778,   after     0.7504
 Leave Link  502 at Tue Nov 28 22:33:14 2023, MaxMem=  1879048192 cpu:             180.7 elap:              16.3
 (Enter /home/sekinelabo/g16/l601.exe)
 Copying SCF densities to generalized density rwf, IOpCl= 1 IROHF=0.

 **********************************************************************

            Population analysis using the SCF Density.

 **********************************************************************

 Orbital symmetries:
 Alpha Orbitals:
       Occupied  (A) (A) (A) (A) (A) (A) (A) (A) (A) (A) (A) (A)
                 (A) (A) (A) (A) (A) (A) (A) (A) (A) (A) (A) (A)
                 (A) (A) (A) (A) (A) (A) (A) (A) (A) (A) (A) (A)
                 (A) (A) (A)
       Virtual   (A) (A) (A) (A) (A) (A) (A) (A) (A) (A) (A) (A)
                 (A) (A) (A) (A) (A) (A) (A) (A) (A) (A) (A) (A)
                 (A) (A) (A) (A) (A) (A) (A) (A) (A) (A) (A) (A)
                 (A) (A) (A) (A) (A) (A) (A) (A) (A) (A) (A) (A)
                 (A) (A) (A) (A) (A) (A) (A) (A) (A) (A) (A) (A)
                 (A) (A) (A) (A) (A) (A) (A) (A) (A) (A) (A) (A)
                 (A) (A) (A) (A) (A) (A) (A) (A) (A) (A) (A) (A)
                 (A) (A) (A) (A) (A) (A) (A) (A) (A) (A) (A) (A)
                 (A) (A) (A) (A) (A) (A) (A) (A) (A) (A) (A) (A)
                 (A) (A) (A) (A) (A) (A) (A) (A) (A) (A) (A) (A)
                 (A) (A) (A) (A) (A) (A) (A) (A) (A) (A) (A) (A)
                 (A) (A) (A) (A) (A) (A) (A) (A) (A) (A) (A) (A)
                 (A) (A) (A) (A) (A) (A) (A) (A) (A) (A) (A) (A)
                 (A) (A) (A) (A) (A) (A) (A) (A) (A) (A) (A) (A)
                 (A) (A) (A)
 Beta  Orbitals:
       Occupied  (A) (A) (A) (A) (A) (A) (A) (A) (A) (A) (A) (A)
                 (A) (A) (A) (A) (A) (A) (A) (A) (A) (A) (A) (A)
                 (A) (A) (A) (A) (A) (A) (A) (A) (A) (A) (A) (A)
                 (A) (A)
       Virtual   (A) (A) (A) (A) (A) (A) (A) (A) (A) (A) (A) (A)
                 (A) (A) (A) (A) (A) (A) (A) (A) (A) (A) (A) (A)
                 (A) (A) (A) (A) (A) (A) (A) (A) (A) (A) (A) (A)
                 (A) (A) (A) (A) (A) (A) (A) (A) (A) (A) (A) (A)
                 (A) (A) (A) (A) (A) (A) (A) (A) (A) (A) (A) (A)
                 (A) (A) (A) (A) (A) (A) (A) (A) (A) (A) (A) (A)
                 (A) (A) (A) (A) (A) (A) (A) (A) (A) (A) (A) (A)
                 (A) (A) (A) (A) (A) (A) (A) (A) (A) (A) (A) (A)
                 (A) (A) (A) (A) (A) (A) (A) (A) (A) (A) (A) (A)
                 (A) (A) (A) (A) (A) (A) (A) (A) (A) (A) (A) (A)
                 (A) (A) (A) (A) (A) (A) (A) (A) (A) (A) (A) (A)
                 (A) (A) (A) (A) (A) (A) (A) (A) (A) (A) (A) (A)
                 (A) (A) (A) (A) (A) (A) (A) (A) (A) (A) (A) (A)
                 (A) (A) (A) (A) (A) (A) (A) (A) (A) (A) (A) (A)
                 (A) (A) (A) (A)
 The electronic state is 2-A.
 Alpha  occ. eigenvalues --  -38.44530 -38.44352 -38.43990 -38.43979 -38.43462
 Alpha  occ. eigenvalues --  -38.43204 -38.43180  -2.20383  -2.20191  -2.19888
 Alpha  occ. eigenvalues --   -2.19844  -2.19322  -2.19054  -2.19039  -1.14102
 Alpha  occ. eigenvalues --   -1.14094  -1.13976  -1.13906  -1.13840  -1.13817
 Alpha  occ. eigenvalues --   -1.13600  -1.13579  -1.13523  -1.13510  -1.13489
 Alpha  occ. eigenvalues --   -1.13456  -1.12972  -1.12956  -1.12937  -1.12747
 Alpha  occ. eigenvalues --   -1.12733  -1.12727  -1.12686  -1.12680  -1.12615
 Alpha  occ. eigenvalues --   -0.17344  -0.14120  -0.13131  -0.10136
 Alpha virt. eigenvalues --   -0.06298  -0.05344  -0.04763  -0.03482  -0.02525
 Alpha virt. eigenvalues --   -0.02217  -0.01785  -0.01600  -0.01258  -0.00767
 Alpha virt. eigenvalues --   -0.00049   0.00142   0.00580   0.00598   0.00656
 Alpha virt. eigenvalues --    0.00685   0.00904   0.01155   0.01264   0.01448
 Alpha virt. eigenvalues --    0.01519   0.01660   0.01779   0.01857   0.01912
 Alpha virt. eigenvalues --    0.01952   0.02140   0.02265   0.02500   0.02595
 Alpha virt. eigenvalues --    0.02730   0.02835   0.02928   0.03061   0.03087
 Alpha virt. eigenvalues --    0.03289   0.03363   0.03379   0.03492   0.03565
 Alpha virt. eigenvalues --    0.03742   0.03910   0.04089   0.04191   0.04457
 Alpha virt. eigenvalues --    0.04613   0.05209   0.05307   0.05488   0.05652
 Alpha virt. eigenvalues --    0.05906   0.06113   0.06684   0.07124   0.07372
 Alpha virt. eigenvalues --    0.07464   0.07659   0.08181   0.08341   0.08720
 Alpha virt. eigenvalues --    0.09007   0.09347   0.09809   0.09916   0.10391
 Alpha virt. eigenvalues --    0.10800   0.11474   0.11823   0.12268   0.12467
 Alpha virt. eigenvalues --    0.12713   0.13263   0.13787   0.13989   0.14499
 Alpha virt. eigenvalues --    0.14650   0.15035   0.15959   0.17092   0.17729
 Alpha virt. eigenvalues --    0.26375   0.27113   0.27462   0.28660   0.29268
 Alpha virt. eigenvalues --    0.30492   0.30784   0.31191   0.32261   0.33460
 Alpha virt. eigenvalues --    0.34356   0.35073   0.35757   0.37283   0.37806
 Alpha virt. eigenvalues --    0.38131   0.38932   0.39785   0.39849   0.40710
 Alpha virt. eigenvalues --    0.41216   0.41909   0.42848   0.43434   0.43988
 Alpha virt. eigenvalues --    0.44084   0.44340   0.44539   0.44871   0.45089
 Alpha virt. eigenvalues --    0.45737   0.45784   0.46182   0.46204   0.46461
 Alpha virt. eigenvalues --    0.47195   0.48005   0.48237   0.48822   0.49183
 Alpha virt. eigenvalues --    0.49696   0.50268   0.51121   0.52202   0.52659
 Alpha virt. eigenvalues --    0.54577   0.55079   0.55755   0.57068   0.58241
 Alpha virt. eigenvalues --    0.60121   0.60434   0.63451   0.65163   0.69723
 Alpha virt. eigenvalues --    0.71742   2.02882   2.10898   2.11753   2.16016
 Alpha virt. eigenvalues --    2.18322   2.20741   2.21268   4.42601   4.42950
 Alpha virt. eigenvalues --    4.43770   4.44341   4.44676   4.45208   4.45806
 Alpha virt. eigenvalues --    4.45837   4.46228   4.46602   4.47013   4.47232
 Alpha virt. eigenvalues --    4.48408   4.49245   4.49580   4.51750   4.52267
 Alpha virt. eigenvalues --    4.54992   4.58277   4.61002   4.65094  96.22177
 Alpha virt. eigenvalues --   96.32251  96.33157  96.38513  96.40803  96.43662
 Alpha virt. eigenvalues --   96.44607
  Beta  occ. eigenvalues --  -38.44523 -38.44359 -38.43985 -38.43950 -38.43383
  Beta  occ. eigenvalues --  -38.43153 -38.43145  -2.20373  -2.20203  -2.19882
  Beta  occ. eigenvalues --   -2.19799  -2.19174  -2.18995  -2.18945  -1.14092
  Beta  occ. eigenvalues --   -1.14065  -1.13976  -1.13913  -1.13848  -1.13823
  Beta  occ. eigenvalues --   -1.13590  -1.13576  -1.13495  -1.13469  -1.13445
  Beta  occ. eigenvalues --   -1.13423  -1.12870  -1.12854  -1.12845  -1.12707
  Beta  occ. eigenvalues --   -1.12699  -1.12664  -1.12621  -1.12611  -1.12545
  Beta  occ. eigenvalues --   -0.16917  -0.13600  -0.12724
  Beta virt. eigenvalues --   -0.06531  -0.06102  -0.05251  -0.04486  -0.02960
  Beta virt. eigenvalues --   -0.02333  -0.01994  -0.01718  -0.01163  -0.00985
  Beta virt. eigenvalues --   -0.00391   0.00226   0.00423   0.00618   0.00713
  Beta virt. eigenvalues --    0.00748   0.00800   0.00951   0.01262   0.01334
  Beta virt. eigenvalues --    0.01559   0.01620   0.01747   0.01841   0.01930
  Beta virt. eigenvalues --    0.02026   0.02064   0.02237   0.02396   0.02613
  Beta virt. eigenvalues --    0.02758   0.02851   0.02877   0.03019   0.03092
  Beta virt. eigenvalues --    0.03165   0.03318   0.03383   0.03435   0.03515
  Beta virt. eigenvalues --    0.03701   0.03829   0.03971   0.04190   0.04330
  Beta virt. eigenvalues --    0.04514   0.04724   0.05285   0.05392   0.05593
  Beta virt. eigenvalues --    0.05704   0.05977   0.06217   0.06778   0.07183
  Beta virt. eigenvalues --    0.07466   0.07551   0.07729   0.08306   0.08595
  Beta virt. eigenvalues --    0.08887   0.09248   0.09583   0.09828   0.10024
  Beta virt. eigenvalues --    0.10601   0.10999   0.11689   0.11983   0.12444
  Beta virt. eigenvalues --    0.12746   0.12875   0.13370   0.13900   0.14162
  Beta virt. eigenvalues --    0.14631   0.14755   0.15111   0.16148   0.17267
  Beta virt. eigenvalues --    0.17966   0.26669   0.27266   0.27661   0.28969
  Beta virt. eigenvalues --    0.29444   0.30755   0.30881   0.31554   0.32533
  Beta virt. eigenvalues --    0.33607   0.34581   0.35408   0.36053   0.37525
  Beta virt. eigenvalues --    0.38036   0.38541   0.39255   0.39992   0.40123
  Beta virt. eigenvalues --    0.41072   0.41358   0.42260   0.42887   0.43605
  Beta virt. eigenvalues --    0.44125   0.44280   0.44572   0.44776   0.45023
  Beta virt. eigenvalues --    0.45192   0.45768   0.45967   0.46265   0.46319
  Beta virt. eigenvalues --    0.46638   0.47362   0.48019   0.48322   0.49025
  Beta virt. eigenvalues --    0.49395   0.49868   0.50362   0.51257   0.52254
  Beta virt. eigenvalues --    0.52799   0.54599   0.55131   0.55894   0.57275
  Beta virt. eigenvalues --    0.58342   0.60263   0.60448   0.63514   0.65434
  Beta virt. eigenvalues --    0.69919   0.71749   2.02969   2.11120   2.11797
  Beta virt. eigenvalues --    2.16246   2.18337   2.20854   2.21323   4.42685
  Beta virt. eigenvalues --    4.42964   4.43830   4.44350   4.44686   4.45263
  Beta virt. eigenvalues --    4.45872   4.45910   4.46255   4.46648   4.47034
  Beta virt. eigenvalues --    4.47259   4.48441   4.49297   4.49671   4.51802
  Beta virt. eigenvalues --    4.52285   4.55015   4.58342   4.61088   4.65094
  Beta virt. eigenvalues --   96.22208  96.32328  96.33174  96.38585  96.40810
  Beta virt. eigenvalues --   96.43701  96.44627
          Condensed to atoms (all electrons):
               1          2          3          4          5          6
     1  Na  12.528999  -0.271678   0.066736  -1.018066  -0.032113   0.716810
     2  Na  -0.271678  12.063385   0.839594   0.910754  -0.339211  -0.955282
     3  Na   0.066736   0.839594  11.569641  -0.068400  -0.289823  -0.614078
     4  Na  -1.018066   0.910754  -0.068400  12.479407   0.007205  -0.581946
     5  Na  -0.032113  -0.339211  -0.289823   0.007205  10.939841   0.281259
     6  Na   0.716810  -0.955282  -0.614078  -0.581946   0.281259  11.398296
     7  Na  -0.368724  -0.233506   0.438151  -1.034246  -0.086474  -0.270504
               7
     1  Na  -0.368724
     2  Na  -0.233506
     3  Na   0.438151
     4  Na  -1.034246
     5  Na  -0.086474
     6  Na  -0.270504
     7  Na  11.827514
          Atomic-Atomic Spin Densities.
               1          2          3          4          5          6
     1  Na   0.788283  -0.273894   0.116723  -0.783152  -0.285193   0.213069
     2  Na  -0.273894   0.113709   0.017659   0.173601   0.070033  -0.114555
     3  Na   0.116723   0.017659  -0.022748  -0.070013   0.036986   0.013905
     4  Na  -0.783152   0.173601  -0.070013   0.606332   0.267127  -0.251774
     5  Na  -0.285193   0.070033   0.036986   0.267127   0.424844  -0.099339
     6  Na   0.213069  -0.114555   0.013905  -0.251774  -0.099339   0.111629
     7  Na   0.439599   0.057166  -0.037205   0.023984  -0.034071   0.103935
               7
     1  Na   0.439599
     2  Na   0.057166
     3  Na  -0.037205
     4  Na   0.023984
     5  Na  -0.034071
     6  Na   0.103935
     7  Na  -0.191231
 Mulliken charges and spin densities:
               1          2
     1  Na  -0.621963   0.215435
     2  Na  -1.014057   0.043718
     3  Na  -0.941822   0.055308
     4  Na   0.305291  -0.033894
     5  Na   0.519316   0.380388
     6  Na   1.025445  -0.023131
     7  Na   0.727789   0.362176
 Sum of Mulliken charges =  -0.00000   1.00000
 Mulliken charges and spin densities with hydrogens summed into heavy atoms:
               1          2
     1  Na  -0.621963   0.215435
     2  Na  -1.014057   0.043718
     3  Na  -0.941822   0.055308
     4  Na   0.305291  -0.033894
     5  Na   0.519316   0.380388
     6  Na   1.025445  -0.023131
     7  Na   0.727789   0.362176
 Electronic spatial extent (au):  <R**2>=           3311.9480
 Charge=             -0.0000 electrons
 Dipole moment (field-independent basis, Debye):
    X=              0.0648    Y=              0.9899    Z=             -0.1158  Tot=              0.9987
 Quadrupole moment (field-independent basis, Debye-Ang):
   XX=            -69.9476   YY=            -57.9647   ZZ=            -70.3989
   XY=              4.6578   XZ=             -0.1945   YZ=             -1.5533
 Traceless Quadrupole moment (field-independent basis, Debye-Ang):
   XX=             -3.8438   YY=              8.1391   ZZ=             -4.2952
   XY=              4.6578   XZ=             -0.1945   YZ=             -1.5533
 Octapole moment (field-independent basis, Debye-Ang**2):
  XXX=             23.7588  YYY=             44.7876  ZZZ=              3.1795  XYY=              3.1584
  XXY=            -19.6994  XXZ=             -3.2804  XZZ=             -4.8384  YZZ=              3.4059
  YYZ=            -10.9470  XYZ=              2.8953
 Hexadecapole moment (field-independent basis, Debye-Ang**3):
 XXXX=          -3296.2958 YYYY=          -1766.9962 ZZZZ=           -340.9892 XXXY=              8.2225
 XXXZ=             29.4411 YYYX=            112.4734 YYYZ=            -59.4942 ZZZX=             -5.0181
 ZZZY=             -4.4056 XXYY=           -820.4274 XXZZ=           -616.7507 YYZZ=           -403.3511
 XXYZ=             -8.3740 YYXZ=            -29.5699 ZZXY=             14.8275
 N-N= 3.033719415738D+02 E-N=-3.336153479497D+03  KE= 1.132946147970D+03
                          Isotropic Fermi Contact Couplings
        Atom                 a.u.       MegaHertz       Gauss      10(-4) cm-1
     1  Na(23)             0.08481     100.33337      35.80144      33.46761
     2  Na(23)            -0.00212      -2.51022      -0.89571      -0.83732
     3  Na(23)            -0.00621      -7.34774      -2.62186      -2.45094
     4  Na(23)             0.04230      50.04512      17.85734      16.69326
     5  Na(23)             0.35018     414.27306     147.82293     138.18662
     6  Na(23)            -0.02913     -34.46428     -12.29771     -11.49605
     7  Na(23)             0.22401     265.01040      94.56230      88.39795
 --------------------------------------------------------
       Center         ----  Spin Dipole Couplings  ----
                      3XX-RR        3YY-RR        3ZZ-RR
 --------------------------------------------------------
     1   Atom        0.045142     -0.024699     -0.020444
     2   Atom        0.026275     -0.017952     -0.008324
     3   Atom        0.021892     -0.009222     -0.012670
     4   Atom        0.053722     -0.023677     -0.030045
     5   Atom       -0.002715      0.001481      0.001234
     6   Atom       -0.001338      0.002255     -0.000917
     7   Atom       -0.009044      0.006477      0.002567
 --------------------------------------------------------
                        XY            XZ            YZ
 --------------------------------------------------------
     1   Atom        0.004053     -0.019399     -0.001491
     2   Atom       -0.010466     -0.005947      0.001554
     3   Atom       -0.020502      0.008382     -0.003284
     4   Atom       -0.029085      0.006933     -0.002917
     5   Atom        0.003991     -0.004934      0.003972
     6   Atom        0.000898     -0.000078     -0.001362
     7   Atom        0.002068      0.000310     -0.000130
 --------------------------------------------------------


 ---------------------------------------------------------------------------------
              Anisotropic Spin Dipole Couplings in Principal Axis System
 ---------------------------------------------------------------------------------

       Atom             a.u.   MegaHertz   Gauss  10(-4) cm-1        Axes

              Baa    -0.0259    -3.657    -1.305    -1.220  0.2265  0.3605  0.9048
     1 Na(23) Bbb    -0.0248    -3.502    -1.250    -1.168 -0.1466  0.9310 -0.3342
              Bcc     0.0507     7.159     2.554     2.388  0.9629  0.0570 -0.2638
 
              Baa    -0.0203    -2.868    -1.023    -0.957  0.2169  0.9760 -0.0189
     2 Na(23) Bbb    -0.0093    -1.315    -0.469    -0.439  0.1601 -0.0164  0.9870
              Bcc     0.0296     4.183     1.493     1.395  0.9630 -0.2171 -0.1598
 
              Baa    -0.0195    -2.756    -0.983    -0.919  0.4626  0.8743 -0.1469
     3 Na(23) Bbb    -0.0143    -2.017    -0.720    -0.673 -0.1019  0.2171  0.9708
              Bcc     0.0338     4.773     1.703     1.592  0.8807 -0.4341  0.1895
 
              Baa    -0.0335    -4.731    -1.688    -1.578  0.2963  0.9350  0.1947
     4 Na(23) Bbb    -0.0305    -4.311    -1.538    -1.438 -0.1359 -0.1605  0.9776
              Bcc     0.0640     9.042     3.226     3.016  0.9454 -0.3161  0.0795
 
              Baa    -0.0090    -1.271    -0.453    -0.424  0.7102 -0.4693  0.5247
     5 Na(23) Bbb     0.0036     0.503     0.180     0.168  0.6821  0.6432 -0.3479
              Bcc     0.0054     0.767     0.274     0.256 -0.1742  0.6049  0.7770
 
              Baa    -0.0017    -0.241    -0.086    -0.080  0.7580 -0.3590 -0.5446
     6 Na(23) Bbb    -0.0012    -0.174    -0.062    -0.058  0.6209  0.1415  0.7710
              Bcc     0.0029     0.415     0.148     0.138  0.1998  0.9225 -0.3302
 
              Baa    -0.0093    -1.317    -0.470    -0.439  0.9911 -0.1300 -0.0273
     7 Na(23) Bbb     0.0026     0.363     0.130     0.121  0.0298  0.0174  0.9994
              Bcc     0.0067     0.953     0.340     0.318  0.1294  0.9914 -0.0211
 

 ---------------------------------------------------------------------------------

 No NMR shielding tensors so no spin-rotation constants.
 Leave Link  601 at Tue Nov 28 22:33:15 2023, MaxMem=  1879048192 cpu:               2.3 elap:               0.2
 (Enter /home/sekinelabo/g16/l701.exe)
 ... and contract with generalized density number  0.
 Compute integral first derivatives.
 Leave Link  701 at Tue Nov 28 22:33:15 2023, MaxMem=  1879048192 cpu:               1.5 elap:               0.1
 (Enter /home/sekinelabo/g16/l702.exe)
 L702 exits ... SP integral derivatives will be done elsewhere.
 Leave Link  702 at Tue Nov 28 22:33:15 2023, MaxMem=  1879048192 cpu:               0.4 elap:               0.0
 (Enter /home/sekinelabo/g16/l703.exe)
 Integral derivatives from FoFJK, PRISM(SPDF).
 Compute integral first derivatives, UseDBF=F ICtDFT=           0.
 Calling FoFJK, ICntrl=      2127 FMM=F ISym2X=0 I1Cent= 0 IOpClX= 1 NMat=1 NMatS=1 NMatT=0.
 FoFJK:  IHMeth= 1 ICntrl=    2127 DoSepK=F KAlg= 0 I1Cent=           0 FoldK=F
 IRaf=         0 NMat=       1 IRICut=       1 DoRegI=T DoRafI=F ISym2E= 0 IDoP0=0 IntGTp=1.
 FoFCou: FMM=F IPFlag=           0 FMFlag=      100000 FMFlg1=         800
         NFxFlg=           0 DoJE=F BraDBF=F KetDBF=F FulRan=T
         wScrn=  0.000000 ICntrl=      2127 IOpCl=  1 I1Cent=           0 NGrid=           0
         NMat0=    1 NMatS0=      1 NMatT0=    0 NMatD0=    1 NMtDS0=    0 NMtDT0=    0
 Symmetry not used in FoFCou.
 Leave Link  703 at Tue Nov 28 22:33:17 2023, MaxMem=  1879048192 cpu:              30.5 elap:               2.1
 (Enter /home/sekinelabo/g16/l716.exe)
 Dipole        = 2.54979291D-02 3.89448111D-01-4.55403754D-02
 ***** Axes restored to original set *****
 -------------------------------------------------------------------
 Center     Atomic                   Forces (Hartrees/Bohr)
 Number     Number              X              Y              Z
 -------------------------------------------------------------------
      1       11          -0.000725187    0.000345330   -0.000421873
      2       11           0.000081337    0.004166856    0.005774198
      3       11          -0.000725030   -0.001963115    0.001537952
      4       11           0.000481023    0.002239462   -0.000015569
      5       11           0.000174408   -0.002730570   -0.002456596
      6       11          -0.000331296   -0.002704975   -0.003505563
      7       11           0.001044745    0.000647011   -0.000912549
 -------------------------------------------------------------------
 Cartesian Forces:  Max     0.005774198 RMS     0.002172393
 Z-matrix is all fixed cartesians, so copy forces.
 Force constants in Cartesian coordinates: 
                1             2             3             4             5 
      1  0.760572D-01
      2  0.103167D-01  0.812098D-01
      3 -0.301159D-02 -0.167145D-02  0.925508D-01
      4 -0.170010D-01 -0.519899D-02 -0.736529D-03  0.812890D-01
      5 -0.356840D-02 -0.235807D-01 -0.173575D-02  0.854579D-02  0.908619D-01
      6  0.527464D-02  0.404481D-02 -0.218885D-01 -0.758955D-02  0.776115D-02
      7 -0.163349D-01 -0.479353D-03  0.134270D-02 -0.261227D-01  0.104128D-02
      8 -0.229013D-02 -0.154258D-01  0.339882D-02 -0.758018D-02 -0.255786D-01
      9 -0.378518D-02  0.178396D-02 -0.201845D-01  0.202706D-02  0.677869D-02
     10 -0.283247D-01  0.395331D-02  0.105753D-01 -0.135269D-03 -0.257408D-02
     11 -0.267167D-02 -0.213051D-01  0.485083D-02 -0.334203D-02  0.224602D-02
     12 -0.873688D-02 -0.780623D-02 -0.267340D-01  0.330740D-02  0.237563D-02
     13  0.440772D-02 -0.438877D-02 -0.327528D-02  0.228987D-02 -0.316768D-02
     14  0.516934D-03 -0.210597D-02 -0.592071D-03 -0.430660D-03  0.417345D-03
     15 -0.130192D-02 -0.464995D-02  0.210113D-02  0.151206D-02 -0.263091D-02
     16  0.327567D-02  0.231938D-02  0.988590D-03 -0.218237D-01 -0.367908D-02
     17  0.126804D-02  0.653522D-02  0.647459D-03  0.876951D-02 -0.303043D-01
     18  0.501376D-02 -0.285029D-02 -0.148300D-02  0.735227D-02 -0.252886D-02
     19 -0.220799D-01 -0.652229D-02 -0.588321D-02 -0.184962D-01  0.340217D-02
     20 -0.357149D-02 -0.253274D-01 -0.489784D-02 -0.763437D-03 -0.140616D-01
     21  0.654716D-02  0.111492D-01 -0.243620D-01 -0.587272D-02 -0.100199D-01
                6             7             8             9            10 
      6  0.955529D-01
      7 -0.669258D-02  0.103356D+00
      8 -0.431848D-02  0.399249D-02  0.918923D-01
      9 -0.356470D-01  0.115798D-01 -0.255752D-02  0.119706D+00
     10  0.291535D-02 -0.203118D-01  0.927090D-03 -0.890337D-02  0.555760D-01
     11  0.279913D-02 -0.338880D-02 -0.120475D-01  0.479842D-03  0.624198D-02
     12  0.622082D-02  0.652335D-02 -0.125798D-02 -0.256768D-01 -0.162295D-01
     13  0.342866D-02 -0.163550D-01  0.172249D-02 -0.523827D-02 -0.133618D-01
     14 -0.399168D-04  0.209631D-02 -0.236902D-01 -0.554104D-02 -0.436819D-02
     15  0.415022D-02  0.137239D-02  0.131668D-01 -0.216325D-01  0.617916D-02
     16 -0.215943D-02 -0.282111D-01  0.495722D-02  0.816362D-02  0.302561D-02
     17 -0.160649D-01 -0.240154D-02 -0.166579D-01  0.257473D-02 -0.128163D-02
     18 -0.279422D-01 -0.110620D-01 -0.391298D-02 -0.207009D-01  0.498100D-02
     19  0.482291D-02  0.397968D-02 -0.172897D-02 -0.384367D-02  0.353204D-02
     20  0.581824D-02 -0.860382D-03  0.150769D-02 -0.351865D-02 -0.289848D-02
     21 -0.204463D-01 -0.306365D-02 -0.451865D-02  0.413522D-02  0.482056D-03
               11            12            13            14            15 
     11  0.474114D-01
     12  0.128442D-01  0.526915D-01
     13  0.816349D-02  0.118521D-01  0.216659D-01
     14 -0.215820D-01 -0.421265D-02  0.271779D-02  0.442358D-01
     15 -0.185003D-01 -0.142776D-01 -0.753749D-02  0.106632D-01  0.290264D-01
     16 -0.574432D-03  0.194386D-02  0.140209D-02 -0.640873D-03 -0.130638D-03
     17  0.154688D-02 -0.534615D-03 -0.509457D-02  0.281295D-02  0.189924D-02
     18 -0.544629D-03  0.328120D-02  0.719104D-03 -0.160231D-03  0.428513D-03
     19 -0.442853D-02  0.133966D-02 -0.487120D-04  0.108686D-03 -0.935662D-04
     20  0.373031D-02 -0.140832D-02  0.472545D-04 -0.879644D-04  0.519030D-04
     21 -0.192905D-02  0.449490D-02  0.511539D-04 -0.117302D-03  0.203801D-03
               16            17            18            19            20 
     16  0.368518D-01
     17  0.485437D-03  0.339036D-01
     18 -0.993364D-02  0.125037D-01  0.452978D-01
     19  0.547960D-02 -0.174525D-02  0.292951D-02  0.276335D-01
     20 -0.286765D-02  0.216354D-02 -0.250670D-02  0.109142D-01  0.320755D-01
     21  0.112764D-02 -0.102558D-02  0.111857D-02  0.728361D-03  0.646137D-02
               21 
     21  0.348558D-01
 Leave Link  716 at Tue Nov 28 22:33:17 2023, MaxMem=  1879048192 cpu:               0.4 elap:               0.0
 (Enter /home/sekinelabo/g16/l103.exe)

 GradGradGradGradGradGradGradGradGradGradGradGradGradGradGradGradGradGrad
 Berny optimization.
 Search for a local minimum.
 Step number   1 out of a maximum of    2
 All quantities printed in internal units (Hartrees-Bohrs-Radians)
 Second derivative matrix not updated -- first step.
 ITU=  0
     Eigenvalues ---    0.01451   0.02633   0.03148   0.03588   0.05295
     Eigenvalues ---    0.07163   0.07794   0.08743   0.09682   0.10818
     Eigenvalues ---    0.11418   0.13037   0.13413   0.14038   0.16105
 Angle between quadratic step and forces=  30.81 degrees.
 Linear search not attempted -- first point.
 B after Tr=     0.000000    0.000000    0.000000
         Rot=    1.000000    0.000000   -0.000000   -0.000000 Ang=   0.00 deg.
 Variable       Old X    -DE/DX   Delta X   Delta X   Delta X     New X
                                 (Linear)    (Quad)   (Total)
    X1       28.53657  -0.00073   0.00000  -0.00435  -0.00435  28.53222
    Y1       30.59032   0.00035   0.00000   0.02251   0.02251  30.61283
    Z1       33.08948  -0.00042   0.00000   0.01416   0.01416  33.10364
    X2       32.01971   0.00008   0.00000   0.00864   0.00864  32.02835
    Y2       32.23570   0.00417   0.00000   0.03246   0.03246  32.26816
    Z2       27.44525   0.00577   0.00000   0.04909   0.04909  27.49434
    X3       27.68638  -0.00073   0.00000  -0.01026  -0.01026  27.67612
    Y3       27.68619  -0.00196   0.00000  -0.01829  -0.01829  27.66790
    Z3       26.13321   0.00154   0.00000   0.01365   0.01365  26.14686
    X4       23.81131   0.00048   0.00000  -0.00204  -0.00204  23.80926
    Y4       26.43103   0.00224   0.00000   0.01069   0.01069  26.44173
    Z4       31.81354  -0.00002   0.00000  -0.00759  -0.00759  31.80595
    X5       25.21462   0.00017   0.00000  -0.00456  -0.00456  25.21005
    Y5       21.87585  -0.00273   0.00000  -0.05236  -0.05236  21.82349
    Z5       28.10854  -0.00246   0.00000  -0.04170  -0.04170  28.06684
    X6       33.28885  -0.00033   0.00000  -0.01394  -0.01394  33.27491
    Y6       28.78299  -0.00270   0.00000  -0.03147  -0.03147  28.75151
    Z6       22.98001  -0.00351   0.00000  -0.03305  -0.03305  22.94697
    X7       32.44716   0.00104   0.00000   0.02651   0.02651  32.47368
    Y7       35.40251   0.00065   0.00000   0.03647   0.03647  35.43897
    Z7       33.43474  -0.00091   0.00000   0.00543   0.00543  33.44017
         Item               Value     Threshold  Converged?
 Maximum Force            0.005774     0.000450     NO 
 RMS     Force            0.002172     0.000300     NO 
 Maximum Displacement     0.052362     0.001800     NO 
 RMS     Displacement     0.025733     0.001200     NO 
 Predicted change in Energy=-5.041652D-04
 GradGradGradGradGradGradGradGradGradGradGradGradGradGradGradGradGradGrad

 Leave Link  103 at Tue Nov 28 22:33:17 2023, MaxMem=  1879048192 cpu:               0.2 elap:               0.0
 (Enter /home/sekinelabo/g16/l9999.exe)
 1\1\GINC-SEKINELABO-XA7R-R37\Force\UB3LYP\6-311+G(d)\Na7(2)\SEKINELABO
 \28-Nov-2023\0\\#P B3LYP/6-311+g(d) force\\DPGEN\\0,2\Na,15.1009,16.18
 77,17.5102\Na,16.9441,17.0584,14.5234\Na,14.651,14.6509,13.8291\Na,12.
 6004,13.9867,16.835\Na,13.343,11.5762,14.8744\Na,17.6157,15.2313,12.16
 05\Na,17.1703,18.7342,17.6929\\Version=ES64L-G16RevB.01\State=2-A\HF=-
 1136.1290638\S2=0.777761\S2-1=0.\S2A=0.750435\RMSD=4.590e-09\RMSF=2.17
 2e-03\Dipole=0.2130636,-0.0631832,-0.3240458\Quadrupole=1.1625174,-3.5
 220768,2.3595594,0.0842812,-5.5366402,-0.7169982\PG=C01 [X(Na7)]\\@


 THE WORLD OF CHEMICAL REACTIONS IS LIKE A STAGE,
 ON WHICH SCENE AFTER SCENE IS CEASELESSLY PLAYED.
 THE ACTORS ON IT ARE THE ELEMENTS.
   -- CLEMENS WINKLER   BER. 30,13(1897)
 (DISCOVERER OF GERMANIUM, FEB 6, 1886)
 Job cpu time:       0 days  0 hours  3 minutes 47.0 seconds.
 Elapsed time:       0 days  0 hours  0 minutes 19.4 seconds.
 File lengths (MBytes):  RWF=     32 Int=      0 D2E=      0 Chk=      4 Scr=      1
 Normal termination of Gaussian 16 at Tue Nov 28 22:33:17 2023.
