 Set GAUSS_MDEF to "14GB".
 Entering Gaussian System, Link 0=g16
 Initial command:
 /home/sekinelabo/g16/l1.exe "/home/sekinelabo/g16temp/Gau-95470.inp" -scrdir="/home/sekinelabo/g16temp/"
 Entering Link 1 = /home/sekinelabo/g16/l1.exe PID=     95472.
  
 Copyright (c) 1988-2017, Gaussian, Inc.  All Rights Reserved.
  
 This is part of the Gaussian(R) 16 program.  It is based on
 the Gaussian(R) 09 system (copyright 2009, Gaussian, Inc.),
 the Gaussian(R) 03 system (copyright 2003, Gaussian, Inc.),
 the Gaussian(R) 98 system (copyright 1998, Gaussian, Inc.),
 the Gaussian(R) 94 system (copyright 1995, Gaussian, Inc.),
 the Gaussian 92(TM) system (copyright 1992, Gaussian, Inc.),
 the Gaussian 90(TM) system (copyright 1990, Gaussian, Inc.),
 the Gaussian 88(TM) system (copyright 1988, Gaussian, Inc.),
 the Gaussian 86(TM) system (copyright 1986, Carnegie Mellon
 University), and the Gaussian 82(TM) system (copyright 1983,
 Carnegie Mellon University). Gaussian is a federally registered
 trademark of Gaussian, Inc.
  
 This software contains proprietary and confidential information,
 including trade secrets, belonging to Gaussian, Inc.
  
 This software is provided under written license and may be
 used, copied, transmitted, or stored only in accord with that
 written license.
  
 The following legend is applicable only to US Government
 contracts under FAR:
  
                    RESTRICTED RIGHTS LEGEND
  
 Use, reproduction and disclosure by the US Government is
 subject to restrictions as set forth in subparagraphs (a)
 and (c) of the Commercial Computer Software - Restricted
 Rights clause in FAR 52.227-19.
  
 Gaussian, Inc.
 340 Quinnipiac St., Bldg. 40, Wallingford CT 06492
  
  
 ---------------------------------------------------------------
 Warning -- This program may not be used in any manner that
 competes with the business of Gaussian, Inc. or will provide
 assistance to any competitor of Gaussian, Inc.  The licensee
 of this program is prohibited from giving any competitor of
 Gaussian, Inc. access to this program.  By using this program,
 the user acknowledges that Gaussian, Inc. is engaged in the
 business of creating and licensing software in the field of
 computational chemistry and represents and warrants to the
 licensee that it is not a competitor of Gaussian, Inc. and that
 it will not use this program in any manner prohibited above.
 ---------------------------------------------------------------
  

 Cite this work as:
 Gaussian 16, Revision B.01,
 M. J. Frisch, G. W. Trucks, H. B. Schlegel, G. E. Scuseria, 
 M. A. Robb, J. R. Cheeseman, G. Scalmani, V. Barone, 
 G. A. Petersson, H. Nakatsuji, X. Li, M. Caricato, A. V. Marenich, 
 J. Bloino, B. G. Janesko, R. Gomperts, B. Mennucci, H. P. Hratchian, 
 J. V. Ortiz, A. F. Izmaylov, J. L. Sonnenberg, D. Williams-Young, 
 F. Ding, F. Lipparini, F. Egidi, J. Goings, B. Peng, A. Petrone, 
 T. Henderson, D. Ranasinghe, V. G. Zakrzewski, J. Gao, N. Rega, 
 G. Zheng, W. Liang, M. Hada, M. Ehara, K. Toyota, R. Fukuda, 
 J. Hasegawa, M. Ishida, T. Nakajima, Y. Honda, O. Kitao, H. Nakai, 
 T. Vreven, K. Throssell, J. A. Montgomery, Jr., J. E. Peralta, 
 F. Ogliaro, M. J. Bearpark, J. J. Heyd, E. N. Brothers, K. N. Kudin, 
 V. N. Staroverov, T. A. Keith, R. Kobayashi, J. Normand, 
 K. Raghavachari, A. P. Rendell, J. C. Burant, S. S. Iyengar, 
 J. Tomasi, M. Cossi, J. M. Millam, M. Klene, C. Adamo, R. Cammi, 
 J. W. Ochterski, R. L. Martin, K. Morokuma, O. Farkas, 
 J. B. Foresman, and D. J. Fox, Gaussian, Inc., Wallingford CT, 2016.
 
 ******************************************
 Gaussian 16:  ES64L-G16RevB.01 20-Dec-2017
                28-Nov-2023 
 ******************************************
 %nproc=15
 Will use up to   15 processors via shared memory.
 -------------------------
 #P B3LYP/6-311+g(d) force
 -------------------------
 1/10=7,30=1,38=1/1,3;
 2/12=2,17=6,18=5,40=1/2;
 3/5=4,6=6,7=11,11=2,25=1,30=1,71=1,74=-5/1,2,3;
 4//1;
 5/5=2,38=5/2;
 6/7=2,8=2,9=2,10=2,28=1/1;
 7/29=1/1,2,3,16;
 1/10=7,30=1/3;
 99//99;
 Leave Link    1 at Tue Nov 28 21:03:14 2023, MaxMem=           0 cpu:               0.3 elap:               0.0
 (Enter /home/sekinelabo/g16/l101.exe)
 -----
 DPGEN
 -----
 Symbolic Z-matrix:
 Charge =  0 Multiplicity = 2
 Na                    15.7864   16.9485   13.6505 
 Na                    17.1447   17.5342   16.4055 
 Na                    17.1513   14.673    18.0223 
 Na                    17.2202   13.6864   14.649 
 Na                    14.7391   13.6159   12.6458 
 Na                    13.8768   15.1342   17.3405 
 Na                    11.5071   15.8333   14.7119 
 
 ITRead=  0  0  0  0  0  0  0
 MicOpt= -1 -1 -1 -1 -1 -1 -1
 NAtoms=      7 NQM=        7 NQMF=       0 NMMI=      0 NMMIF=      0
                NMic=       0 NMicF=      0.
                    Isotopes and Nuclear Properties:
 (Nuclear quadrupole moments (NQMom) in fm**2, nuclear magnetic moments (NMagM)
  in nuclear magnetons)

  Atom         1           2           3           4           5           6           7
 IAtWgt=          23          23          23          23          23          23          23
 AtmWgt=  22.9897697  22.9897697  22.9897697  22.9897697  22.9897697  22.9897697  22.9897697
 NucSpn=           3           3           3           3           3           3           3
 AtZEff=  -0.0000000  -0.0000000  -0.0000000  -0.0000000  -0.0000000  -0.0000000  -0.0000000
 NQMom=   10.4000000  10.4000000  10.4000000  10.4000000  10.4000000  10.4000000  10.4000000
 NMagM=    2.2175200   2.2175200   2.2175200   2.2175200   2.2175200   2.2175200   2.2175200
 AtZNuc=  11.0000000  11.0000000  11.0000000  11.0000000  11.0000000  11.0000000  11.0000000
 Leave Link  101 at Tue Nov 28 21:03:14 2023, MaxMem=  1879048192 cpu:               2.3 elap:               0.2
 (Enter /home/sekinelabo/g16/l103.exe)

 GradGradGradGradGradGradGradGradGradGradGradGradGradGradGradGradGradGrad
 Berny optimization.
 Initialization pass.
 Trust Radius=3.00D-01 FncErr=1.00D-07 GrdErr=1.00D-07 EigMax=2.50D+02 EigMin=1.00D-04
 Number of steps in this run=      2 maximum allowed number of steps=      2.
 GradGradGradGradGradGradGradGradGradGradGradGradGradGradGradGradGradGrad

 Leave Link  103 at Tue Nov 28 21:03:15 2023, MaxMem=  1879048192 cpu:               0.2 elap:               0.0
 (Enter /home/sekinelabo/g16/l202.exe)
                          Input orientation:                          
 ---------------------------------------------------------------------
 Center     Atomic      Atomic             Coordinates (Angstroms)
 Number     Number       Type             X           Y           Z
 ---------------------------------------------------------------------
      1         11           0       15.786400   16.948500   13.650500
      2         11           0       17.144700   17.534200   16.405500
      3         11           0       17.151300   14.673000   18.022300
      4         11           0       17.220200   13.686400   14.649000
      5         11           0       14.739100   13.615900   12.645800
      6         11           0       13.876800   15.134200   17.340500
      7         11           0       11.507100   15.833300   14.711900
 ---------------------------------------------------------------------
                    Distance matrix (angstroms):
                    1          2          3          4          5
     1  Na   0.000000
     2  Na   3.126987   0.000000
     3  Na   5.114048   3.286419   0.000000
     4  Na   3.700551   4.230432   3.515292   0.000000
     5  Na   3.634898   5.939304   5.986896   3.189614   0.000000
     6  Na   4.533691   4.160937   3.376375   4.529748   5.008893
     7  Na   4.547818   6.127306   6.645452   6.103495   4.430740
                    6          7
     6  Na   0.000000
     7  Na   3.607459   0.000000
 Stoichiometry    Na7(2)
 Framework group  C1[X(Na7)]
 Deg. of freedom    15
 Full point group                 C1      NOp   1
 Largest Abelian subgroup         C1      NOp   1
 Largest concise Abelian subgroup C1      NOp   1
                         Standard orientation:                         
 ---------------------------------------------------------------------
 Center     Atomic      Atomic             Coordinates (Angstroms)
 Number     Number       Type             X           Y           Z
 ---------------------------------------------------------------------
      1         11           0       -0.505165    0.931995    2.124268
      2         11           0        2.258367   -0.519779    1.941802
      3         11           0        2.966766   -0.688543   -1.262920
      4         11           0        0.952235    2.183500   -1.038611
      5         11           0       -2.227116    2.251684   -0.792201
      6         11           0       -0.027056   -2.238926   -1.080577
      7         11           0       -3.418031   -1.919932    0.108239
 ---------------------------------------------------------------------
 Rotational constants (GHZ):           0.6678998           0.4943137           0.4239104
 Leave Link  202 at Tue Nov 28 21:03:15 2023, MaxMem=  1879048192 cpu:               0.0 elap:               0.0
 (Enter /home/sekinelabo/g16/l301.exe)
 Standard basis: 6-311+G(d) (5D, 7F)
 Ernie: Thresh=  0.10000D-02 Tol=  0.10000D-05 Strict=F.
 There are   217 symmetry adapted cartesian basis functions of A   symmetry.
 There are   210 symmetry adapted basis functions of A   symmetry.
   210 basis functions,   350 primitive gaussians,   217 cartesian basis functions
    39 alpha electrons       38 beta electrons
       nuclear repulsion energy       314.5511945056 Hartrees.
 IExCor=  402 DFT=T Ex+Corr=B3LYP ExCW=0 ScaHFX=  0.200000
 ScaDFX=  0.800000  0.720000  1.000000  0.810000 ScalE2=  1.000000  1.000000
 IRadAn=      5 IRanWt=     -1 IRanGd=            0 ICorTp=0 IEmpDi=  4
 NAtoms=    7 NActive=    7 NUniq=    7 SFac= 1.00D+00 NAtFMM=   60 NAOKFM=F Big=F
 Integral buffers will be    131072 words long.
 Raffenetti 2 integral format.
 Two-electron integral symmetry is turned on.
 Leave Link  301 at Tue Nov 28 21:03:15 2023, MaxMem=  1879048192 cpu:               0.5 elap:               0.0
 (Enter /home/sekinelabo/g16/l302.exe)
 NPDir=0 NMtPBC=     1 NCelOv=     1 NCel=       1 NClECP=     1 NCelD=      1
         NCelK=      1 NCelE2=     1 NClLst=     1 CellRange=     0.0.
 One-electron integrals computed using PRISM.
 One-electron integral symmetry used in STVInt
 NBasis=   210 RedAO= T EigKep=  5.65D-06  NBF=   210
 NBsUse=   210 1.00D-06 EigRej= -1.00D+00 NBFU=   210
 Precomputing XC quadrature grid using
 IXCGrd= 4 IRadAn=           5 IRanWt=          -1 IRanGd=           0 AccXCQ= 0.00D+00.
 Generated NRdTot=       0 NPtTot=           0 NUsed=           0 NTot=          32
 NSgBfM=   209   209   209   209   209 MxSgAt=     7 MxSgA2=     7.
 Leave Link  302 at Tue Nov 28 21:03:15 2023, MaxMem=  1879048192 cpu:               1.9 elap:               0.1
 (Enter /home/sekinelabo/g16/l303.exe)
 DipDrv:  MaxL=1.
 Leave Link  303 at Tue Nov 28 21:03:15 2023, MaxMem=  1879048192 cpu:               0.5 elap:               0.0
 (Enter /home/sekinelabo/g16/l401.exe)
 ExpMin= 7.60D-03 ExpMax= 3.62D+04 ExpMxC= 1.21D+03 IAcc=3 IRadAn=         5 AccDes= 0.00D+00
 Harris functional with IExCor=  402 and IRadAn=       5 diagonalized for initial guess.
 HarFok:  IExCor=  402 AccDes= 0.00D+00 IRadAn=         5 IDoV= 1 UseB2=F ITyADJ=14
 ICtDFT=  3500011 ScaDFX=  1.000000  1.000000  1.000000  1.000000
 FoFCou: FMM=F IPFlag=           0 FMFlag=      100000 FMFlg1=           0
         NFxFlg=           0 DoJE=T BraDBF=F KetDBF=T FulRan=T
         wScrn=  0.000000 ICntrl=       500 IOpCl=  0 I1Cent=   200000004 NGrid=           0
         NMat0=    1 NMatS0=      1 NMatT0=    0 NMatD0=    1 NMtDS0=    0 NMtDT0=    0
 Petite list used in FoFCou.
 Harris En= -1135.89111423762    
 JPrj=0 DoOrth=F DoCkMO=F.
 Initial guess <Sx>= 0.0000 <Sy>= 0.0000 <Sz>= 0.5000 <S**2>= 0.7500 S= 0.5000
 Leave Link  401 at Tue Nov 28 21:03:15 2023, MaxMem=  1879048192 cpu:               4.3 elap:               0.3
 (Enter /home/sekinelabo/g16/l502.exe)
 Keep R1 and R2 ints in memory in canonical form, NReq=506573293.
 FoFCou: FMM=F IPFlag=           0 FMFlag=           0 FMFlg1=           0
         NFxFlg=           0 DoJE=F BraDBF=F KetDBF=F FulRan=T
         wScrn=  0.000000 ICntrl=       600 IOpCl=  0 I1Cent=           0 NGrid=           0
         NMat0=    1 NMatS0=  22155 NMatT0=    0 NMatD0=    1 NMtDS0=    0 NMtDT0=    0
 Symmetry not used in FoFCou.
 Two-electron integral symmetry not used.
 UHF open shell SCF:
 Using DIIS extrapolation, IDIIS=  1040.
 NGot=  1879048192 LenX=  1388082607 LenY=  1388035077
 Requested convergence on RMS density matrix=1.00D-08 within 128 cycles.
 Requested convergence on MAX density matrix=1.00D-06.
 Requested convergence on             energy=1.00D-06.
 No special actions if energy rises.

 Cycle   1  Pass 1  IDiag  1:
 E= -1136.09302778597    
 DIIS: error= 9.34D-03 at cycle   1 NSaved=   1.
 NSaved= 1 IEnMin= 1 EnMin= -1136.09302778597     IErMin= 1 ErrMin= 9.34D-03
 ErrMax= 9.34D-03  0.00D+00 EMaxC= 1.00D-01 BMatC= 1.88D-01 BMatP= 1.88D-01
 IDIUse=3 WtCom= 9.07D-01 WtEn= 9.34D-02
 Coeff-Com:  0.100D+01
 Coeff-En:   0.100D+01
 Coeff:      0.100D+01
 Gap=     0.059 Goal=   None    Shift=    0.000
 Gap=     0.030 Goal=   None    Shift=    0.000
 GapD=    0.030 DampG=0.250 DampE=1.000 DampFc=0.2500 IDamp=-1.
 Damping current iteration by 2.50D-01
 RMSDP=2.12D-02 MaxDP=2.48D+00              OVMax= 1.76D-01

 Cycle   2  Pass 1  IDiag  1:
 E= -1136.10315468682     Delta-E=       -0.010126900859 Rises=F Damp=T
 DIIS: error= 6.73D-03 at cycle   2 NSaved=   2.
 NSaved= 2 IEnMin= 2 EnMin= -1136.10315468682     IErMin= 2 ErrMin= 6.73D-03
 ErrMax= 6.73D-03  0.00D+00 EMaxC= 1.00D-01 BMatC= 7.21D-02 BMatP= 1.88D-01
 IDIUse=3 WtCom= 9.33D-01 WtEn= 6.73D-02
 Coeff-Com: -0.129D+01 0.229D+01
 Coeff-En:   0.000D+00 0.100D+01
 Coeff:     -0.120D+01 0.220D+01
 Gap=     0.060 Goal=   None    Shift=    0.000
 Gap=     0.032 Goal=   None    Shift=    0.000
 RMSDP=1.10D-02 MaxDP=1.65D+00 DE=-1.01D-02 OVMax= 1.28D-01

 Cycle   3  Pass 1  IDiag  1:
 E= -1136.12235232075     Delta-E=       -0.019197633927 Rises=F Damp=F
 DIIS: error= 1.77D-03 at cycle   3 NSaved=   3.
 NSaved= 3 IEnMin= 3 EnMin= -1136.12235232075     IErMin= 3 ErrMin= 1.77D-03
 ErrMax= 1.77D-03  0.00D+00 EMaxC= 1.00D-01 BMatC= 9.15D-04 BMatP= 7.21D-02
 IDIUse=3 WtCom= 9.82D-01 WtEn= 1.77D-02
 Coeff-Com: -0.746D-01 0.134D+00 0.941D+00
 Coeff-En:   0.000D+00 0.000D+00 0.100D+01
 Coeff:     -0.733D-01 0.132D+00 0.942D+00
 Gap=     0.060 Goal=   None    Shift=    0.000
 Gap=     0.037 Goal=   None    Shift=    0.000
 RMSDP=3.11D-03 MaxDP=3.14D-01 DE=-1.92D-02 OVMax= 9.54D-02

 Cycle   4  Pass 1  IDiag  1:
 E= -1136.12112535366     Delta-E=        0.001226967090 Rises=F Damp=F
 DIIS: error= 2.01D-03 at cycle   4 NSaved=   4.
 NSaved= 4 IEnMin= 3 EnMin= -1136.12235232075     IErMin= 3 ErrMin= 1.77D-03
 ErrMax= 2.01D-03  0.00D+00 EMaxC= 1.00D-01 BMatC= 1.89D-03 BMatP= 9.15D-04
 IDIUse=3 WtCom= 1.82D-01 WtEn= 8.18D-01
 Coeff-Com: -0.648D-03 0.125D-02 0.593D+00 0.406D+00
 Coeff-En:   0.000D+00 0.000D+00 0.666D+00 0.334D+00
 Coeff:     -0.118D-03 0.228D-03 0.653D+00 0.347D+00
 Gap=     0.059 Goal=   None    Shift=    0.000
 Gap=     0.035 Goal=   None    Shift=    0.000
 RMSDP=1.10D-03 MaxDP=8.63D-02 DE= 1.23D-03 OVMax= 5.22D-02

 Cycle   5  Pass 1  IDiag  1:
 E= -1136.12332432414     Delta-E=       -0.002198970474 Rises=F Damp=F
 DIIS: error= 4.58D-04 at cycle   5 NSaved=   5.
 NSaved= 5 IEnMin= 5 EnMin= -1136.12332432414     IErMin= 5 ErrMin= 4.58D-04
 ErrMax= 4.58D-04  0.00D+00 EMaxC= 1.00D-01 BMatC= 6.58D-05 BMatP= 9.15D-04
 IDIUse=3 WtCom= 9.95D-01 WtEn= 4.58D-03
 Coeff-Com:  0.881D-04-0.125D-02 0.316D+00 0.161D+00 0.524D+00
 Coeff-En:   0.000D+00 0.000D+00 0.000D+00 0.000D+00 0.100D+01
 Coeff:      0.877D-04-0.124D-02 0.315D+00 0.160D+00 0.526D+00
 Gap=     0.060 Goal=   None    Shift=    0.000
 Gap=     0.035 Goal=   None    Shift=    0.000
 RMSDP=4.66D-04 MaxDP=6.12D-02 DE=-2.20D-03 OVMax= 7.29D-03

 Cycle   6  Pass 1  IDiag  1:
 E= -1136.12338231379     Delta-E=       -0.000057989658 Rises=F Damp=F
 DIIS: error= 9.25D-05 at cycle   6 NSaved=   6.
 NSaved= 6 IEnMin= 6 EnMin= -1136.12338231379     IErMin= 6 ErrMin= 9.25D-05
 ErrMax= 9.25D-05  0.00D+00 EMaxC= 1.00D-01 BMatC= 4.01D-06 BMatP= 6.58D-05
 IDIUse=1 WtCom= 1.00D+00 WtEn= 0.00D+00
 Coeff-Com: -0.165D-02 0.167D-02-0.903D-01-0.788D-01 0.952D-01 0.107D+01
 Coeff:     -0.165D-02 0.167D-02-0.903D-01-0.788D-01 0.952D-01 0.107D+01
 Gap=     0.060 Goal=   None    Shift=    0.000
 Gap=     0.036 Goal=   None    Shift=    0.000
 RMSDP=1.71D-04 MaxDP=1.74D-02 DE=-5.80D-05 OVMax= 6.95D-03

 Cycle   7  Pass 1  IDiag  1:
 E= -1136.12339692007     Delta-E=       -0.000014606274 Rises=F Damp=F
 DIIS: error= 4.23D-05 at cycle   7 NSaved=   7.
 NSaved= 7 IEnMin= 7 EnMin= -1136.12339692007     IErMin= 7 ErrMin= 4.23D-05
 ErrMax= 4.23D-05  0.00D+00 EMaxC= 1.00D-01 BMatC= 4.50D-07 BMatP= 4.01D-06
 IDIUse=1 WtCom= 1.00D+00 WtEn= 0.00D+00
 Coeff-Com:  0.576D-03-0.705D-03-0.453D-01-0.225D-01-0.499D-01 0.289D-01
 Coeff-Com:  0.109D+01
 Coeff:      0.576D-03-0.705D-03-0.453D-01-0.225D-01-0.499D-01 0.289D-01
 Coeff:      0.109D+01
 Gap=     0.060 Goal=   None    Shift=    0.000
 Gap=     0.036 Goal=   None    Shift=    0.000
 RMSDP=6.78D-05 MaxDP=3.46D-03 DE=-1.46D-05 OVMax= 5.31D-03

 Cycle   8  Pass 1  IDiag  1:
 E= -1136.12340019844     Delta-E=       -0.000003278370 Rises=F Damp=F
 DIIS: error= 2.38D-05 at cycle   8 NSaved=   8.
 NSaved= 8 IEnMin= 8 EnMin= -1136.12340019844     IErMin= 8 ErrMin= 2.38D-05
 ErrMax= 2.38D-05  0.00D+00 EMaxC= 1.00D-01 BMatC= 1.71D-07 BMatP= 4.50D-07
 IDIUse=1 WtCom= 1.00D+00 WtEn= 0.00D+00
 Coeff-Com:  0.876D-03-0.107D-02-0.359D-02 0.161D-02-0.316D-01-0.136D+00
 Coeff-Com:  0.387D+00 0.782D+00
 Coeff:      0.876D-03-0.107D-02-0.359D-02 0.161D-02-0.316D-01-0.136D+00
 Coeff:      0.387D+00 0.782D+00
 Gap=     0.060 Goal=   None    Shift=    0.000
 Gap=     0.036 Goal=   None    Shift=    0.000
 RMSDP=4.22D-05 MaxDP=2.52D-03 DE=-3.28D-06 OVMax= 2.85D-03

 Cycle   9  Pass 1  IDiag  1:
 E= -1136.12340106224     Delta-E=       -0.000000863800 Rises=F Damp=F
 DIIS: error= 2.06D-05 at cycle   9 NSaved=   9.
 NSaved= 9 IEnMin= 9 EnMin= -1136.12340106224     IErMin= 9 ErrMin= 2.06D-05
 ErrMax= 2.06D-05  0.00D+00 EMaxC= 1.00D-01 BMatC= 1.16D-07 BMatP= 1.71D-07
 IDIUse=1 WtCom= 1.00D+00 WtEn= 0.00D+00
 Coeff-Com:  0.444D-03-0.547D-03 0.151D-01 0.915D-02-0.417D-02-0.102D+00
 Coeff-Com: -0.157D+00 0.537D+00 0.702D+00
 Coeff:      0.444D-03-0.547D-03 0.151D-01 0.915D-02-0.417D-02-0.102D+00
 Coeff:     -0.157D+00 0.537D+00 0.702D+00
 Gap=     0.060 Goal=   None    Shift=    0.000
 Gap=     0.036 Goal=   None    Shift=    0.000
 RMSDP=2.71D-05 MaxDP=1.44D-03 DE=-8.64D-07 OVMax= 2.01D-03

 Cycle  10  Pass 1  IDiag  1:
 E= -1136.12340158952     Delta-E=       -0.000000527283 Rises=F Damp=F
 DIIS: error= 9.12D-06 at cycle  10 NSaved=  10.
 NSaved=10 IEnMin=10 EnMin= -1136.12340158952     IErMin=10 ErrMin= 9.12D-06
 ErrMax= 9.12D-06  0.00D+00 EMaxC= 1.00D-01 BMatC= 1.53D-08 BMatP= 1.16D-07
 IDIUse=1 WtCom= 1.00D+00 WtEn= 0.00D+00
 Coeff-Com: -0.554D-03 0.711D-03 0.298D-02 0.404D-03 0.108D-01 0.418D-01
 Coeff-Com: -0.131D+00-0.279D+00-0.134D+00 0.149D+01
 Coeff:     -0.554D-03 0.711D-03 0.298D-02 0.404D-03 0.108D-01 0.418D-01
 Coeff:     -0.131D+00-0.279D+00-0.134D+00 0.149D+01
 Gap=     0.060 Goal=   None    Shift=    0.000
 Gap=     0.036 Goal=   None    Shift=    0.000
 RMSDP=2.97D-05 MaxDP=1.83D-03 DE=-5.27D-07 OVMax= 2.49D-03

 Cycle  11  Pass 1  IDiag  1:
 E= -1136.12340184508     Delta-E=       -0.000000255555 Rises=F Damp=F
 DIIS: error= 3.39D-06 at cycle  11 NSaved=  11.
 NSaved=11 IEnMin=11 EnMin= -1136.12340184508     IErMin=11 ErrMin= 3.39D-06
 ErrMax= 3.39D-06  0.00D+00 EMaxC= 1.00D-01 BMatC= 3.98D-09 BMatP= 1.53D-08
 IDIUse=1 WtCom= 1.00D+00 WtEn= 0.00D+00
 Coeff-Com: -0.193D-03 0.240D-03-0.208D-02-0.173D-02 0.417D-02 0.248D-01
 Coeff-Com:  0.235D-02-0.147D+00-0.176D+00 0.344D+00 0.951D+00
 Coeff:     -0.193D-03 0.240D-03-0.208D-02-0.173D-02 0.417D-02 0.248D-01
 Coeff:      0.235D-02-0.147D+00-0.176D+00 0.344D+00 0.951D+00
 Gap=     0.060 Goal=   None    Shift=    0.000
 Gap=     0.036 Goal=   None    Shift=    0.000
 RMSDP=8.78D-06 MaxDP=8.89D-04 DE=-2.56D-07 OVMax= 8.52D-04

 Cycle  12  Pass 1  IDiag  1:
 E= -1136.12340188620     Delta-E=       -0.000000041126 Rises=F Damp=F
 DIIS: error= 2.30D-06 at cycle  12 NSaved=  12.
 NSaved=12 IEnMin=12 EnMin= -1136.12340188620     IErMin=12 ErrMin= 2.30D-06
 ErrMax= 2.30D-06  0.00D+00 EMaxC= 1.00D-01 BMatC= 1.30D-09 BMatP= 3.98D-09
 IDIUse=1 WtCom= 1.00D+00 WtEn= 0.00D+00
 Coeff-Com:  0.108D-03-0.141D-03-0.140D-02-0.483D-03-0.220D-02-0.549D-02
 Coeff-Com:  0.474D-01 0.290D-01-0.554D-01-0.249D+00 0.180D+00 0.106D+01
 Coeff:      0.108D-03-0.141D-03-0.140D-02-0.483D-03-0.220D-02-0.549D-02
 Coeff:      0.474D-01 0.290D-01-0.554D-01-0.249D+00 0.180D+00 0.106D+01
 Gap=     0.060 Goal=   None    Shift=    0.000
 Gap=     0.036 Goal=   None    Shift=    0.000
 RMSDP=3.87D-06 MaxDP=3.10D-04 DE=-4.11D-08 OVMax= 5.15D-04

 Cycle  13  Pass 1  IDiag  1:
 E= -1136.12340190055     Delta-E=       -0.000000014353 Rises=F Damp=F
 DIIS: error= 1.44D-06 at cycle  13 NSaved=  13.
 NSaved=13 IEnMin=13 EnMin= -1136.12340190055     IErMin=13 ErrMin= 1.44D-06
 ErrMax= 1.44D-06  0.00D+00 EMaxC= 1.00D-01 BMatC= 5.97D-10 BMatP= 1.30D-09
 IDIUse=1 WtCom= 1.00D+00 WtEn= 0.00D+00
 Coeff-Com:  0.126D-03-0.162D-03 0.975D-05 0.318D-03-0.237D-02-0.102D-01
 Coeff-Com:  0.229D-01 0.620D-01 0.175D-01-0.216D+00-0.233D+00 0.505D+00
 Coeff-Com:  0.854D+00
 Coeff:      0.126D-03-0.162D-03 0.975D-05 0.318D-03-0.237D-02-0.102D-01
 Coeff:      0.229D-01 0.620D-01 0.175D-01-0.216D+00-0.233D+00 0.505D+00
 Coeff:      0.854D+00
 Gap=     0.060 Goal=   None    Shift=    0.000
 Gap=     0.036 Goal=   None    Shift=    0.000
 RMSDP=2.35D-06 MaxDP=9.40D-05 DE=-1.44D-08 OVMax= 2.75D-04

 Cycle  14  Pass 1  IDiag  1:
 E= -1136.12340190519     Delta-E=       -0.000000004635 Rises=F Damp=F
 DIIS: error= 8.48D-07 at cycle  14 NSaved=  14.
 NSaved=14 IEnMin=14 EnMin= -1136.12340190519     IErMin=14 ErrMin= 8.48D-07
 ErrMax= 8.48D-07  0.00D+00 EMaxC= 1.00D-01 BMatC= 2.06D-10 BMatP= 5.97D-10
 IDIUse=1 WtCom= 1.00D+00 WtEn= 0.00D+00
 Coeff-Com:  0.206D-04-0.248D-04 0.331D-03 0.183D-03-0.511D-03-0.201D-02
 Coeff-Com: -0.478D-02 0.199D-01 0.240D-01-0.120D-01-0.204D+00-0.117D+00
 Coeff-Com:  0.452D+00 0.845D+00
 Coeff:      0.206D-04-0.248D-04 0.331D-03 0.183D-03-0.511D-03-0.201D-02
 Coeff:     -0.478D-02 0.199D-01 0.240D-01-0.120D-01-0.204D+00-0.117D+00
 Coeff:      0.452D+00 0.845D+00
 Gap=     0.060 Goal=   None    Shift=    0.000
 Gap=     0.036 Goal=   None    Shift=    0.000
 RMSDP=1.63D-06 MaxDP=1.50D-04 DE=-4.63D-09 OVMax= 1.58D-04

 Cycle  15  Pass 1  IDiag  1:
 E= -1136.12340190659     Delta-E=       -0.000000001403 Rises=F Damp=F
 DIIS: error= 3.59D-07 at cycle  15 NSaved=  15.
 NSaved=15 IEnMin=15 EnMin= -1136.12340190659     IErMin=15 ErrMin= 3.59D-07
 ErrMax= 3.59D-07  0.00D+00 EMaxC= 1.00D-01 BMatC= 3.67D-11 BMatP= 2.06D-10
 IDIUse=1 WtCom= 1.00D+00 WtEn= 0.00D+00
 Coeff-Com: -0.440D-04 0.576D-04 0.143D-03-0.291D-04 0.555D-03 0.267D-02
 Coeff-Com: -0.764D-02-0.184D-01-0.392D-02 0.830D-01 0.265D-01-0.202D+00
 Coeff-Com: -0.193D+00 0.224D+00 0.109D+01
 Coeff:     -0.440D-04 0.576D-04 0.143D-03-0.291D-04 0.555D-03 0.267D-02
 Coeff:     -0.764D-02-0.184D-01-0.392D-02 0.830D-01 0.265D-01-0.202D+00
 Coeff:     -0.193D+00 0.224D+00 0.109D+01
 Gap=     0.060 Goal=   None    Shift=    0.000
 Gap=     0.036 Goal=   None    Shift=    0.000
 RMSDP=1.30D-06 MaxDP=1.84D-04 DE=-1.40D-09 OVMax= 6.38D-05

 Cycle  16  Pass 1  IDiag  1:
 E= -1136.12340190687     Delta-E=       -0.000000000275 Rises=F Damp=F
 DIIS: error= 8.64D-08 at cycle  16 NSaved=  16.
 NSaved=16 IEnMin=16 EnMin= -1136.12340190687     IErMin=16 ErrMin= 8.64D-08
 ErrMax= 8.64D-08  0.00D+00 EMaxC= 1.00D-01 BMatC= 2.66D-12 BMatP= 3.67D-11
 IDIUse=1 WtCom= 1.00D+00 WtEn= 0.00D+00
 Coeff-Com:  0.261D-05-0.377D-05-0.387D-04-0.108D-04 0.331D-04-0.659D-04
 Coeff-Com:  0.119D-02-0.612D-03-0.269D-02-0.551D-02 0.200D-01 0.270D-01
 Coeff-Com: -0.218D-01-0.127D+00-0.106D+00 0.121D+01
 Coeff:      0.261D-05-0.377D-05-0.387D-04-0.108D-04 0.331D-04-0.659D-04
 Coeff:      0.119D-02-0.612D-03-0.269D-02-0.551D-02 0.200D-01 0.270D-01
 Coeff:     -0.218D-01-0.127D+00-0.106D+00 0.121D+01
 Gap=     0.060 Goal=   None    Shift=    0.000
 Gap=     0.036 Goal=   None    Shift=    0.000
 RMSDP=4.34D-07 MaxDP=5.64D-05 DE=-2.75D-10 OVMax= 1.40D-05

 Cycle  17  Pass 1  IDiag  1:
 E= -1136.12340190688     Delta-E=       -0.000000000015 Rises=F Damp=F
 DIIS: error= 3.57D-08 at cycle  17 NSaved=  17.
 NSaved=17 IEnMin=17 EnMin= -1136.12340190688     IErMin=17 ErrMin= 3.57D-08
 ErrMax= 3.57D-08  0.00D+00 EMaxC= 1.00D-01 BMatC= 5.68D-13 BMatP= 2.66D-12
 IDIUse=1 WtCom= 1.00D+00 WtEn= 0.00D+00
 Coeff-Com:  0.776D-05-0.102D-04-0.313D-04 0.344D-05-0.802D-04-0.453D-03
 Coeff-Com:  0.149D-02 0.279D-02 0.224D-03-0.144D-01-0.103D-02 0.396D-01
 Coeff-Com:  0.273D-01-0.535D-01-0.198D+00 0.181D+00 0.102D+01
 Coeff:      0.776D-05-0.102D-04-0.313D-04 0.344D-05-0.802D-04-0.453D-03
 Coeff:      0.149D-02 0.279D-02 0.224D-03-0.144D-01-0.103D-02 0.396D-01
 Coeff:      0.273D-01-0.535D-01-0.198D+00 0.181D+00 0.102D+01
 Gap=     0.060 Goal=   None    Shift=    0.000
 Gap=     0.036 Goal=   None    Shift=    0.000
 RMSDP=1.68D-07 MaxDP=1.48D-05 DE=-1.46D-11 OVMax= 3.76D-06

 Cycle  18  Pass 1  IDiag  1:
 E= -1136.12340190688     Delta-E=        0.000000000007 Rises=F Damp=F
 DIIS: error= 2.08D-08 at cycle  18 NSaved=  18.
 NSaved=18 IEnMin=17 EnMin= -1136.12340190688     IErMin=18 ErrMin= 2.08D-08
 ErrMax= 2.08D-08  0.00D+00 EMaxC= 1.00D-01 BMatC= 1.27D-13 BMatP= 5.68D-13
 IDIUse=1 WtCom= 1.00D+00 WtEn= 0.00D+00
 Coeff-Com: -0.131D-05 0.180D-05 0.934D-05-0.492D-06 0.857D-06 0.776D-04
 Coeff-Com: -0.460D-03-0.721D-04 0.732D-03 0.230D-02-0.436D-02-0.830D-02
 Coeff-Com: -0.132D-02 0.348D-01 0.424D-01-0.288D+00-0.749D-01 0.130D+01
 Coeff:     -0.131D-05 0.180D-05 0.934D-05-0.492D-06 0.857D-06 0.776D-04
 Coeff:     -0.460D-03-0.721D-04 0.732D-03 0.230D-02-0.436D-02-0.830D-02
 Coeff:     -0.132D-02 0.348D-01 0.424D-01-0.288D+00-0.749D-01 0.130D+01
 Gap=     0.060 Goal=   None    Shift=    0.000
 Gap=     0.036 Goal=   None    Shift=    0.000
 RMSDP=9.30D-08 MaxDP=5.71D-06 DE= 6.59D-12 OVMax= 2.66D-06

 Cycle  19  Pass 1  IDiag  1:
 E= -1136.12340190689     Delta-E=       -0.000000000011 Rises=F Damp=F
 DIIS: error= 7.80D-09 at cycle  19 NSaved=  19.
 NSaved=19 IEnMin=19 EnMin= -1136.12340190689     IErMin=19 ErrMin= 7.80D-09
 ErrMax= 7.80D-09  0.00D+00 EMaxC= 1.00D-01 BMatC= 2.70D-14 BMatP= 1.27D-13
 IDIUse=1 WtCom= 1.00D+00 WtEn= 0.00D+00
 Coeff-Com: -0.107D-05 0.140D-05 0.549D-05 0.125D-05 0.133D-04 0.473D-04
 Coeff-Com: -0.166D-03-0.397D-03-0.171D-03 0.183D-02 0.954D-03-0.548D-02
 Coeff-Com: -0.332D-02 0.146D-02 0.223D-01 0.439D-01-0.228D+00-0.170D+00
 Coeff-Com:  0.134D+01
 Coeff:     -0.107D-05 0.140D-05 0.549D-05 0.125D-05 0.133D-04 0.473D-04
 Coeff:     -0.166D-03-0.397D-03-0.171D-03 0.183D-02 0.954D-03-0.548D-02
 Coeff:     -0.332D-02 0.146D-02 0.223D-01 0.439D-01-0.228D+00-0.170D+00
 Coeff:      0.134D+01
 Gap=     0.060 Goal=   None    Shift=    0.000
 Gap=     0.036 Goal=   None    Shift=    0.000
 RMSDP=3.08D-08 MaxDP=1.27D-06 DE=-1.11D-11 OVMax= 1.45D-06

 Cycle  20  Pass 1  IDiag  1:
 E= -1136.12340190689     Delta-E=       -0.000000000008 Rises=F Damp=F
 DIIS: error= 4.89D-09 at cycle  20 NSaved=  20.
 NSaved=20 IEnMin=20 EnMin= -1136.12340190689     IErMin=20 ErrMin= 4.89D-09
 ErrMax= 4.89D-09  0.00D+00 EMaxC= 1.00D-01 BMatC= 7.26D-15 BMatP= 2.70D-14
 IDIUse=1 WtCom= 1.00D+00 WtEn= 0.00D+00
 Large coefficients: NSaved= 20 BigCof=    0.00 CofMax=   10.00 Det=-8.13D-15
 Inversion failed.  Reducing to 19 matrices.
 Large coefficients: NSaved= 19 BigCof=    0.00 CofMax=   10.00 Det=-8.60D-15
 Inversion failed.  Reducing to 18 matrices.
 Large coefficients: NSaved= 18 BigCof=    0.00 CofMax=   10.00 Det=-8.64D-15
 Inversion failed.  Reducing to 17 matrices.
 Large coefficients: NSaved= 17 BigCof=    0.00 CofMax=   10.00 Det=-8.83D-15
 Inversion failed.  Reducing to 16 matrices.
 Large coefficients: NSaved= 16 BigCof=    0.00 CofMax=   10.00 Det=-8.94D-15
 Inversion failed.  Reducing to 15 matrices.
 Coeff-Com:  0.230D-05-0.143D-04-0.637D-05 0.709D-05 0.728D-05 0.511D-03
 Coeff-Com: -0.700D-03 0.138D-03-0.221D-02 0.243D-02 0.286D-01-0.163D-01
 Coeff-Com: -0.241D+00 0.234D+00 0.994D+00
 Coeff:      0.230D-05-0.143D-04-0.637D-05 0.709D-05 0.728D-05 0.511D-03
 Coeff:     -0.700D-03 0.138D-03-0.221D-02 0.243D-02 0.286D-01-0.163D-01
 Coeff:     -0.241D+00 0.234D+00 0.994D+00
 Gap=     0.060 Goal=   None    Shift=    0.000
 Gap=     0.036 Goal=   None    Shift=    0.000
 RMSDP=1.06D-08 MaxDP=4.32D-07 DE=-7.96D-12 OVMax= 5.93D-07

 Cycle  21  Pass 1  IDiag  1:
 E= -1136.12340190690     Delta-E=       -0.000000000003 Rises=F Damp=F
 DIIS: error= 2.41D-09 at cycle  21 NSaved=  16.
 NSaved=16 IEnMin=16 EnMin= -1136.12340190690     IErMin=16 ErrMin= 2.41D-09
 ErrMax= 2.41D-09  0.00D+00 EMaxC= 1.00D-01 BMatC= 1.98D-15 BMatP= 7.26D-15
 IDIUse=1 WtCom= 1.00D+00 WtEn= 0.00D+00
 Large coefficients: NSaved= 16 BigCof=    0.00 CofMax=   10.00 Det=-4.19D-15
 Inversion failed.  Reducing to 15 matrices.
 Coeff-Com:  0.111D-04-0.333D-04-0.498D-04-0.186D-04 0.402D-03 0.426D-03
 Coeff-Com: -0.444D-03-0.224D-02-0.177D-02 0.164D-01 0.155D-01-0.710D-01
 Coeff-Com: -0.139D+00 0.275D+00 0.907D+00
 Coeff:      0.111D-04-0.333D-04-0.498D-04-0.186D-04 0.402D-03 0.426D-03
 Coeff:     -0.444D-03-0.224D-02-0.177D-02 0.164D-01 0.155D-01-0.710D-01
 Coeff:     -0.139D+00 0.275D+00 0.907D+00
 Gap=     0.060 Goal=   None    Shift=    0.000
 Gap=     0.036 Goal=   None    Shift=    0.000
 RMSDP=5.47D-09 MaxDP=3.20D-07 DE=-3.18D-12 OVMax= 3.06D-07

 SCF Done:  E(UB3LYP) =  -1136.12340191     A.U. after   21 cycles
            NFock= 21  Conv=0.55D-08     -V/T= 2.0029
 <Sx>= 0.0000 <Sy>= 0.0000 <Sz>= 0.5000 <S**2>= 0.7698 S= 0.5099
 <L.S>= 0.000000000000E+00
 KE= 1.132854042232D+03 PE=-3.358267447656D+03 EE= 7.747388090119D+02
 Annihilation of the first spin contaminant:
 S**2 before annihilation     0.7698,   after     0.7502
 Leave Link  502 at Tue Nov 28 21:03:32 2023, MaxMem=  1879048192 cpu:             188.0 elap:              17.0
 (Enter /home/sekinelabo/g16/l601.exe)
 Copying SCF densities to generalized density rwf, IOpCl= 1 IROHF=0.

 **********************************************************************

            Population analysis using the SCF Density.

 **********************************************************************

 Orbital symmetries:
 Alpha Orbitals:
       Occupied  (A) (A) (A) (A) (A) (A) (A) (A) (A) (A) (A) (A)
                 (A) (A) (A) (A) (A) (A) (A) (A) (A) (A) (A) (A)
                 (A) (A) (A) (A) (A) (A) (A) (A) (A) (A) (A) (A)
                 (A) (A) (A)
       Virtual   (A) (A) (A) (A) (A) (A) (A) (A) (A) (A) (A) (A)
                 (A) (A) (A) (A) (A) (A) (A) (A) (A) (A) (A) (A)
                 (A) (A) (A) (A) (A) (A) (A) (A) (A) (A) (A) (A)
                 (A) (A) (A) (A) (A) (A) (A) (A) (A) (A) (A) (A)
                 (A) (A) (A) (A) (A) (A) (A) (A) (A) (A) (A) (A)
                 (A) (A) (A) (A) (A) (A) (A) (A) (A) (A) (A) (A)
                 (A) (A) (A) (A) (A) (A) (A) (A) (A) (A) (A) (A)
                 (A) (A) (A) (A) (A) (A) (A) (A) (A) (A) (A) (A)
                 (A) (A) (A) (A) (A) (A) (A) (A) (A) (A) (A) (A)
                 (A) (A) (A) (A) (A) (A) (A) (A) (A) (A) (A) (A)
                 (A) (A) (A) (A) (A) (A) (A) (A) (A) (A) (A) (A)
                 (A) (A) (A) (A) (A) (A) (A) (A) (A) (A) (A) (A)
                 (A) (A) (A) (A) (A) (A) (A) (A) (A) (A) (A) (A)
                 (A) (A) (A) (A) (A) (A) (A) (A) (A) (A) (A) (A)
                 (A) (A) (A)
 Beta  Orbitals:
       Occupied  (A) (A) (A) (A) (A) (A) (A) (A) (A) (A) (A) (A)
                 (A) (A) (A) (A) (A) (A) (A) (A) (A) (A) (A) (A)
                 (A) (A) (A) (A) (A) (A) (A) (A) (A) (A) (A) (A)
                 (A) (A)
       Virtual   (A) (A) (A) (A) (A) (A) (A) (A) (A) (A) (A) (A)
                 (A) (A) (A) (A) (A) (A) (A) (A) (A) (A) (A) (A)
                 (A) (A) (A) (A) (A) (A) (A) (A) (A) (A) (A) (A)
                 (A) (A) (A) (A) (A) (A) (A) (A) (A) (A) (A) (A)
                 (A) (A) (A) (A) (A) (A) (A) (A) (A) (A) (A) (A)
                 (A) (A) (A) (A) (A) (A) (A) (A) (A) (A) (A) (A)
                 (A) (A) (A) (A) (A) (A) (A) (A) (A) (A) (A) (A)
                 (A) (A) (A) (A) (A) (A) (A) (A) (A) (A) (A) (A)
                 (A) (A) (A) (A) (A) (A) (A) (A) (A) (A) (A) (A)
                 (A) (A) (A) (A) (A) (A) (A) (A) (A) (A) (A) (A)
                 (A) (A) (A) (A) (A) (A) (A) (A) (A) (A) (A) (A)
                 (A) (A) (A) (A) (A) (A) (A) (A) (A) (A) (A) (A)
                 (A) (A) (A) (A) (A) (A) (A) (A) (A) (A) (A) (A)
                 (A) (A) (A) (A) (A) (A) (A) (A) (A) (A) (A) (A)
                 (A) (A) (A) (A)
 The electronic state is 2-A.
 Alpha  occ. eigenvalues --  -38.44755 -38.44707 -38.44136 -38.43968 -38.43833
 Alpha  occ. eigenvalues --  -38.43714 -38.43597  -2.20624  -2.20557  -2.19943
 Alpha  occ. eigenvalues --   -2.19833  -2.19684  -2.19499  -2.19341  -1.14386
 Alpha  occ. eigenvalues --   -1.14257  -1.14242  -1.14206  -1.14178  -1.14159
 Alpha  occ. eigenvalues --   -1.13648  -1.13593  -1.13571  -1.13505  -1.13479
 Alpha  occ. eigenvalues --   -1.13476  -1.13360  -1.13331  -1.13298  -1.13190
 Alpha  occ. eigenvalues --   -1.13176  -1.13114  -1.13019  -1.12997  -1.12982
 Alpha  occ. eigenvalues --   -0.17793  -0.13005  -0.12235  -0.11707
 Alpha virt. eigenvalues --   -0.05733  -0.05503  -0.04829  -0.03672  -0.03207
 Alpha virt. eigenvalues --   -0.02844  -0.01593  -0.01061  -0.00725  -0.00158
 Alpha virt. eigenvalues --    0.00037   0.00271   0.00310   0.00514   0.00527
 Alpha virt. eigenvalues --    0.00816   0.00928   0.00940   0.01163   0.01334
 Alpha virt. eigenvalues --    0.01367   0.01430   0.01734   0.01829   0.01918
 Alpha virt. eigenvalues --    0.02242   0.02389   0.02479   0.02566   0.02614
 Alpha virt. eigenvalues --    0.02719   0.02749   0.02785   0.02884   0.02941
 Alpha virt. eigenvalues --    0.03050   0.03185   0.03262   0.03498   0.03557
 Alpha virt. eigenvalues --    0.03725   0.04053   0.04222   0.04304   0.04543
 Alpha virt. eigenvalues --    0.04756   0.05072   0.05371   0.05508   0.05646
 Alpha virt. eigenvalues --    0.05943   0.06190   0.06374   0.06700   0.06793
 Alpha virt. eigenvalues --    0.07115   0.07528   0.07992   0.08341   0.08495
 Alpha virt. eigenvalues --    0.08739   0.09187   0.09716   0.10483   0.10823
 Alpha virt. eigenvalues --    0.10976   0.11597   0.11688   0.12605   0.12791
 Alpha virt. eigenvalues --    0.12815   0.13340   0.13414   0.13614   0.14387
 Alpha virt. eigenvalues --    0.14586   0.15139   0.15630   0.16054   0.17463
 Alpha virt. eigenvalues --    0.26409   0.26959   0.27697   0.28648   0.29394
 Alpha virt. eigenvalues --    0.29404   0.30332   0.31810   0.32191   0.32821
 Alpha virt. eigenvalues --    0.33539   0.34505   0.35175   0.36026   0.37248
 Alpha virt. eigenvalues --    0.37863   0.38604   0.39279   0.39586   0.40633
 Alpha virt. eigenvalues --    0.41241   0.41728   0.42674   0.43651   0.44000
 Alpha virt. eigenvalues --    0.44127   0.44544   0.44765   0.44879   0.45268
 Alpha virt. eigenvalues --    0.45367   0.45744   0.46560   0.47041   0.47291
 Alpha virt. eigenvalues --    0.47990   0.48663   0.49383   0.50224   0.50778
 Alpha virt. eigenvalues --    0.51094   0.51976   0.52408   0.52927   0.52991
 Alpha virt. eigenvalues --    0.54090   0.54804   0.55414   0.57990   0.58076
 Alpha virt. eigenvalues --    0.58970   0.60121   0.61592   0.63955   0.67075
 Alpha virt. eigenvalues --    0.69824   2.03930   2.08097   2.10991   2.13638
 Alpha virt. eigenvalues --    2.17087   2.18086   2.22387   4.41785   4.42969
 Alpha virt. eigenvalues --    4.43839   4.44406   4.45055   4.45525   4.45931
 Alpha virt. eigenvalues --    4.45955   4.46676   4.47080   4.47534   4.48321
 Alpha virt. eigenvalues --    4.48669   4.49263   4.50277   4.52022   4.53720
 Alpha virt. eigenvalues --    4.55086   4.58422   4.59494   4.62261  96.23841
 Alpha virt. eigenvalues --   96.28156  96.32039  96.34891  96.39321  96.40831
 Alpha virt. eigenvalues --   96.46490
  Beta  occ. eigenvalues --  -38.44687 -38.44633 -38.44124 -38.43941 -38.43798
  Beta  occ. eigenvalues --  -38.43702 -38.43604  -2.20503  -2.20427  -2.19922
  Beta  occ. eigenvalues --   -2.19783  -2.19621  -2.19477  -2.19352  -1.14275
  Beta  occ. eigenvalues --   -1.14179  -1.14156  -1.14121  -1.14095  -1.14043
  Beta  occ. eigenvalues --   -1.13623  -1.13582  -1.13555  -1.13460  -1.13448
  Beta  occ. eigenvalues --   -1.13441  -1.13314  -1.13286  -1.13252  -1.13170
  Beta  occ. eigenvalues --   -1.13162  -1.13098  -1.13025  -1.13006  -1.12989
  Beta  occ. eigenvalues --   -0.17006  -0.12880  -0.11601
  Beta virt. eigenvalues --   -0.08024  -0.05584  -0.05344  -0.04236  -0.03368
  Beta virt. eigenvalues --   -0.02413  -0.02342  -0.01524  -0.00962  -0.00353
  Beta virt. eigenvalues --   -0.00075   0.00115   0.00363   0.00461   0.00642
  Beta virt. eigenvalues --    0.00674   0.00833   0.00971   0.01001   0.01210
  Beta virt. eigenvalues --    0.01453   0.01481   0.01528   0.01783   0.01854
  Beta virt. eigenvalues --    0.02120   0.02274   0.02449   0.02511   0.02623
  Beta virt. eigenvalues --    0.02683   0.02724   0.02769   0.02803   0.02887
  Beta virt. eigenvalues --    0.02988   0.03126   0.03197   0.03405   0.03553
  Beta virt. eigenvalues --    0.03619   0.03841   0.04143   0.04363   0.04421
  Beta virt. eigenvalues --    0.04646   0.04908   0.05213   0.05477   0.05617
  Beta virt. eigenvalues --    0.05688   0.06025   0.06274   0.06488   0.06768
  Beta virt. eigenvalues --    0.06966   0.07230   0.07612   0.08146   0.08487
  Beta virt. eigenvalues --    0.08544   0.08850   0.09278   0.09949   0.10760
  Beta virt. eigenvalues --    0.10947   0.11237   0.11772   0.12206   0.12703
  Beta virt. eigenvalues --    0.12956   0.13166   0.13429   0.13671   0.13750
  Beta virt. eigenvalues --    0.14484   0.14881   0.15363   0.15705   0.16228
  Beta virt. eigenvalues --    0.17698   0.26720   0.27347   0.28306   0.29224
  Beta virt. eigenvalues --    0.29671   0.29821   0.30725   0.32154   0.32445
  Beta virt. eigenvalues --    0.33044   0.33849   0.34708   0.35391   0.36193
  Beta virt. eigenvalues --    0.37276   0.37981   0.38837   0.39460   0.39772
  Beta virt. eigenvalues --    0.40738   0.41446   0.41989   0.42889   0.43891
  Beta virt. eigenvalues --    0.44144   0.44307   0.44721   0.44952   0.45038
  Beta virt. eigenvalues --    0.45362   0.45453   0.45885   0.46783   0.47180
  Beta virt. eigenvalues --    0.47510   0.48119   0.48786   0.49566   0.50385
  Beta virt. eigenvalues --    0.50922   0.51243   0.52080   0.52578   0.53101
  Beta virt. eigenvalues --    0.53155   0.54215   0.54904   0.55566   0.58184
  Beta virt. eigenvalues --    0.58362   0.59053   0.60259   0.61839   0.64095
  Beta virt. eigenvalues --    0.67232   0.70123   2.04089   2.08141   2.11062
  Beta virt. eigenvalues --    2.13832   2.17184   2.18259   2.22537   4.41939
  Beta virt. eigenvalues --    4.43033   4.43898   4.44470   4.45107   4.45565
  Beta virt. eigenvalues --    4.45959   4.45980   4.46692   4.47116   4.47575
  Beta virt. eigenvalues --    4.48361   4.48693   4.49297   4.50328   4.52047
  Beta virt. eigenvalues --    4.53765   4.55126   4.58459   4.59566   4.62385
  Beta virt. eigenvalues --   96.23891  96.28172  96.32064  96.34949  96.39358
  Beta virt. eigenvalues --   96.40893  96.46543
          Condensed to atoms (all electrons):
               1          2          3          4          5          6
     1  Na  11.427502  -0.208984   0.167921  -0.251765  -0.012957   0.552605
     2  Na  -0.208984  11.061592  -0.362225   0.145007   0.126816  -0.289123
     3  Na   0.167921  -0.362225  11.528992  -0.543940   0.108363  -0.292268
     4  Na  -0.251765   0.145007  -0.543940  11.955355  -0.144955   0.085826
     5  Na  -0.012957   0.126816   0.108363  -0.144955  10.657817  -0.134389
     6  Na   0.552605  -0.289123  -0.292268   0.085826  -0.134389  11.754224
     7  Na  -0.259612   0.141516   0.021191   0.054126   0.020577   0.000707
               7
     1  Na  -0.259612
     2  Na   0.141516
     3  Na   0.021191
     4  Na   0.054126
     5  Na   0.020577
     6  Na   0.000707
     7  Na  10.765640
          Atomic-Atomic Spin Densities.
               1          2          3          4          5          6
     1  Na   0.538426   0.102167  -0.013985  -0.204490  -0.087719   0.210184
     2  Na   0.102167   0.299397   0.070166  -0.185975   0.023316  -0.338640
     3  Na  -0.013985   0.070166  -0.129287   0.194669   0.023024   0.237739
     4  Na  -0.204490  -0.185975   0.194669   0.404360   0.004274  -0.053574
     5  Na  -0.087719   0.023316   0.023024   0.004274   0.065012  -0.055793
     6  Na   0.210184  -0.338640   0.237739  -0.053574  -0.055793   0.190190
     7  Na  -0.078895   0.049846  -0.009316  -0.000140   0.042842  -0.113842
               7
     1  Na  -0.078895
     2  Na   0.049846
     3  Na  -0.009316
     4  Na  -0.000140
     5  Na   0.042842
     6  Na  -0.113842
     7  Na   0.000190
 Mulliken charges and spin densities:
               1          2
     1  Na  -0.414710   0.465688
     2  Na   0.385399   0.020276
     3  Na   0.371966   0.373011
     4  Na  -0.299655   0.159124
     5  Na   0.378727   0.014954
     6  Na  -0.677583   0.076263
     7  Na   0.255854  -0.109315
 Sum of Mulliken charges =  -0.00000   1.00000
 Mulliken charges and spin densities with hydrogens summed into heavy atoms:
               1          2
     1  Na  -0.414710   0.465688
     2  Na   0.385399   0.020276
     3  Na   0.371966   0.373011
     4  Na  -0.299655   0.159124
     5  Na   0.378727   0.014954
     6  Na  -0.677583   0.076263
     7  Na   0.255854  -0.109315
 Electronic spatial extent (au):  <R**2>=           2686.1263
 Charge=             -0.0000 electrons
 Dipole moment (field-independent basis, Debye):
    X=              0.5196    Y=              0.5565    Z=              0.2014  Tot=              0.7876
 Quadrupole moment (field-independent basis, Debye-Ang):
   XX=            -57.7609   YY=            -74.3254   ZZ=            -66.5859
   XY=             -3.9871   XZ=             -1.2928   YZ=             -1.9943
 Traceless Quadrupole moment (field-independent basis, Debye-Ang):
   XX=              8.4632   YY=             -8.1014   ZZ=             -0.3618
   XY=             -3.9871   XZ=             -1.2928   YZ=             -1.9943
 Octapole moment (field-independent basis, Debye-Ang**2):
  XXX=             -3.7632  YYY=              8.9016  ZZZ=             10.2469  XYY=             -2.3169
  XXY=              1.2161  XXZ=             -1.3812  XZZ=             11.1120  YZZ=              3.5266
  YYZ=             -5.9069  XYZ=              2.6225
 Hexadecapole moment (field-independent basis, Debye-Ang**3):
 XXXX=          -1926.1640 YYYY=          -1639.8673 ZZZZ=          -1046.2328 XXXY=            -26.9235
 XXXZ=            -11.0444 YYYX=            -32.8900 YYYZ=            -20.2322 ZZZX=            -10.1430
 ZZZY=              1.2290 XXYY=           -566.2291 XXZZ=           -486.7460 YYZZ=           -429.0218
 XXYZ=            -42.4231 YYXZ=             -3.4385 ZZXY=            -40.3197
 N-N= 3.145511945056D+02 E-N=-3.358267448068D+03  KE= 1.132854042232D+03
                          Isotropic Fermi Contact Couplings
        Atom                 a.u.       MegaHertz       Gauss      10(-4) cm-1
     1  Na(23)             0.26221     310.20761     110.68979     103.47412
     2  Na(23)             0.24356     288.13897     102.81515      96.11282
     3  Na(23)             0.10266     121.45162      43.33696      40.51190
     4  Na(23)             0.12923     152.88543      54.55332      50.99709
     5  Na(23)             0.04262      50.41601      17.98968      16.81697
     6  Na(23)             0.03929      46.48531      16.58712      15.50583
     7  Na(23)            -0.02792     -33.03488     -11.78767     -11.01925
 --------------------------------------------------------
       Center         ----  Spin Dipole Couplings  ----
                      3XX-RR        3YY-RR        3ZZ-RR
 --------------------------------------------------------
     1   Atom        0.015951     -0.007108     -0.008843
     2   Atom        0.013390     -0.010279     -0.003110
     3   Atom        0.002253     -0.000221     -0.002032
     4   Atom       -0.003855     -0.004071      0.007926
     5   Atom        0.002613     -0.003308      0.000695
     6   Atom       -0.003593     -0.002514      0.006107
     7   Atom        0.000235     -0.001616      0.001381
 --------------------------------------------------------
                        XY            XZ            YZ
 --------------------------------------------------------
     1   Atom       -0.018737      0.021942     -0.010066
     2   Atom       -0.013964     -0.024146      0.012830
     3   Atom       -0.002539      0.011475     -0.004683
     4   Atom       -0.002918      0.004597      0.006364
     5   Atom        0.001536     -0.010898     -0.002186
     6   Atom        0.002639     -0.008363     -0.004903
     7   Atom        0.001486      0.000877     -0.000089
 --------------------------------------------------------


 ---------------------------------------------------------------------------------
              Anisotropic Spin Dipole Couplings in Principal Axis System
 ---------------------------------------------------------------------------------

       Atom             a.u.   MegaHertz   Gauss  10(-4) cm-1        Axes

              Baa    -0.0217    -3.071    -1.096    -1.024 -0.5464 -0.1304  0.8273
     1 Na(23) Bbb    -0.0169    -2.385    -0.851    -0.796  0.2897  0.8974  0.3328
              Bcc     0.0386     5.456     1.947     1.820  0.7858 -0.4215  0.4525
 
              Baa    -0.0216    -3.045    -1.087    -1.016  0.3783 -0.4509  0.8084
     2 Na(23) Bbb    -0.0164    -2.322    -0.828    -0.774  0.5436  0.8151  0.2002
              Bcc     0.0380     5.367     1.915     1.790  0.7492 -0.3637 -0.5535
 
              Baa    -0.0119    -1.685    -0.601    -0.562 -0.5985  0.1822  0.7801
     3 Na(23) Bbb    -0.0016    -0.232    -0.083    -0.078  0.3789  0.9224  0.0753
              Bcc     0.0136     1.917     0.684     0.639  0.7058 -0.3407  0.6211
 
              Baa    -0.0102    -1.445    -0.516    -0.482  0.6022  0.6935 -0.3955
     4 Na(23) Bbb    -0.0011    -0.156    -0.056    -0.052  0.7696 -0.6361  0.0565
              Bcc     0.0113     1.601     0.571     0.534  0.2123  0.3384  0.9167
 
              Baa    -0.0093    -1.319    -0.471    -0.440  0.6632  0.1000  0.7417
     5 Na(23) Bbb    -0.0037    -0.518    -0.185    -0.173 -0.1842  0.9824  0.0323
              Bcc     0.0130     1.837     0.656     0.613  0.7254  0.1580 -0.6699
 
              Baa    -0.0084    -1.188    -0.424    -0.396  0.8605  0.0373  0.5081
     6 Na(23) Bbb    -0.0045    -0.637    -0.227    -0.213 -0.2027  0.9400  0.2743
              Bcc     0.0129     1.826     0.652     0.609 -0.4674 -0.3391  0.8165
 
              Baa    -0.0025    -0.354    -0.126    -0.118 -0.5046  0.8530  0.1332
     7 Na(23) Bbb     0.0005     0.072     0.026     0.024  0.6434  0.4744 -0.6009
              Bcc     0.0020     0.282     0.101     0.094  0.5757  0.2175  0.7882
 

 ---------------------------------------------------------------------------------

 No NMR shielding tensors so no spin-rotation constants.
 Leave Link  601 at Tue Nov 28 21:03:32 2023, MaxMem=  1879048192 cpu:               2.3 elap:               0.2
 (Enter /home/sekinelabo/g16/l701.exe)
 ... and contract with generalized density number  0.
 Compute integral first derivatives.
 Leave Link  701 at Tue Nov 28 21:03:33 2023, MaxMem=  1879048192 cpu:               1.6 elap:               0.1
 (Enter /home/sekinelabo/g16/l702.exe)
 L702 exits ... SP integral derivatives will be done elsewhere.
 Leave Link  702 at Tue Nov 28 21:03:33 2023, MaxMem=  1879048192 cpu:               0.5 elap:               0.0
 (Enter /home/sekinelabo/g16/l703.exe)
 Integral derivatives from FoFJK, PRISM(SPDF).
 Compute integral first derivatives, UseDBF=F ICtDFT=           0.
 Calling FoFJK, ICntrl=      2127 FMM=F ISym2X=0 I1Cent= 0 IOpClX= 1 NMat=1 NMatS=1 NMatT=0.
 FoFJK:  IHMeth= 1 ICntrl=    2127 DoSepK=F KAlg= 0 I1Cent=           0 FoldK=F
 IRaf=         0 NMat=       1 IRICut=       1 DoRegI=T DoRafI=F ISym2E= 0 IDoP0=0 IntGTp=1.
 FoFCou: FMM=F IPFlag=           0 FMFlag=      100000 FMFlg1=         800
         NFxFlg=           0 DoJE=F BraDBF=F KetDBF=F FulRan=T
         wScrn=  0.000000 ICntrl=      2127 IOpCl=  1 I1Cent=           0 NGrid=           0
         NMat0=    1 NMatS0=      1 NMatT0=    0 NMatD0=    1 NMtDS0=    0 NMtDT0=    0
 Symmetry not used in FoFCou.
 Leave Link  703 at Tue Nov 28 21:03:35 2023, MaxMem=  1879048192 cpu:              32.1 elap:               2.2
 (Enter /home/sekinelabo/g16/l716.exe)
 Dipole        = 2.04445070D-01 2.18930646D-01 7.92388619D-02
 ***** Axes restored to original set *****
 -------------------------------------------------------------------
 Center     Atomic                   Forces (Hartrees/Bohr)
 Number     Number              X              Y              Z
 -------------------------------------------------------------------
      1       11          -0.003199058   -0.004527435   -0.002630732
      2       11           0.000658845   -0.000229264    0.002508816
      3       11           0.000629426   -0.001066797    0.001560778
      4       11           0.001130580    0.002396753    0.000230954
      5       11          -0.001844461    0.002531908    0.000519035
      6       11          -0.002019927    0.001987684   -0.004079148
      7       11           0.004644594   -0.001092849    0.001890297
 -------------------------------------------------------------------
 Cartesian Forces:  Max     0.004644594 RMS     0.002356063
 Z-matrix is all fixed cartesians, so copy forces.
 Force constants in Cartesian coordinates: 
                1             2             3             4             5 
      1  0.208536D-01
      2 -0.139220D-02  0.531783D-01
      3  0.199981D-01 -0.799576D-02  0.485859D-01
      4 -0.916587D-02 -0.591899D-02 -0.104153D-01  0.161678D-01
      5  0.129918D-02 -0.238078D-01  0.102599D-01  0.680035D-02  0.481669D-01
      6 -0.117682D-01 -0.565869D-02 -0.256813D-01  0.135587D-01 -0.632542D-04
      7  0.775013D-03  0.236054D-02 -0.295477D-02 -0.711952D-02 -0.437515D-02
      8  0.199732D-03  0.424593D-02  0.384343D-02  0.340487D-02 -0.211078D-01
      9  0.552679D-03  0.467343D-02 -0.272524D-02 -0.612343D-02 -0.698052D-03
     10 -0.713116D-02  0.182322D-02 -0.224308D-02  0.111554D-02 -0.181297D-02
     11  0.104136D-01 -0.144319D-01  0.105569D-02  0.106008D-02 -0.520571D-02
     12 -0.520472D-02  0.198430D-02 -0.106893D-01  0.110566D-02 -0.422293D-02
     13 -0.531599D-02  0.312955D-02 -0.438872D-02  0.355041D-03 -0.183768D-02
     14 -0.105034D-01 -0.191590D-01 -0.715521D-02  0.995787D-04  0.221975D-02
     15 -0.364115D-02  0.700376D-02 -0.946662D-02 -0.940010D-03 -0.545020D-02
     16 -0.155468D-04 -0.212608D-05  0.374719D-05 -0.135411D-02 -0.689331D-04
     17 -0.168999D-04 -0.255040D-04 -0.799843D-05 -0.545628D-02 -0.219811D-03
     18  0.632352D-04 -0.704105D-05 -0.234072D-04  0.281257D-02  0.182377D-03
     19  0.000000D+00  0.000000D+00  0.000000D+00  0.109253D-05 -0.479558D-05
     20  0.000000D+00  0.000000D+00  0.000000D+00  0.103833D-04 -0.455768D-04
     21  0.000000D+00  0.000000D+00  0.000000D+00  0.177661D-05 -0.779832D-05
                6             7             8             9            10 
      6  0.370294D-01
      7 -0.176503D-02  0.365214D-01
      8  0.116871D-01 -0.763209D-02  0.321637D-01
      9 -0.152535D-01  0.133159D-01 -0.110553D-01  0.501397D-01
     10 -0.108490D-03 -0.150832D-01  0.293832D-02 -0.679201D-02  0.476198D-01
     11 -0.495884D-02  0.617262D-02 -0.104388D-01  0.483322D-02 -0.136151D-01
     12  0.197495D-02  0.573874D-02 -0.810101D-02 -0.177890D-01  0.116896D-01
     13  0.207895D-03  0.373762D-02 -0.584094D-03  0.275641D-03 -0.256470D-01
     14 -0.558886D-03 -0.194796D-02  0.573002D-03 -0.212413D-03  0.884070D-02
     15  0.163306D-02 -0.460223D-02  0.713506D-03 -0.315647D-03 -0.797833D-02
     16 -0.116461D-03 -0.197828D-01  0.102790D-02  0.290462D-02 -0.872224D-03
     17 -0.366720D-03  0.534646D-02 -0.581031D-02  0.256890D-02  0.184206D-02
     18  0.311265D-03 -0.889494D-02  0.339457D-02 -0.177534D-01  0.543511D-02
     19 -0.849105D-05  0.951541D-03  0.645362D-03 -0.413344D-02 -0.171200D-05
     20 -0.806983D-04  0.755675D-04  0.374259D-03 -0.109764D-03 -0.162707D-04
     21 -0.138077D-04 -0.837723D-03 -0.482261D-03  0.369713D-02 -0.278396D-05
               11            12            13            14            15 
     11  0.392770D-01
     12  0.778932D-02  0.420032D-01
     13 -0.421859D-02 -0.132566D-01  0.268731D-01
     14 -0.905727D-02  0.247112D-02  0.352445D-02  0.254902D-01
     15 -0.772245D-02 -0.159024D-01  0.171579D-01  0.543615D-02  0.240571D-01
     16  0.195917D-03 -0.751158D-04 -0.273944D-05 -0.134054D-04  0.386477D-05
     17 -0.622921D-04  0.558431D-04 -0.136366D-04 -0.667304D-04  0.192383D-04
     18 -0.983074D-03  0.398535D-03  0.393238D-05  0.192431D-04 -0.554776D-05
     19 -0.852211D-05  0.245752D-05  0.000000D+00  0.000000D+00  0.000000D+00
     20 -0.809934D-04  0.233561D-04  0.000000D+00  0.000000D+00  0.000000D+00
     21 -0.138582D-04  0.399629D-05  0.000000D+00  0.000000D+00  0.000000D+00
               16            17            18            19            20 
     16  0.329679D-01
     17 -0.296057D-02  0.732447D-02
     18  0.152634D-02 -0.513680D-02  0.317352D-01
     19 -0.109404D-01  0.125885D-02 -0.946246D-03  0.998953D-02
     20  0.182121D-02 -0.113982D-02  0.253072D-02 -0.189089D-02  0.892129D-03
     21 -0.424699D-02  0.286753D-02 -0.146626D-01  0.508572D-02 -0.236362D-02
               21 
     21  0.109753D-01
 Leave Link  716 at Tue Nov 28 21:03:35 2023, MaxMem=  1879048192 cpu:               0.4 elap:               0.0
 (Enter /home/sekinelabo/g16/l103.exe)

 GradGradGradGradGradGradGradGradGradGradGradGradGradGradGradGradGradGrad
 Berny optimization.
 Search for a local minimum.
 Step number   1 out of a maximum of    2
 All quantities printed in internal units (Hartrees-Bohrs-Radians)
 Second derivative matrix not updated -- first step.
 ITU=  0
     Eigenvalues ---    0.00062   0.00221   0.00801   0.00852   0.01658
     Eigenvalues ---    0.02581   0.03113   0.03814   0.04488   0.04980
     Eigenvalues ---    0.06256   0.07506   0.07974   0.09357   0.10462
 Quadratic step=1.982D+00 exceeds max=3.000D-01 adjusted using Lamda=-1.227D-02.
 Angle between NR and scaled steps=  39.34 degrees.
 Angle between quadratic step and forces=  38.94 degrees.
 Linear search not attempted -- first point.
 B after Tr=    -0.000000    0.000000   -0.000000
         Rot=    1.000000   -0.000000   -0.000000    0.000000 Ang=   0.00 deg.
 Variable       Old X    -DE/DX   Delta X   Delta X   Delta X     New X
                                 (Linear)    (Quad)   (Total)
    X1       29.83197  -0.00320   0.00000  -0.11327  -0.11327  29.71870
    Y1       32.02802  -0.00453   0.00000  -0.05651  -0.05651  31.97151
    Z1       25.79571  -0.00263   0.00000   0.00968   0.00968  25.80539
    X2       32.39879   0.00066   0.00000  -0.01136  -0.01136  32.38743
    Y2       33.13484  -0.00023   0.00000  -0.02620  -0.02620  33.10863
    Z2       31.00190   0.00251   0.00000   0.04248   0.04248  31.04438
    X3       32.41126   0.00063   0.00000  -0.00821  -0.00821  32.40305
    Y3       27.72795  -0.00107   0.00000  -0.01983  -0.01983  27.70812
    Z3       34.05721   0.00156   0.00000   0.01935   0.01935  34.07656
    X4       32.54146   0.00113   0.00000  -0.00368  -0.00368  32.53778
    Y4       25.86355   0.00240   0.00000   0.05639   0.05639  25.91994
    Z4       27.68260   0.00023   0.00000  -0.01679  -0.01679  27.66581
    X5       27.85286  -0.00184   0.00000  -0.08352  -0.08352  27.76935
    Y5       25.73032   0.00253   0.00000   0.02810   0.02810  25.75842
    Z5       23.89710   0.00052   0.00000   0.04827   0.04827  23.94536
    X6       26.22335  -0.00202   0.00000   0.00783   0.00783  26.23118
    Y6       28.59949   0.00199   0.00000   0.05907   0.05907  28.65856
    Z6       32.76880  -0.00408   0.00000  -0.07724  -0.07724  32.69155
    X7       21.74527   0.00464   0.00000   0.21221   0.21221  21.95748
    Y7       29.92060  -0.00109   0.00000  -0.04102  -0.04102  29.87958
    Z7       27.80146   0.00189   0.00000  -0.02574  -0.02574  27.77572
         Item               Value     Threshold  Converged?
 Maximum Force            0.004645     0.000450     NO 
 RMS     Force            0.002356     0.000300     NO 
 Maximum Displacement     0.212213     0.001800     NO 
 RMS     Displacement     0.065479     0.001200     NO 
 Predicted change in Energy=-1.812287D-03
 GradGradGradGradGradGradGradGradGradGradGradGradGradGradGradGradGradGrad

 Leave Link  103 at Tue Nov 28 21:03:35 2023, MaxMem=  1879048192 cpu:               0.2 elap:               0.0
 (Enter /home/sekinelabo/g16/l9999.exe)
 1\1\GINC-SEKINELABO-XA7R-R37\Force\UB3LYP\6-311+G(d)\Na7(2)\SEKINELABO
 \28-Nov-2023\0\\#P B3LYP/6-311+g(d) force\\DPGEN\\0,2\Na,15.7864,16.94
 85,13.6505\Na,17.1447,17.5342,16.4055\Na,17.1513,14.673,18.0223\Na,17.
 2202,13.6864,14.649\Na,14.7391,13.6159,12.6458\Na,13.8768,15.1342,17.3
 405\Na,11.5071,15.8333,14.7119\\Version=ES64L-G16RevB.01\State=2-A\HF=
 -1136.1234019\S2=0.769837\S2-1=0.\S2A=0.750223\RMSD=5.473e-09\RMSF=2.3
 56e-03\Dipole=0.3021229,0.0136597,-0.0673973\Quadrupole=-1.1621587,0.0
 618957,1.100263,0.8849111,6.9147885,-0.0211289\PG=C01 [X(Na7)]\\@


 SEE YOU NOW,
 YOUR BAIT OF FALSEHOOD TAKES THIS CARP OF TRUTH.
 AND THUS DO WE OF WISDOM AND OF REACH...
 BY INDIRECTIONS FIND DIRECTIONS OUT.    -- HAMLET, II, 1
 Job cpu time:       0 days  0 hours  3 minutes 55.9 seconds.
 Elapsed time:       0 days  0 hours  0 minutes 20.2 seconds.
 File lengths (MBytes):  RWF=     32 Int=      0 D2E=      0 Chk=      4 Scr=      1
 Normal termination of Gaussian 16 at Tue Nov 28 21:03:35 2023.
