 Set GAUSS_MDEF to "14GB".
 Entering Gaussian System, Link 0=g16
 Initial command:
 /home/sekinelabo/g16/l1.exe "/home/sekinelabo/g16temp/Gau-661549.inp" -scrdir="/home/sekinelabo/g16temp/"
 Entering Link 1 = /home/sekinelabo/g16/l1.exe PID=    661551.
  
 Copyright (c) 1988-2017, Gaussian, Inc.  All Rights Reserved.
  
 This is part of the Gaussian(R) 16 program.  It is based on
 the Gaussian(R) 09 system (copyright 2009, Gaussian, Inc.),
 the Gaussian(R) 03 system (copyright 2003, Gaussian, Inc.),
 the Gaussian(R) 98 system (copyright 1998, Gaussian, Inc.),
 the Gaussian(R) 94 system (copyright 1995, Gaussian, Inc.),
 the Gaussian 92(TM) system (copyright 1992, Gaussian, Inc.),
 the Gaussian 90(TM) system (copyright 1990, Gaussian, Inc.),
 the Gaussian 88(TM) system (copyright 1988, Gaussian, Inc.),
 the Gaussian 86(TM) system (copyright 1986, Carnegie Mellon
 University), and the Gaussian 82(TM) system (copyright 1983,
 Carnegie Mellon University). Gaussian is a federally registered
 trademark of Gaussian, Inc.
  
 This software contains proprietary and confidential information,
 including trade secrets, belonging to Gaussian, Inc.
  
 This software is provided under written license and may be
 used, copied, transmitted, or stored only in accord with that
 written license.
  
 The following legend is applicable only to US Government
 contracts under FAR:
  
                    RESTRICTED RIGHTS LEGEND
  
 Use, reproduction and disclosure by the US Government is
 subject to restrictions as set forth in subparagraphs (a)
 and (c) of the Commercial Computer Software - Restricted
 Rights clause in FAR 52.227-19.
  
 Gaussian, Inc.
 340 Quinnipiac St., Bldg. 40, Wallingford CT 06492
  
  
 ---------------------------------------------------------------
 Warning -- This program may not be used in any manner that
 competes with the business of Gaussian, Inc. or will provide
 assistance to any competitor of Gaussian, Inc.  The licensee
 of this program is prohibited from giving any competitor of
 Gaussian, Inc. access to this program.  By using this program,
 the user acknowledges that Gaussian, Inc. is engaged in the
 business of creating and licensing software in the field of
 computational chemistry and represents and warrants to the
 licensee that it is not a competitor of Gaussian, Inc. and that
 it will not use this program in any manner prohibited above.
 ---------------------------------------------------------------
  

 Cite this work as:
 Gaussian 16, Revision B.01,
 M. J. Frisch, G. W. Trucks, H. B. Schlegel, G. E. Scuseria, 
 M. A. Robb, J. R. Cheeseman, G. Scalmani, V. Barone, 
 G. A. Petersson, H. Nakatsuji, X. Li, M. Caricato, A. V. Marenich, 
 J. Bloino, B. G. Janesko, R. Gomperts, B. Mennucci, H. P. Hratchian, 
 J. V. Ortiz, A. F. Izmaylov, J. L. Sonnenberg, D. Williams-Young, 
 F. Ding, F. Lipparini, F. Egidi, J. Goings, B. Peng, A. Petrone, 
 T. Henderson, D. Ranasinghe, V. G. Zakrzewski, J. Gao, N. Rega, 
 G. Zheng, W. Liang, M. Hada, M. Ehara, K. Toyota, R. Fukuda, 
 J. Hasegawa, M. Ishida, T. Nakajima, Y. Honda, O. Kitao, H. Nakai, 
 T. Vreven, K. Throssell, J. A. Montgomery, Jr., J. E. Peralta, 
 F. Ogliaro, M. J. Bearpark, J. J. Heyd, E. N. Brothers, K. N. Kudin, 
 V. N. Staroverov, T. A. Keith, R. Kobayashi, J. Normand, 
 K. Raghavachari, A. P. Rendell, J. C. Burant, S. S. Iyengar, 
 J. Tomasi, M. Cossi, J. M. Millam, M. Klene, C. Adamo, R. Cammi, 
 J. W. Ochterski, R. L. Martin, K. Morokuma, O. Farkas, 
 J. B. Foresman, and D. J. Fox, Gaussian, Inc., Wallingford CT, 2016.
 
 ******************************************
 Gaussian 16:  ES64L-G16RevB.01 20-Dec-2017
                29-Nov-2023 
 ******************************************
 %nproc=15
 Will use up to   15 processors via shared memory.
 -------------------------
 #P B3LYP/6-311+g(d) force
 -------------------------
 1/10=7,30=1,38=1/1,3;
 2/12=2,17=6,18=5,40=1/2;
 3/5=4,6=6,7=11,11=2,25=1,30=1,71=1,74=-5/1,2,3;
 4//1;
 5/5=2,38=5/2;
 6/7=2,8=2,9=2,10=2,28=1/1;
 7/29=1/1,2,3,16;
 1/10=7,30=1/3;
 99//99;
 Leave Link    1 at Wed Nov 29 15:57:11 2023, MaxMem=           0 cpu:               0.3 elap:               0.0
 (Enter /home/sekinelabo/g16/l101.exe)
 -----
 DPGEN
 -----
 Symbolic Z-matrix:
 Charge =  0 Multiplicity = 2
 Na                    14.9118   16.3259   17.3152 
 Na                    15.8314   18.1486   14.5677 
 Na                    14.759    14.8992   14.1972 
 Na                    12.182    17.8488   14.9714 
 Na                    15.4984   12.9617   16.9139 
 Na                    16.4424   11.7429   13.9057 
 Na                    17.8005   15.4984   15.5544 
 
 ITRead=  0  0  0  0  0  0  0
 MicOpt= -1 -1 -1 -1 -1 -1 -1
 NAtoms=      7 NQM=        7 NQMF=       0 NMMI=      0 NMMIF=      0
                NMic=       0 NMicF=      0.
                    Isotopes and Nuclear Properties:
 (Nuclear quadrupole moments (NQMom) in fm**2, nuclear magnetic moments (NMagM)
  in nuclear magnetons)

  Atom         1           2           3           4           5           6           7
 IAtWgt=          23          23          23          23          23          23          23
 AtmWgt=  22.9897697  22.9897697  22.9897697  22.9897697  22.9897697  22.9897697  22.9897697
 NucSpn=           3           3           3           3           3           3           3
 AtZEff=  -0.0000000  -0.0000000  -0.0000000  -0.0000000  -0.0000000  -0.0000000  -0.0000000
 NQMom=   10.4000000  10.4000000  10.4000000  10.4000000  10.4000000  10.4000000  10.4000000
 NMagM=    2.2175200   2.2175200   2.2175200   2.2175200   2.2175200   2.2175200   2.2175200
 AtZNuc=  11.0000000  11.0000000  11.0000000  11.0000000  11.0000000  11.0000000  11.0000000
 Leave Link  101 at Wed Nov 29 15:57:11 2023, MaxMem=  1879048192 cpu:               2.4 elap:               0.2
 (Enter /home/sekinelabo/g16/l103.exe)

 GradGradGradGradGradGradGradGradGradGradGradGradGradGradGradGradGradGrad
 Berny optimization.
 Initialization pass.
 Trust Radius=3.00D-01 FncErr=1.00D-07 GrdErr=1.00D-07 EigMax=2.50D+02 EigMin=1.00D-04
 Number of steps in this run=      2 maximum allowed number of steps=      2.
 GradGradGradGradGradGradGradGradGradGradGradGradGradGradGradGradGradGrad

 Leave Link  103 at Wed Nov 29 15:57:11 2023, MaxMem=  1879048192 cpu:               0.2 elap:               0.0
 (Enter /home/sekinelabo/g16/l202.exe)
                          Input orientation:                          
 ---------------------------------------------------------------------
 Center     Atomic      Atomic             Coordinates (Angstroms)
 Number     Number       Type             X           Y           Z
 ---------------------------------------------------------------------
      1         11           0       14.911800   16.325900   17.315200
      2         11           0       15.831400   18.148600   14.567700
      3         11           0       14.759000   14.899200   14.197200
      4         11           0       12.182000   17.848800   14.971400
      5         11           0       15.498400   12.961700   16.913900
      6         11           0       16.442400   11.742900   13.905700
      7         11           0       17.800500   15.498400   15.554400
 ---------------------------------------------------------------------
                    Distance matrix (angstroms):
                    1          2          3          4          5
     1  Na   0.000000
     2  Na   3.422960   0.000000
     3  Na   3.432309   3.441789   0.000000
     4  Na   3.906972   3.683880   3.992550   0.000000
     5  Na   3.438456   5.702585   3.417759   6.217360   0.000000
     6  Na   5.913655   6.468737   3.589016   7.521219   3.380218
     7  Na   3.482781   3.445938   3.384044   6.118154   3.685478
                    6          7
     6  Na   0.000000
     7  Na   4.320466   0.000000
 Stoichiometry    Na7(2)
 Framework group  C1[X(Na7)]
 Deg. of freedom    15
 Full point group                 C1      NOp   1
 Largest Abelian subgroup         C1      NOp   1
 Largest concise Abelian subgroup C1      NOp   1
                         Standard orientation:                         
 ---------------------------------------------------------------------
 Center     Atomic      Atomic             Coordinates (Angstroms)
 Number     Number       Type             X           Y           Z
 ---------------------------------------------------------------------
      1         11           0       -1.125413    0.208019    1.927211
      2         11           0       -2.265557    1.613691   -0.978096
      3         11           0        0.169226   -0.816736   -1.081864
      4         11           0       -3.642344   -1.742491   -0.336635
      5         11           0        2.155372   -0.795760    1.699478
      6         11           0        3.751995   -0.740635   -1.279387
      7         11           0        0.956721    2.273910    0.049293
 ---------------------------------------------------------------------
 Rotational constants (GHZ):           0.9481426           0.4412877           0.4224528
 Leave Link  202 at Wed Nov 29 15:57:11 2023, MaxMem=  1879048192 cpu:               0.1 elap:               0.0
 (Enter /home/sekinelabo/g16/l301.exe)
 Standard basis: 6-311+G(d) (5D, 7F)
 Ernie: Thresh=  0.10000D-02 Tol=  0.10000D-05 Strict=F.
 There are   217 symmetry adapted cartesian basis functions of A   symmetry.
 There are   210 symmetry adapted basis functions of A   symmetry.
   210 basis functions,   350 primitive gaussians,   217 cartesian basis functions
    39 alpha electrons       38 beta electrons
       nuclear repulsion energy       329.2260043743 Hartrees.
 IExCor=  402 DFT=T Ex+Corr=B3LYP ExCW=0 ScaHFX=  0.200000
 ScaDFX=  0.800000  0.720000  1.000000  0.810000 ScalE2=  1.000000  1.000000
 IRadAn=      5 IRanWt=     -1 IRanGd=            0 ICorTp=0 IEmpDi=  4
 NAtoms=    7 NActive=    7 NUniq=    7 SFac= 1.00D+00 NAtFMM=   60 NAOKFM=F Big=F
 Integral buffers will be    131072 words long.
 Raffenetti 2 integral format.
 Two-electron integral symmetry is turned on.
 Leave Link  301 at Wed Nov 29 15:57:11 2023, MaxMem=  1879048192 cpu:               0.5 elap:               0.0
 (Enter /home/sekinelabo/g16/l302.exe)
 NPDir=0 NMtPBC=     1 NCelOv=     1 NCel=       1 NClECP=     1 NCelD=      1
         NCelK=      1 NCelE2=     1 NClLst=     1 CellRange=     0.0.
 One-electron integrals computed using PRISM.
 One-electron integral symmetry used in STVInt
 NBasis=   210 RedAO= T EigKep=  7.64D-06  NBF=   210
 NBsUse=   210 1.00D-06 EigRej= -1.00D+00 NBFU=   210
 Precomputing XC quadrature grid using
 IXCGrd= 4 IRadAn=           5 IRanWt=          -1 IRanGd=           0 AccXCQ= 0.00D+00.
 Generated NRdTot=       0 NPtTot=           0 NUsed=           0 NTot=          32
 NSgBfM=   211   211   211   211   211 MxSgAt=     7 MxSgA2=     7.
 Leave Link  302 at Wed Nov 29 15:57:11 2023, MaxMem=  1879048192 cpu:               2.0 elap:               0.1
 (Enter /home/sekinelabo/g16/l303.exe)
 DipDrv:  MaxL=1.
 Leave Link  303 at Wed Nov 29 15:57:11 2023, MaxMem=  1879048192 cpu:               0.5 elap:               0.0
 (Enter /home/sekinelabo/g16/l401.exe)
 ExpMin= 7.60D-03 ExpMax= 3.62D+04 ExpMxC= 1.21D+03 IAcc=3 IRadAn=         5 AccDes= 0.00D+00
 Harris functional with IExCor=  402 and IRadAn=       5 diagonalized for initial guess.
 HarFok:  IExCor=  402 AccDes= 0.00D+00 IRadAn=         5 IDoV= 1 UseB2=F ITyADJ=14
 ICtDFT=  3500011 ScaDFX=  1.000000  1.000000  1.000000  1.000000
 FoFCou: FMM=F IPFlag=           0 FMFlag=      100000 FMFlg1=           0
         NFxFlg=           0 DoJE=T BraDBF=F KetDBF=T FulRan=T
         wScrn=  0.000000 ICntrl=       500 IOpCl=  0 I1Cent=   200000004 NGrid=           0
         NMat0=    1 NMatS0=      1 NMatT0=    0 NMatD0=    1 NMtDS0=    0 NMtDT0=    0
 Petite list used in FoFCou.
 Harris En= -1135.89693523685    
 JPrj=0 DoOrth=F DoCkMO=F.
 Initial guess <Sx>= 0.0000 <Sy>= 0.0000 <Sz>= 0.5000 <S**2>= 0.7500 S= 0.5000
 Leave Link  401 at Wed Nov 29 15:57:12 2023, MaxMem=  1879048192 cpu:               4.5 elap:               0.3
 (Enter /home/sekinelabo/g16/l502.exe)
 Keep R1 and R2 ints in memory in canonical form, NReq=506573321.
 FoFCou: FMM=F IPFlag=           0 FMFlag=           0 FMFlg1=           0
         NFxFlg=           0 DoJE=F BraDBF=F KetDBF=F FulRan=T
         wScrn=  0.000000 ICntrl=       600 IOpCl=  0 I1Cent=           0 NGrid=           0
         NMat0=    1 NMatS0=  22155 NMatT0=    0 NMatD0=    1 NMtDS0=    0 NMtDT0=    0
 Symmetry not used in FoFCou.
 Two-electron integral symmetry not used.
 UHF open shell SCF:
 Using DIIS extrapolation, IDIIS=  1040.
 NGot=  1879048192 LenX=  1388082579 LenY=  1388035049
 Requested convergence on RMS density matrix=1.00D-08 within 128 cycles.
 Requested convergence on MAX density matrix=1.00D-06.
 Requested convergence on             energy=1.00D-06.
 No special actions if energy rises.

 Cycle   1  Pass 1  IDiag  1:
 E= -1136.09084783094    
 DIIS: error= 1.29D-02 at cycle   1 NSaved=   1.
 NSaved= 1 IEnMin= 1 EnMin= -1136.09084783094     IErMin= 1 ErrMin= 1.29D-02
 ErrMax= 1.29D-02  0.00D+00 EMaxC= 1.00D-01 BMatC= 1.92D-01 BMatP= 1.92D-01
 IDIUse=3 WtCom= 8.71D-01 WtEn= 1.29D-01
 Coeff-Com:  0.100D+01
 Coeff-En:   0.100D+01
 Coeff:      0.100D+01
 Gap=     0.044 Goal=   None    Shift=    0.000
 Gap=     0.032 Goal=   None    Shift=    0.000
 GapD=    0.032 DampG=0.250 DampE=0.500 DampFc=0.2500 IDamp=-1.
 Damping current iteration by 2.50D-01
 RMSDP=2.41D-02 MaxDP=1.98D+00              OVMax= 2.80D-01

 Cycle   2  Pass 1  IDiag  1:
 E= -1136.10360625888     Delta-E=       -0.012758427944 Rises=F Damp=T
 DIIS: error= 9.06D-03 at cycle   2 NSaved=   2.
 NSaved= 2 IEnMin= 2 EnMin= -1136.10360625888     IErMin= 2 ErrMin= 9.06D-03
 ErrMax= 9.06D-03  0.00D+00 EMaxC= 1.00D-01 BMatC= 7.26D-02 BMatP= 1.92D-01
 IDIUse=3 WtCom= 9.09D-01 WtEn= 9.06D-02
 Coeff-Com: -0.123D+01 0.223D+01
 Coeff-En:   0.000D+00 0.100D+01
 Coeff:     -0.112D+01 0.212D+01
 Gap=     0.052 Goal=   None    Shift=    0.000
 Gap=     0.034 Goal=   None    Shift=    0.000
 RMSDP=1.10D-02 MaxDP=9.89D-01 DE=-1.28D-02 OVMax= 2.60D-01

 Cycle   3  Pass 1  IDiag  1:
 E= -1136.12231172113     Delta-E=       -0.018705462247 Rises=F Damp=F
 DIIS: error= 3.80D-03 at cycle   3 NSaved=   3.
 NSaved= 3 IEnMin= 3 EnMin= -1136.12231172113     IErMin= 3 ErrMin= 3.80D-03
 ErrMax= 3.80D-03  0.00D+00 EMaxC= 1.00D-01 BMatC= 5.73D-03 BMatP= 7.26D-02
 IDIUse=3 WtCom= 9.62D-01 WtEn= 3.80D-02
 Coeff-Com: -0.352D+00 0.618D+00 0.734D+00
 Coeff-En:   0.000D+00 0.000D+00 0.100D+01
 Coeff:     -0.339D+00 0.595D+00 0.744D+00
 Gap=     0.045 Goal=   None    Shift=    0.000
 Gap=     0.032 Goal=   None    Shift=    0.000
 RMSDP=5.25D-03 MaxDP=3.32D-01 DE=-1.87D-02 OVMax= 1.39D-01

 Cycle   4  Pass 1  IDiag  1:
 E= -1136.12378400066     Delta-E=       -0.001472279534 Rises=F Damp=F
 DIIS: error= 2.60D-03 at cycle   4 NSaved=   4.
 NSaved= 4 IEnMin= 4 EnMin= -1136.12378400066     IErMin= 4 ErrMin= 2.60D-03
 ErrMax= 2.60D-03  0.00D+00 EMaxC= 1.00D-01 BMatC= 4.33D-03 BMatP= 5.73D-03
 IDIUse=3 WtCom= 9.74D-01 WtEn= 2.60D-02
 Coeff-Com: -0.377D-02 0.428D-02 0.465D+00 0.534D+00
 Coeff-En:   0.000D+00 0.000D+00 0.437D+00 0.563D+00
 Coeff:     -0.367D-02 0.417D-02 0.464D+00 0.535D+00
 Gap=     0.048 Goal=   None    Shift=    0.000
 Gap=     0.032 Goal=   None    Shift=    0.000
 RMSDP=1.77D-03 MaxDP=9.16D-02 DE=-1.47D-03 OVMax= 6.78D-02

 Cycle   5  Pass 1  IDiag  1:
 E= -1136.12792231964     Delta-E=       -0.004138318977 Rises=F Damp=F
 DIIS: error= 2.74D-04 at cycle   5 NSaved=   5.
 NSaved= 5 IEnMin= 5 EnMin= -1136.12792231964     IErMin= 5 ErrMin= 2.74D-04
 ErrMax= 2.74D-04  0.00D+00 EMaxC= 1.00D-01 BMatC= 4.06D-05 BMatP= 4.33D-03
 IDIUse=3 WtCom= 9.97D-01 WtEn= 2.74D-03
 Coeff-Com: -0.176D-02 0.936D-03 0.190D+00 0.222D+00 0.589D+00
 Coeff-En:   0.000D+00 0.000D+00 0.000D+00 0.000D+00 0.100D+01
 Coeff:     -0.175D-02 0.933D-03 0.189D+00 0.221D+00 0.590D+00
 Gap=     0.047 Goal=   None    Shift=    0.000
 Gap=     0.032 Goal=   None    Shift=    0.000
 RMSDP=4.40D-04 MaxDP=3.44D-02 DE=-4.14D-03 OVMax= 1.32D-02

 Cycle   6  Pass 1  IDiag  1:
 E= -1136.12795926521     Delta-E=       -0.000036945568 Rises=F Damp=F
 DIIS: error= 2.37D-04 at cycle   6 NSaved=   6.
 NSaved= 6 IEnMin= 6 EnMin= -1136.12795926521     IErMin= 6 ErrMin= 2.37D-04
 ErrMax= 2.37D-04  0.00D+00 EMaxC= 1.00D-01 BMatC= 2.00D-05 BMatP= 4.06D-05
 IDIUse=3 WtCom= 9.98D-01 WtEn= 2.37D-03
 Coeff-Com: -0.147D-02 0.132D-02-0.368D-01-0.427D-01 0.410D+00 0.670D+00
 Coeff-En:   0.000D+00 0.000D+00 0.000D+00 0.000D+00 0.285D+00 0.715D+00
 Coeff:     -0.146D-02 0.131D-02-0.367D-01-0.426D-01 0.410D+00 0.670D+00
 Gap=     0.047 Goal=   None    Shift=    0.000
 Gap=     0.032 Goal=   None    Shift=    0.000
 RMSDP=3.10D-04 MaxDP=1.91D-02 DE=-3.69D-05 OVMax= 8.16D-03

 Cycle   7  Pass 1  IDiag  1:
 E= -1136.12799047991     Delta-E=       -0.000031214699 Rises=F Damp=F
 DIIS: error= 5.60D-05 at cycle   7 NSaved=   7.
 NSaved= 7 IEnMin= 7 EnMin= -1136.12799047991     IErMin= 7 ErrMin= 5.60D-05
 ErrMax= 5.60D-05  0.00D+00 EMaxC= 1.00D-01 BMatC= 2.18D-06 BMatP= 2.00D-05
 IDIUse=1 WtCom= 1.00D+00 WtEn= 0.00D+00
 Coeff-Com: -0.457D-03 0.386D-03-0.402D-01-0.458D-01 0.144D+00 0.321D+00
 Coeff-Com:  0.621D+00
 Coeff:     -0.457D-03 0.386D-03-0.402D-01-0.458D-01 0.144D+00 0.321D+00
 Coeff:      0.621D+00
 Gap=     0.047 Goal=   None    Shift=    0.000
 Gap=     0.032 Goal=   None    Shift=    0.000
 RMSDP=9.66D-05 MaxDP=3.90D-03 DE=-3.12D-05 OVMax= 4.09D-03

 Cycle   8  Pass 1  IDiag  1:
 E= -1136.12799490499     Delta-E=       -0.000004425088 Rises=F Damp=F
 DIIS: error= 3.87D-05 at cycle   8 NSaved=   8.
 NSaved= 8 IEnMin= 8 EnMin= -1136.12799490499     IErMin= 8 ErrMin= 3.87D-05
 ErrMax= 3.87D-05  0.00D+00 EMaxC= 1.00D-01 BMatC= 6.94D-07 BMatP= 2.18D-06
 IDIUse=1 WtCom= 1.00D+00 WtEn= 0.00D+00
 Coeff-Com:  0.676D-03-0.834D-03-0.661D-02-0.660D-02-0.759D-01-0.990D-01
 Coeff-Com:  0.337D+00 0.851D+00
 Coeff:      0.676D-03-0.834D-03-0.661D-02-0.660D-02-0.759D-01-0.990D-01
 Coeff:      0.337D+00 0.851D+00
 Gap=     0.047 Goal=   None    Shift=    0.000
 Gap=     0.032 Goal=   None    Shift=    0.000
 RMSDP=1.00D-04 MaxDP=8.63D-03 DE=-4.43D-06 OVMax= 4.52D-03

 Cycle   9  Pass 1  IDiag  1:
 E= -1136.12799764793     Delta-E=       -0.000002742938 Rises=F Damp=F
 DIIS: error= 1.81D-05 at cycle   9 NSaved=   9.
 NSaved= 9 IEnMin= 9 EnMin= -1136.12799764793     IErMin= 9 ErrMin= 1.81D-05
 ErrMax= 1.81D-05  0.00D+00 EMaxC= 1.00D-01 BMatC= 1.01D-07 BMatP= 6.94D-07
 IDIUse=1 WtCom= 1.00D+00 WtEn= 0.00D+00
 Coeff-Com:  0.538D-03-0.660D-03 0.534D-02 0.521D-02-0.322D-01-0.668D-01
 Coeff-Com: -0.965D-01 0.647D-01 0.112D+01
 Coeff:      0.538D-03-0.660D-03 0.534D-02 0.521D-02-0.322D-01-0.668D-01
 Coeff:     -0.965D-01 0.647D-01 0.112D+01
 Gap=     0.047 Goal=   None    Shift=    0.000
 Gap=     0.032 Goal=   None    Shift=    0.000
 RMSDP=6.63D-05 MaxDP=3.86D-03 DE=-2.74D-06 OVMax= 3.84D-03

 Cycle  10  Pass 1  IDiag  1:
 E= -1136.12799871353     Delta-E=       -0.000001065595 Rises=F Damp=F
 DIIS: error= 1.17D-05 at cycle  10 NSaved=  10.
 NSaved=10 IEnMin=10 EnMin= -1136.12799871353     IErMin=10 ErrMin= 1.17D-05
 ErrMax= 1.17D-05  0.00D+00 EMaxC= 1.00D-01 BMatC= 4.11D-08 BMatP= 1.01D-07
 IDIUse=1 WtCom= 1.00D+00 WtEn= 0.00D+00
 Coeff-Com: -0.144D-03 0.208D-03 0.221D-02 0.182D-02 0.113D-01-0.106D-02
 Coeff-Com: -0.638D-01-0.143D+00 0.159D+00 0.103D+01
 Coeff:     -0.144D-03 0.208D-03 0.221D-02 0.182D-02 0.113D-01-0.106D-02
 Coeff:     -0.638D-01-0.143D+00 0.159D+00 0.103D+01
 Gap=     0.047 Goal=   None    Shift=    0.000
 Gap=     0.032 Goal=   None    Shift=    0.000
 RMSDP=3.79D-05 MaxDP=2.39D-03 DE=-1.07D-06 OVMax= 2.77D-03

 Cycle  11  Pass 1  IDiag  1:
 E= -1136.12799917132     Delta-E=       -0.000000457791 Rises=F Damp=F
 DIIS: error= 9.10D-06 at cycle  11 NSaved=  11.
 NSaved=11 IEnMin=11 EnMin= -1136.12799917132     IErMin=11 ErrMin= 9.10D-06
 ErrMax= 9.10D-06  0.00D+00 EMaxC= 1.00D-01 BMatC= 3.45D-08 BMatP= 4.11D-08
 IDIUse=1 WtCom= 1.00D+00 WtEn= 0.00D+00
 Coeff-Com: -0.393D-03 0.508D-03-0.745D-03-0.999D-03 0.281D-01 0.305D-01
 Coeff-Com:  0.173D-02-0.144D+00-0.493D+00 0.761D+00 0.817D+00
 Coeff:     -0.393D-03 0.508D-03-0.745D-03-0.999D-03 0.281D-01 0.305D-01
 Coeff:      0.173D-02-0.144D+00-0.493D+00 0.761D+00 0.817D+00
 Gap=     0.047 Goal=   None    Shift=    0.000
 Gap=     0.032 Goal=   None    Shift=    0.000
 RMSDP=3.29D-05 MaxDP=1.86D-03 DE=-4.58D-07 OVMax= 2.72D-03

 Cycle  12  Pass 1  IDiag  1:
 E= -1136.12799950409     Delta-E=       -0.000000332768 Rises=F Damp=F
 DIIS: error= 6.26D-06 at cycle  12 NSaved=  12.
 NSaved=12 IEnMin=12 EnMin= -1136.12799950409     IErMin=12 ErrMin= 6.26D-06
 ErrMax= 6.26D-06  0.00D+00 EMaxC= 1.00D-01 BMatC= 8.88D-09 BMatP= 3.45D-08
 IDIUse=1 WtCom= 1.00D+00 WtEn= 0.00D+00
 Coeff-Com:  0.488D-04-0.764D-04-0.109D-02-0.971D-03 0.170D-02 0.193D-02
 Coeff-Com:  0.324D-01 0.481D-01-0.214D+00-0.261D+00 0.105D+00 0.129D+01
 Coeff:      0.488D-04-0.764D-04-0.109D-02-0.971D-03 0.170D-02 0.193D-02
 Coeff:      0.324D-01 0.481D-01-0.214D+00-0.261D+00 0.105D+00 0.129D+01
 Gap=     0.047 Goal=   None    Shift=    0.000
 Gap=     0.032 Goal=   None    Shift=    0.000
 RMSDP=3.04D-05 MaxDP=2.15D-03 DE=-3.33D-07 OVMax= 2.61D-03

 Cycle  13  Pass 1  IDiag  1:
 E= -1136.12799968837     Delta-E=       -0.000000184285 Rises=F Damp=F
 DIIS: error= 3.14D-06 at cycle  13 NSaved=  13.
 NSaved=13 IEnMin=13 EnMin= -1136.12799968837     IErMin=13 ErrMin= 3.14D-06
 ErrMax= 3.14D-06  0.00D+00 EMaxC= 1.00D-01 BMatC= 3.33D-09 BMatP= 8.88D-09
 IDIUse=1 WtCom= 1.00D+00 WtEn= 0.00D+00
 Coeff-Com:  0.149D-03-0.192D-03 0.631D-04 0.160D-03-0.109D-01-0.144D-01
 Coeff-Com:  0.140D-01 0.716D-01 0.152D+00-0.306D+00-0.411D+00 0.999D-01
 Coeff-Com:  0.140D+01
 Coeff:      0.149D-03-0.192D-03 0.631D-04 0.160D-03-0.109D-01-0.144D-01
 Coeff:      0.140D-01 0.716D-01 0.152D+00-0.306D+00-0.411D+00 0.999D-01
 Coeff:      0.140D+01
 Gap=     0.047 Goal=   None    Shift=    0.000
 Gap=     0.032 Goal=   None    Shift=    0.000
 RMSDP=2.22D-05 MaxDP=1.80D-03 DE=-1.84D-07 OVMax= 2.06D-03

 Cycle  14  Pass 1  IDiag  1:
 E= -1136.12799976205     Delta-E=       -0.000000073676 Rises=F Damp=F
 DIIS: error= 1.55D-06 at cycle  14 NSaved=  14.
 NSaved=14 IEnMin=14 EnMin= -1136.12799976205     IErMin=14 ErrMin= 1.55D-06
 ErrMax= 1.55D-06  0.00D+00 EMaxC= 1.00D-01 BMatC= 8.16D-10 BMatP= 3.33D-09
 IDIUse=1 WtCom= 1.00D+00 WtEn= 0.00D+00
 Coeff-Com:  0.303D-05-0.252D-06-0.680D-04-0.103D-03-0.103D-02-0.166D-02
 Coeff-Com: -0.338D-02-0.532D-02 0.857D-01 0.336D-01-0.143D+00-0.360D+00
 Coeff-Com:  0.365D+00 0.103D+01
 Coeff:      0.303D-05-0.252D-06-0.680D-04-0.103D-03-0.103D-02-0.166D-02
 Coeff:     -0.338D-02-0.532D-02 0.857D-01 0.336D-01-0.143D+00-0.360D+00
 Coeff:      0.365D+00 0.103D+01
 Gap=     0.047 Goal=   None    Shift=    0.000
 Gap=     0.032 Goal=   None    Shift=    0.000
 RMSDP=8.30D-06 MaxDP=7.11D-04 DE=-7.37D-08 OVMax= 7.73D-04

 Cycle  15  Pass 1  IDiag  1:
 E= -1136.12799977336     Delta-E=       -0.000000011311 Rises=F Damp=F
 DIIS: error= 7.08D-07 at cycle  15 NSaved=  15.
 NSaved=15 IEnMin=15 EnMin= -1136.12799977336     IErMin=15 ErrMin= 7.08D-07
 ErrMax= 7.08D-07  0.00D+00 EMaxC= 1.00D-01 BMatC= 1.70D-10 BMatP= 8.16D-10
 IDIUse=1 WtCom= 1.00D+00 WtEn= 0.00D+00
 Coeff-Com: -0.858D-05 0.113D-04 0.185D-03 0.939D-04 0.162D-02 0.153D-02
 Coeff-Com: -0.339D-02-0.132D-01-0.302D-01 0.706D-01 0.895D-01-0.229D-01
 Coeff-Com: -0.347D+00-0.190D-01 0.127D+01
 Coeff:     -0.858D-05 0.113D-04 0.185D-03 0.939D-04 0.162D-02 0.153D-02
 Coeff:     -0.339D-02-0.132D-01-0.302D-01 0.706D-01 0.895D-01-0.229D-01
 Coeff:     -0.347D+00-0.190D-01 0.127D+01
 Gap=     0.047 Goal=   None    Shift=    0.000
 Gap=     0.032 Goal=   None    Shift=    0.000
 RMSDP=3.36D-06 MaxDP=2.15D-04 DE=-1.13D-08 OVMax= 3.00D-04

 Cycle  16  Pass 1  IDiag  1:
 E= -1136.12799977550     Delta-E=       -0.000000002138 Rises=F Damp=F
 DIIS: error= 2.52D-07 at cycle  16 NSaved=  16.
 NSaved=16 IEnMin=16 EnMin= -1136.12799977550     IErMin=16 ErrMin= 2.52D-07
 ErrMax= 2.52D-07  0.00D+00 EMaxC= 1.00D-01 BMatC= 2.69D-11 BMatP= 1.70D-10
 IDIUse=1 WtCom= 1.00D+00 WtEn= 0.00D+00
 Coeff-Com: -0.551D-05 0.642D-05-0.580D-04-0.198D-04 0.466D-04 0.133D-03
 Coeff-Com:  0.181D-02 0.471D-02-0.134D-01-0.266D-01 0.130D-01 0.905D-01
 Coeff-Com: -0.103D-01-0.160D+00-0.342D+00 0.144D+01
 Coeff:     -0.551D-05 0.642D-05-0.580D-04-0.198D-04 0.466D-04 0.133D-03
 Coeff:      0.181D-02 0.471D-02-0.134D-01-0.266D-01 0.130D-01 0.905D-01
 Coeff:     -0.103D-01-0.160D+00-0.342D+00 0.144D+01
 Gap=     0.047 Goal=   None    Shift=    0.000
 Gap=     0.032 Goal=   None    Shift=    0.000
 RMSDP=1.19D-06 MaxDP=1.27D-04 DE=-2.14D-09 OVMax= 6.80D-05

 Cycle  17  Pass 1  IDiag  1:
 E= -1136.12799977587     Delta-E=       -0.000000000374 Rises=F Damp=F
 DIIS: error= 1.39D-07 at cycle  17 NSaved=  17.
 NSaved=17 IEnMin=17 EnMin= -1136.12799977587     IErMin=17 ErrMin= 1.39D-07
 ErrMax= 1.39D-07  0.00D+00 EMaxC= 1.00D-01 BMatC= 6.50D-12 BMatP= 2.69D-11
 IDIUse=1 WtCom= 1.00D+00 WtEn= 0.00D+00
 Coeff-Com:  0.444D-05-0.593D-05-0.427D-04-0.214D-04-0.423D-03-0.444D-03
 Coeff-Com:  0.715D-03 0.322D-02 0.815D-02-0.178D-01-0.229D-01 0.103D-01
 Coeff-Com:  0.819D-01-0.190D-01-0.272D+00 0.890D-01 0.114D+01
 Coeff:      0.444D-05-0.593D-05-0.427D-04-0.214D-04-0.423D-03-0.444D-03
 Coeff:      0.715D-03 0.322D-02 0.815D-02-0.178D-01-0.229D-01 0.103D-01
 Coeff:      0.819D-01-0.190D-01-0.272D+00 0.890D-01 0.114D+01
 Gap=     0.047 Goal=   None    Shift=    0.000
 Gap=     0.032 Goal=   None    Shift=    0.000
 RMSDP=4.89D-07 MaxDP=5.04D-05 DE=-3.74D-10 OVMax= 2.92D-05

 Cycle  18  Pass 1  IDiag  1:
 E= -1136.12799977593     Delta-E=       -0.000000000063 Rises=F Damp=F
 DIIS: error= 6.32D-08 at cycle  18 NSaved=  18.
 NSaved=18 IEnMin=18 EnMin= -1136.12799977593     IErMin=18 ErrMin= 6.32D-08
 ErrMax= 6.32D-08  0.00D+00 EMaxC= 1.00D-01 BMatC= 2.00D-12 BMatP= 6.50D-12
 IDIUse=1 WtCom= 1.00D+00 WtEn= 0.00D+00
 Coeff-Com:  0.279D-05-0.347D-05 0.107D-04 0.114D-05-0.800D-04-0.106D-03
 Coeff-Com: -0.399D-03-0.945D-03 0.453D-02 0.593D-02-0.709D-02-0.236D-01
 Coeff-Com:  0.125D-01 0.362D-01 0.727D-01-0.395D+00 0.155D+00 0.114D+01
 Coeff:      0.279D-05-0.347D-05 0.107D-04 0.114D-05-0.800D-04-0.106D-03
 Coeff:     -0.399D-03-0.945D-03 0.453D-02 0.593D-02-0.709D-02-0.236D-01
 Coeff:      0.125D-01 0.362D-01 0.727D-01-0.395D+00 0.155D+00 0.114D+01
 Gap=     0.047 Goal=   None    Shift=    0.000
 Gap=     0.032 Goal=   None    Shift=    0.000
 RMSDP=3.15D-07 MaxDP=2.81D-05 DE=-6.30D-11 OVMax= 1.79D-05

 Cycle  19  Pass 1  IDiag  1:
 E= -1136.12799977596     Delta-E=       -0.000000000030 Rises=F Damp=F
 DIIS: error= 4.56D-08 at cycle  19 NSaved=  19.
 NSaved=19 IEnMin=19 EnMin= -1136.12799977596     IErMin=19 ErrMin= 4.56D-08
 ErrMax= 4.56D-08  0.00D+00 EMaxC= 1.00D-01 BMatC= 6.08D-13 BMatP= 2.00D-12
 IDIUse=1 WtCom= 1.00D+00 WtEn= 0.00D+00
 Coeff-Com: -0.153D-05 0.205D-05 0.116D-04 0.673D-05 0.111D-03 0.127D-03
 Coeff-Com: -0.226D-03-0.871D-03-0.199D-02 0.465D-02 0.633D-02-0.277D-02
 Coeff-Com: -0.224D-01 0.887D-02 0.685D-01-0.277D-01-0.315D+00 0.669D-01
 Coeff-Com:  0.122D+01
 Coeff:     -0.153D-05 0.205D-05 0.116D-04 0.673D-05 0.111D-03 0.127D-03
 Coeff:     -0.226D-03-0.871D-03-0.199D-02 0.465D-02 0.633D-02-0.277D-02
 Coeff:     -0.224D-01 0.887D-02 0.685D-01-0.277D-01-0.315D+00 0.669D-01
 Coeff:      0.122D+01
 Gap=     0.047 Goal=   None    Shift=    0.000
 Gap=     0.032 Goal=   None    Shift=    0.000
 RMSDP=2.65D-07 MaxDP=2.33D-05 DE=-3.02D-11 OVMax= 9.69D-06

 Cycle  20  Pass 1  IDiag  1:
 E= -1136.12799977598     Delta-E=       -0.000000000019 Rises=F Damp=F
 DIIS: error= 3.15D-08 at cycle  20 NSaved=  20.
 NSaved=20 IEnMin=20 EnMin= -1136.12799977598     IErMin=20 ErrMin= 3.15D-08
 ErrMax= 3.15D-08  0.00D+00 EMaxC= 1.00D-01 BMatC= 2.04D-13 BMatP= 6.08D-13
 IDIUse=1 WtCom= 1.00D+00 WtEn= 0.00D+00
 Coeff-Com: -0.978D-06 0.122D-05-0.323D-05 0.573D-07 0.191D-04 0.133D-04
 Coeff-Com:  0.163D-03 0.378D-03-0.133D-02-0.237D-02 0.210D-02 0.757D-02
 Coeff-Com: -0.267D-02-0.113D-01-0.327D-01 0.140D+00-0.327D-01-0.389D+00
 Coeff-Com: -0.969D-01 0.142D+01
 Coeff:     -0.978D-06 0.122D-05-0.323D-05 0.573D-07 0.191D-04 0.133D-04
 Coeff:      0.163D-03 0.378D-03-0.133D-02-0.237D-02 0.210D-02 0.757D-02
 Coeff:     -0.267D-02-0.113D-01-0.327D-01 0.140D+00-0.327D-01-0.389D+00
 Coeff:     -0.969D-01 0.142D+01
 Gap=     0.047 Goal=   None    Shift=    0.000
 Gap=     0.032 Goal=   None    Shift=    0.000
 RMSDP=2.32D-07 MaxDP=2.16D-05 DE=-1.93D-11 OVMax= 7.52D-06

 Cycle  21  Pass 1  IDiag  1:
 E= -1136.12799977599     Delta-E=       -0.000000000003 Rises=F Damp=F
 DIIS: error= 1.83D-08 at cycle  21 NSaved=  20.
 NSaved=20 IEnMin=20 EnMin= -1136.12799977599     IErMin=20 ErrMin= 1.83D-08
 ErrMax= 1.83D-08  0.00D+00 EMaxC= 1.00D-01 BMatC= 6.10D-14 BMatP= 2.04D-13
 IDIUse=1 WtCom= 1.00D+00 WtEn= 0.00D+00
 Coeff-Com:  0.126D-06-0.267D-05-0.271D-05-0.124D-04-0.687D-05-0.111D-04
 Coeff-Com:  0.498D-04 0.453D-03-0.249D-03-0.158D-02-0.482D-03 0.515D-02
 Coeff-Com: -0.233D-02-0.105D-01-0.810D-02 0.782D-01 0.389D-01-0.285D+00
 Coeff-Com: -0.323D+00 0.151D+01
 Coeff:      0.126D-06-0.267D-05-0.271D-05-0.124D-04-0.687D-05-0.111D-04
 Coeff:      0.498D-04 0.453D-03-0.249D-03-0.158D-02-0.482D-03 0.515D-02
 Coeff:     -0.233D-02-0.105D-01-0.810D-02 0.782D-01 0.389D-01-0.285D+00
 Coeff:     -0.323D+00 0.151D+01
 Gap=     0.047 Goal=   None    Shift=    0.000
 Gap=     0.032 Goal=   None    Shift=    0.000
 RMSDP=1.59D-07 MaxDP=1.73D-05 DE=-3.18D-12 OVMax= 4.77D-06

 Cycle  22  Pass 1  IDiag  1:
 E= -1136.12799977597     Delta-E=        0.000000000013 Rises=F Damp=F
 DIIS: error= 8.68D-09 at cycle  22 NSaved=  20.
 NSaved=20 IEnMin=19 EnMin= -1136.12799977599     IErMin=20 ErrMin= 8.68D-09
 ErrMax= 8.68D-09  0.00D+00 EMaxC= 1.00D-01 BMatC= 1.79D-14 BMatP= 6.10D-14
 IDIUse=1 WtCom= 1.00D+00 WtEn= 0.00D+00
 Large coefficients: NSaved= 20 BigCof=    0.00 CofMax=   10.00 Det=-7.37D-15
 Inversion failed.  Reducing to 19 matrices.
 Large coefficients: NSaved= 19 BigCof=    0.00 CofMax=   10.00 Det=-7.55D-15
 Inversion failed.  Reducing to 18 matrices.
 Large coefficients: NSaved= 18 BigCof=    0.00 CofMax=   10.00 Det=-7.64D-15
 Inversion failed.  Reducing to 17 matrices.
 Large coefficients: NSaved= 17 BigCof=    0.00 CofMax=   10.00 Det=-7.64D-15
 Inversion failed.  Reducing to 16 matrices.
 Large coefficients: NSaved= 16 BigCof=    0.00 CofMax=   10.00 Det=-7.65D-15
 Inversion failed.  Reducing to 15 matrices.
 Coeff-Com: -0.390D-04 0.198D-04 0.374D-03 0.846D-04-0.826D-03-0.898D-03
 Coeff-Com:  0.275D-02 0.879D-02-0.252D-01-0.146D-01 0.824D-01 0.891D-01
 Coeff-Com: -0.280D+00-0.404D+00 0.154D+01
 Coeff:     -0.390D-04 0.198D-04 0.374D-03 0.846D-04-0.826D-03-0.898D-03
 Coeff:      0.275D-02 0.879D-02-0.252D-01-0.146D-01 0.824D-01 0.891D-01
 Coeff:     -0.280D+00-0.404D+00 0.154D+01
 Gap=     0.047 Goal=   None    Shift=    0.000
 Gap=     0.032 Goal=   None    Shift=    0.000
 RMSDP=9.66D-08 MaxDP=1.10D-05 DE= 1.32D-11 OVMax= 2.69D-06

 Cycle  23  Pass 1  IDiag  1:
 E= -1136.12799977598     Delta-E=       -0.000000000006 Rises=F Damp=F
 DIIS: error= 3.85D-09 at cycle  23 NSaved=  16.
 NSaved=16 IEnMin=14 EnMin= -1136.12799977599     IErMin=16 ErrMin= 3.85D-09
 ErrMax= 3.85D-09  0.00D+00 EMaxC= 1.00D-01 BMatC= 7.01D-15 BMatP= 1.79D-14
 IDIUse=1 WtCom= 1.00D+00 WtEn= 0.00D+00
 Large coefficients: NSaved= 16 BigCof=    0.00 CofMax=   10.00 Det=-5.06D-15
 Inversion failed.  Reducing to 15 matrices.
 Coeff-Com:  0.223D-04-0.267D-04 0.823D-04-0.976D-04-0.688D-03 0.115D-02
 Coeff-Com:  0.307D-02-0.750D-02-0.154D-01 0.260D-01 0.927D-01-0.927D-01
 Coeff-Com: -0.403D+00 0.621D+00 0.776D+00
 Coeff:      0.223D-04-0.267D-04 0.823D-04-0.976D-04-0.688D-03 0.115D-02
 Coeff:      0.307D-02-0.750D-02-0.154D-01 0.260D-01 0.927D-01-0.927D-01
 Coeff:     -0.403D+00 0.621D+00 0.776D+00
 Gap=     0.047 Goal=   None    Shift=    0.000
 Gap=     0.032 Goal=   None    Shift=    0.000
 RMSDP=2.65D-08 MaxDP=3.10D-06 DE=-5.91D-12 OVMax= 1.17D-06

 Cycle  24  Pass 1  IDiag  1:
 E= -1136.12799977600     Delta-E=       -0.000000000018 Rises=F Damp=F
 DIIS: error= 3.13D-09 at cycle  24 NSaved=  16.
 NSaved=16 IEnMin=16 EnMin= -1136.12799977600     IErMin=16 ErrMin= 3.13D-09
 ErrMax= 3.13D-09  0.00D+00 EMaxC= 1.00D-01 BMatC= 4.06D-15 BMatP= 7.01D-15
 IDIUse=1 WtCom= 1.00D+00 WtEn= 0.00D+00
 Large coefficients: NSaved= 16 BigCof=    0.00 CofMax=   10.00 Det=-2.78D-15
 Inversion failed.  Reducing to 15 matrices.
 Coeff-Com: -0.224D-05 0.759D-04-0.666D-04-0.203D-03 0.618D-03-0.875D-04
 Coeff-Com:  0.118D-02-0.666D-02-0.115D-01 0.402D-01 0.650D-01-0.242D+00
 Coeff-Com: -0.368D-01 0.502D+00 0.689D+00
 Coeff:     -0.224D-05 0.759D-04-0.666D-04-0.203D-03 0.618D-03-0.875D-04
 Coeff:      0.118D-02-0.666D-02-0.115D-01 0.402D-01 0.650D-01-0.242D+00
 Coeff:     -0.368D-01 0.502D+00 0.689D+00
 Gap=     0.047 Goal=   None    Shift=    0.000
 Gap=     0.032 Goal=   None    Shift=    0.000
 RMSDP=1.79D-08 MaxDP=1.99D-06 DE=-1.77D-11 OVMax= 5.44D-07

 Cycle  25  Pass 1  IDiag  1:
 E= -1136.12799977598     Delta-E=        0.000000000017 Rises=F Damp=F
 DIIS: error= 8.83D-10 at cycle  25 NSaved=  16.
 NSaved=16 IEnMin=15 EnMin= -1136.12799977600     IErMin=16 ErrMin= 8.83D-10
 ErrMax= 8.83D-10  0.00D+00 EMaxC= 1.00D-01 BMatC= 4.21D-16 BMatP= 4.06D-15
 IDIUse=1 WtCom= 1.00D+00 WtEn= 0.00D+00
 Large coefficients: NSaved= 16 BigCof=    0.00 CofMax=   10.00 Det=-1.92D-15
 Inversion failed.  Reducing to 15 matrices.
 Coeff-Com: -0.446D-04 0.496D-04 0.221D-03-0.460D-03-0.148D-02 0.423D-02
 Coeff-Com:  0.366D-02-0.129D-01-0.236D-01 0.419D-01 0.111D+00-0.252D+00
 Coeff-Com: -0.142D+00 0.115D+00 0.116D+01
 Coeff:     -0.446D-04 0.496D-04 0.221D-03-0.460D-03-0.148D-02 0.423D-02
 Coeff:      0.366D-02-0.129D-01-0.236D-01 0.419D-01 0.111D+00-0.252D+00
 Coeff:     -0.142D+00 0.115D+00 0.116D+01
 Gap=     0.047 Goal=   None    Shift=    0.000
 Gap=     0.032 Goal=   None    Shift=    0.000
 RMSDP=8.46D-09 MaxDP=9.53D-07 DE= 1.68D-11 OVMax= 2.61D-07

 SCF Done:  E(UB3LYP) =  -1136.12799978     A.U. after   25 cycles
            NFock= 25  Conv=0.85D-08     -V/T= 2.0029
 <Sx>= 0.0000 <Sy>= 0.0000 <Sz>= 0.5000 <S**2>= 0.7678 S= 0.5089
 <L.S>= 0.000000000000E+00
 KE= 1.132894035832D+03 PE=-3.387829059335D+03 EE= 7.895810193519D+02
 Annihilation of the first spin contaminant:
 S**2 before annihilation     0.7678,   after     0.7502
 Leave Link  502 at Wed Nov 29 15:57:32 2023, MaxMem=  1879048192 cpu:             226.9 elap:              20.6
 (Enter /home/sekinelabo/g16/l601.exe)
 Copying SCF densities to generalized density rwf, IOpCl= 1 IROHF=0.

 **********************************************************************

            Population analysis using the SCF Density.

 **********************************************************************

 Orbital symmetries:
 Alpha Orbitals:
       Occupied  (A) (A) (A) (A) (A) (A) (A) (A) (A) (A) (A) (A)
                 (A) (A) (A) (A) (A) (A) (A) (A) (A) (A) (A) (A)
                 (A) (A) (A) (A) (A) (A) (A) (A) (A) (A) (A) (A)
                 (A) (A) (A)
       Virtual   (A) (A) (A) (A) (A) (A) (A) (A) (A) (A) (A) (A)
                 (A) (A) (A) (A) (A) (A) (A) (A) (A) (A) (A) (A)
                 (A) (A) (A) (A) (A) (A) (A) (A) (A) (A) (A) (A)
                 (A) (A) (A) (A) (A) (A) (A) (A) (A) (A) (A) (A)
                 (A) (A) (A) (A) (A) (A) (A) (A) (A) (A) (A) (A)
                 (A) (A) (A) (A) (A) (A) (A) (A) (A) (A) (A) (A)
                 (A) (A) (A) (A) (A) (A) (A) (A) (A) (A) (A) (A)
                 (A) (A) (A) (A) (A) (A) (A) (A) (A) (A) (A) (A)
                 (A) (A) (A) (A) (A) (A) (A) (A) (A) (A) (A) (A)
                 (A) (A) (A) (A) (A) (A) (A) (A) (A) (A) (A) (A)
                 (A) (A) (A) (A) (A) (A) (A) (A) (A) (A) (A) (A)
                 (A) (A) (A) (A) (A) (A) (A) (A) (A) (A) (A) (A)
                 (A) (A) (A) (A) (A) (A) (A) (A) (A) (A) (A) (A)
                 (A) (A) (A) (A) (A) (A) (A) (A) (A) (A) (A) (A)
                 (A) (A) (A)
 Beta  Orbitals:
       Occupied  (A) (A) (A) (A) (A) (A) (A) (A) (A) (A) (A) (A)
                 (A) (A) (A) (A) (A) (A) (A) (A) (A) (A) (A) (A)
                 (A) (A) (A) (A) (A) (A) (A) (A) (A) (A) (A) (A)
                 (A) (A)
       Virtual   (A) (A) (A) (A) (A) (A) (A) (A) (A) (A) (A) (A)
                 (A) (A) (A) (A) (A) (A) (A) (A) (A) (A) (A) (A)
                 (A) (A) (A) (A) (A) (A) (A) (A) (A) (A) (A) (A)
                 (A) (A) (A) (A) (A) (A) (A) (A) (A) (A) (A) (A)
                 (A) (A) (A) (A) (A) (A) (A) (A) (A) (A) (A) (A)
                 (A) (A) (A) (A) (A) (A) (A) (A) (A) (A) (A) (A)
                 (A) (A) (A) (A) (A) (A) (A) (A) (A) (A) (A) (A)
                 (A) (A) (A) (A) (A) (A) (A) (A) (A) (A) (A) (A)
                 (A) (A) (A) (A) (A) (A) (A) (A) (A) (A) (A) (A)
                 (A) (A) (A) (A) (A) (A) (A) (A) (A) (A) (A) (A)
                 (A) (A) (A) (A) (A) (A) (A) (A) (A) (A) (A) (A)
                 (A) (A) (A) (A) (A) (A) (A) (A) (A) (A) (A) (A)
                 (A) (A) (A) (A) (A) (A) (A) (A) (A) (A) (A) (A)
                 (A) (A) (A) (A) (A) (A) (A) (A) (A) (A) (A) (A)
                 (A) (A) (A) (A)
 The electronic state is 2-A.
 Alpha  occ. eigenvalues --  -38.44286 -38.44210 -38.44146 -38.44021 -38.43857
 Alpha  occ. eigenvalues --  -38.43295 -38.42797  -2.20188  -2.20096  -2.20024
 Alpha  occ. eigenvalues --   -2.19831  -2.19773  -2.19070  -2.18682  -1.13930
 Alpha  occ. eigenvalues --   -1.13875  -1.13804  -1.13775  -1.13739  -1.13717
 Alpha  occ. eigenvalues --   -1.13711  -1.13689  -1.13607  -1.13496  -1.13484
 Alpha  occ. eigenvalues --   -1.13475  -1.13453  -1.13413  -1.13365  -1.12744
 Alpha  occ. eigenvalues --   -1.12742  -1.12701  -1.12375  -1.12335  -1.12306
 Alpha  occ. eigenvalues --   -0.18578  -0.13792  -0.11566  -0.10980
 Alpha virt. eigenvalues --   -0.06269  -0.05067  -0.04981  -0.03136  -0.02655
 Alpha virt. eigenvalues --   -0.02282  -0.02197  -0.01155  -0.01007  -0.00136
 Alpha virt. eigenvalues --    0.00120   0.00375   0.00414   0.00486   0.00622
 Alpha virt. eigenvalues --    0.00806   0.00862   0.00965   0.01019   0.01368
 Alpha virt. eigenvalues --    0.01423   0.01706   0.01744   0.01824   0.01885
 Alpha virt. eigenvalues --    0.02168   0.02413   0.02505   0.02662   0.02718
 Alpha virt. eigenvalues --    0.02737   0.02765   0.02795   0.02831   0.02904
 Alpha virt. eigenvalues --    0.03052   0.03275   0.03376   0.03713   0.03870
 Alpha virt. eigenvalues --    0.03947   0.04222   0.04398   0.04537   0.04660
 Alpha virt. eigenvalues --    0.04848   0.04996   0.05299   0.05460   0.05729
 Alpha virt. eigenvalues --    0.05871   0.05966   0.06503   0.07045   0.07230
 Alpha virt. eigenvalues --    0.07413   0.07554   0.07633   0.08532   0.08695
 Alpha virt. eigenvalues --    0.09608   0.09967   0.10513   0.10709   0.11287
 Alpha virt. eigenvalues --    0.11730   0.11982   0.12580   0.12801   0.13266
 Alpha virt. eigenvalues --    0.13387   0.13477   0.13748   0.13907   0.14109
 Alpha virt. eigenvalues --    0.14805   0.15187   0.15275   0.15913   0.17264
 Alpha virt. eigenvalues --    0.25909   0.26420   0.27209   0.27406   0.28607
 Alpha virt. eigenvalues --    0.29804   0.32014   0.32473   0.33521   0.33740
 Alpha virt. eigenvalues --    0.34272   0.35191   0.36044   0.36222   0.37202
 Alpha virt. eigenvalues --    0.38230   0.38317   0.39167   0.39700   0.42026
 Alpha virt. eigenvalues --    0.42661   0.43523   0.44316   0.44536   0.44702
 Alpha virt. eigenvalues --    0.44897   0.45132   0.45280   0.45605   0.46009
 Alpha virt. eigenvalues --    0.46177   0.46745   0.47190   0.48157   0.48393
 Alpha virt. eigenvalues --    0.48902   0.49800   0.50480   0.50801   0.52031
 Alpha virt. eigenvalues --    0.52981   0.53420   0.53677   0.54625   0.56221
 Alpha virt. eigenvalues --    0.56784   0.58577   0.58795   0.59460   0.60102
 Alpha virt. eigenvalues --    0.61159   0.61804   0.62193   0.63599   0.64632
 Alpha virt. eigenvalues --    0.65616   2.02824   2.11450   2.14121   2.18710
 Alpha virt. eigenvalues --    2.21808   2.22578   2.24238   4.43467   4.44126
 Alpha virt. eigenvalues --    4.44427   4.45410   4.45426   4.46029   4.46166
 Alpha virt. eigenvalues --    4.46640   4.47021   4.47355   4.48372   4.48826
 Alpha virt. eigenvalues --    4.49220   4.50607   4.51710   4.52836   4.54080
 Alpha virt. eigenvalues --    4.55363   4.56882   4.57787   4.58935  96.22010
 Alpha virt. eigenvalues --   96.32632  96.35376  96.41153  96.44920  96.45820
 Alpha virt. eigenvalues --   96.47686
  Beta  occ. eigenvalues --  -38.44264 -38.44161 -38.44113 -38.44001 -38.43797
  Beta  occ. eigenvalues --  -38.43297 -38.42782  -2.20153  -2.20010  -2.19964
  Beta  occ. eigenvalues --   -2.19793  -2.19667  -2.19075  -2.18658  -1.13885
  Beta  occ. eigenvalues --   -1.13841  -1.13768  -1.13718  -1.13688  -1.13667
  Beta  occ. eigenvalues --   -1.13656  -1.13632  -1.13561  -1.13466  -1.13456
  Beta  occ. eigenvalues --   -1.13430  -1.13401  -1.13323  -1.13289  -1.12747
  Beta  occ. eigenvalues --   -1.12742  -1.12704  -1.12358  -1.12298  -1.12290
  Beta  occ. eigenvalues --   -0.17821  -0.13608  -0.10786
  Beta virt. eigenvalues --   -0.07557  -0.06084  -0.04965  -0.04403  -0.02756
  Beta virt. eigenvalues --   -0.02278  -0.01946  -0.01703  -0.00997  -0.00517
  Beta virt. eigenvalues --   -0.00058   0.00161   0.00454   0.00517   0.00598
  Beta virt. eigenvalues --    0.00717   0.00854   0.00924   0.01003   0.01078
  Beta virt. eigenvalues --    0.01496   0.01529   0.01755   0.01794   0.01895
  Beta virt. eigenvalues --    0.02021   0.02220   0.02442   0.02577   0.02722
  Beta virt. eigenvalues --    0.02731   0.02764   0.02794   0.02817   0.02869
  Beta virt. eigenvalues --    0.02956   0.03092   0.03319   0.03444   0.03799
  Beta virt. eigenvalues --    0.03981   0.04013   0.04311   0.04461   0.04731
  Beta virt. eigenvalues --    0.04834   0.04928   0.05052   0.05470   0.05643
  Beta virt. eigenvalues --    0.05815   0.05968   0.06107   0.06572   0.07141
  Beta virt. eigenvalues --    0.07303   0.07509   0.07702   0.07767   0.08657
  Beta virt. eigenvalues --    0.08867   0.09724   0.09982   0.10751   0.10879
  Beta virt. eigenvalues --    0.11683   0.12057   0.12281   0.12718   0.12943
  Beta virt. eigenvalues --    0.13378   0.13639   0.13715   0.13883   0.14152
  Beta virt. eigenvalues --    0.14396   0.14930   0.15279   0.15690   0.16130
  Beta virt. eigenvalues --    0.17463   0.26111   0.26712   0.27519   0.27740
  Beta virt. eigenvalues --    0.28855   0.30079   0.32371   0.32708   0.33845
  Beta virt. eigenvalues --    0.34011   0.34470   0.35352   0.36202   0.36525
  Beta virt. eigenvalues --    0.37501   0.38445   0.38632   0.39326   0.39888
  Beta virt. eigenvalues --    0.42285   0.42785   0.43664   0.44446   0.44625
  Beta virt. eigenvalues --    0.44825   0.44990   0.45323   0.45423   0.45792
  Beta virt. eigenvalues --    0.46154   0.46318   0.46882   0.47300   0.48332
  Beta virt. eigenvalues --    0.48509   0.49032   0.49947   0.50633   0.50971
  Beta virt. eigenvalues --    0.52186   0.53160   0.53628   0.53807   0.54758
  Beta virt. eigenvalues --    0.56393   0.56975   0.58764   0.59024   0.59610
  Beta virt. eigenvalues --    0.60245   0.61246   0.61968   0.62273   0.63677
  Beta virt. eigenvalues --    0.64821   0.65799   2.02929   2.11488   2.14204
  Beta virt. eigenvalues --    2.18874   2.21895   2.22789   2.24310   4.43543
  Beta virt. eigenvalues --    4.44192   4.44480   4.45443   4.45473   4.46077
  Beta virt. eigenvalues --    4.46209   4.46655   4.47039   4.47387   4.48427
  Beta virt. eigenvalues --    4.48898   4.49267   4.50676   4.51749   4.52874
  Beta virt. eigenvalues --    4.54118   4.55403   4.56910   4.57830   4.58998
  Beta virt. eigenvalues --   96.22045  96.32645  96.35404  96.41205  96.44951
  Beta virt. eigenvalues --   96.45891  96.47714
          Condensed to atoms (all electrons):
               1          2          3          4          5          6
     1  Na  12.117521  -0.201936  -0.203117   0.096327   0.194994  -0.065161
     2  Na  -0.201936  11.940310  -0.751056   0.480936  -0.248653  -0.612671
     3  Na  -0.203117  -0.751056  13.360092  -0.102244  -0.538155   0.405911
     4  Na   0.096327   0.480936  -0.102244  10.730349   0.007134  -0.268764
     5  Na   0.194994  -0.248653  -0.538155   0.007134  11.119869   0.074159
     6  Na  -0.065161  -0.612671   0.405911  -0.268764   0.074159  10.932812
     7  Na  -0.916820   0.010376  -0.154801  -0.107513   0.265893   0.047975
               7
     1  Na  -0.916820
     2  Na   0.010376
     3  Na  -0.154801
     4  Na  -0.107513
     5  Na   0.265893
     6  Na   0.047975
     7  Na  11.973420
          Atomic-Atomic Spin Densities.
               1          2          3          4          5          6
     1  Na   1.164007  -0.299139  -0.153422   0.023783   0.323298   0.050999
     2  Na  -0.299139  -0.026749  -0.034300  -0.052254   0.052707   0.033798
     3  Na  -0.153422  -0.034300   0.888600  -0.055595  -0.429385   0.055274
     4  Na   0.023783  -0.052254  -0.055595  -0.061992   0.015866  -0.008391
     5  Na   0.323298   0.052707  -0.429385   0.015866   0.238756  -0.069974
     6  Na   0.050999   0.033798   0.055274  -0.008391  -0.069974   0.132432
     7  Na  -0.743731   0.360126   0.165143   0.048162  -0.122738  -0.080269
               7
     1  Na  -0.743731
     2  Na   0.360126
     3  Na   0.165143
     4  Na   0.048162
     5  Na  -0.122738
     6  Na  -0.080269
     7  Na   0.505029
 Mulliken charges and spin densities:
               1          2
     1  Na  -0.021807   0.365795
     2  Na   0.382693   0.034191
     3  Na  -1.016630   0.436315
     4  Na   0.163776  -0.090420
     5  Na   0.124759   0.008529
     6  Na   0.485740   0.113869
     7  Na  -0.118530   0.131721
 Sum of Mulliken charges =  -0.00000   1.00000
 Mulliken charges and spin densities with hydrogens summed into heavy atoms:
               1          2
     1  Na  -0.021807   0.365795
     2  Na   0.382693   0.034191
     3  Na  -1.016630   0.436315
     4  Na   0.163776  -0.090420
     5  Na   0.124759   0.008529
     6  Na   0.485740   0.113869
     7  Na  -0.118530   0.131721
 Electronic spatial extent (au):  <R**2>=           2601.4431
 Charge=             -0.0000 electrons
 Dipole moment (field-independent basis, Debye):
    X=              0.5060    Y=              0.6544    Z=              0.1824  Tot=              0.8471
 Quadrupole moment (field-independent basis, Debye-Ang):
   XX=            -55.7019   YY=            -72.8208   ZZ=            -67.3473
   XY=             -0.8367   XZ=             -0.3470   YZ=             -3.0426
 Traceless Quadrupole moment (field-independent basis, Debye-Ang):
   XX=              9.5881   YY=             -7.5308   ZZ=             -2.0573
   XY=             -0.8367   XZ=             -0.3470   YZ=             -3.0426
 Octapole moment (field-independent basis, Debye-Ang**2):
  XXX=             20.1565  YYY=             12.6558  ZZZ=             11.5693  XYY=             -7.4564
  XXY=              7.4867  XXZ=             -6.3792  XZZ=              6.8322  YZZ=             -0.8459
  YYZ=             -3.6808  XYZ=              2.1639
 Hexadecapole moment (field-independent basis, Debye-Ang**3):
 XXXX=          -2343.6379 YYYY=          -1130.6791 ZZZZ=           -909.0494 XXXY=             -5.0203
 XXXZ=            -43.1415 YYYX=             25.8947 YYYZ=            -24.8514 ZZZX=             -8.7696
 ZZZY=            -23.5075 XXYY=           -551.8835 XXZZ=           -525.2674 YYZZ=           -346.2421
 XXYZ=            -22.2456 YYXZ=             25.5598 ZZXY=            -41.2431
 N-N= 3.292260043743D+02 E-N=-3.387829059325D+03  KE= 1.132894035832D+03
                          Isotropic Fermi Contact Couplings
        Atom                 a.u.       MegaHertz       Gauss      10(-4) cm-1
     1  Na(23)             0.21096     249.56672      89.05161      83.24650
     2  Na(23)             0.12618     149.27153      53.26379      49.79162
     3  Na(23)             0.03379      39.97892      14.26547      13.33553
     4  Na(23)            -0.01556     -18.40720      -6.56815      -6.13998
     5  Na(23)             0.16373     193.70192      69.11766      64.61200
     6  Na(23)             0.08629     102.08303      36.42576      34.05123
     7  Na(23)             0.02514      29.74070      10.61222       9.92043
 --------------------------------------------------------
       Center         ----  Spin Dipole Couplings  ----
                      3XX-RR        3YY-RR        3ZZ-RR
 --------------------------------------------------------
     1   Atom        0.012907     -0.002887     -0.010020
     2   Atom        0.007562     -0.002858     -0.004705
     3   Atom       -0.018837     -0.002306      0.021143
     4   Atom       -0.000705     -0.002984      0.003689
     5   Atom        0.020287     -0.018389     -0.001898
     6   Atom        0.002218      0.000134     -0.002352
     7   Atom       -0.012605     -0.014754      0.027359
 --------------------------------------------------------
                        XY            XZ            YZ
 --------------------------------------------------------
     1   Atom       -0.016719      0.018251     -0.007148
     2   Atom        0.004866     -0.014661     -0.003479
     3   Atom        0.003151     -0.009619     -0.031502
     4   Atom        0.000282      0.002834     -0.002159
     5   Atom       -0.001270     -0.024651      0.003466
     6   Atom       -0.003162      0.006232     -0.002026
     7   Atom       -0.002378      0.012704     -0.004121
 --------------------------------------------------------


 ---------------------------------------------------------------------------------
              Anisotropic Spin Dipole Couplings in Principal Axis System
 ---------------------------------------------------------------------------------

       Atom             a.u.   MegaHertz   Gauss  10(-4) cm-1        Axes

              Baa    -0.0204    -2.887    -1.030    -0.963 -0.5399 -0.1793  0.8224
     1 Na(23) Bbb    -0.0119    -1.676    -0.598    -0.559  0.3018  0.8708  0.3881
              Bcc     0.0323     4.563     1.628     1.522  0.7857 -0.4577  0.4161
 
              Baa    -0.0145    -2.043    -0.729    -0.681  0.5510  0.0191  0.8343
     2 Na(23) Bbb    -0.0045    -0.634    -0.226    -0.212 -0.2307  0.9643  0.1303
              Bcc     0.0190     2.677     0.955     0.893  0.8020  0.2643 -0.5357
 
              Baa    -0.0257    -3.632    -1.296    -1.212  0.4645  0.6879  0.5577
     3 Na(23) Bbb    -0.0188    -2.655    -0.947    -0.885  0.8725 -0.4633 -0.1553
              Bcc     0.0445     6.287     2.243     2.097 -0.1516 -0.5587  0.8154
 
              Baa    -0.0041    -0.575    -0.205    -0.192 -0.3861  0.8426  0.3753
     4 Na(23) Bbb    -0.0014    -0.198    -0.071    -0.066  0.8317  0.4940 -0.2534
              Bcc     0.0055     0.773     0.276     0.258  0.3990 -0.2143  0.8916
 
              Baa    -0.0204    -2.886    -1.030    -0.963 -0.3191  0.7599 -0.5663
     5 Na(23) Bbb    -0.0159    -2.252    -0.804    -0.751  0.4439  0.6478  0.6191
              Bcc     0.0364     5.138     1.833     1.714  0.8373 -0.0538 -0.5440
 
              Baa    -0.0067    -0.947    -0.338    -0.316 -0.5784 -0.0259  0.8153
     6 Na(23) Bbb    -0.0016    -0.224    -0.080    -0.075  0.3272  0.9082  0.2610
              Bcc     0.0083     1.171     0.418     0.391  0.7472 -0.4178  0.5168
 
              Baa    -0.0170    -2.402    -0.857    -0.801  0.8273  0.5294 -0.1877
     7 Na(23) Bbb    -0.0145    -2.049    -0.731    -0.683 -0.4868  0.8425  0.2306
              Bcc     0.0315     4.451     1.588     1.485  0.2803 -0.0994  0.9548
 

 ---------------------------------------------------------------------------------

 No NMR shielding tensors so no spin-rotation constants.
 Leave Link  601 at Wed Nov 29 15:57:33 2023, MaxMem=  1879048192 cpu:               2.3 elap:               0.2
 (Enter /home/sekinelabo/g16/l701.exe)
 ... and contract with generalized density number  0.
 Compute integral first derivatives.
 Leave Link  701 at Wed Nov 29 15:57:33 2023, MaxMem=  1879048192 cpu:               1.6 elap:               0.1
 (Enter /home/sekinelabo/g16/l702.exe)
 L702 exits ... SP integral derivatives will be done elsewhere.
 Leave Link  702 at Wed Nov 29 15:57:33 2023, MaxMem=  1879048192 cpu:               0.4 elap:               0.0
 (Enter /home/sekinelabo/g16/l703.exe)
 Integral derivatives from FoFJK, PRISM(SPDF).
 Compute integral first derivatives, UseDBF=F ICtDFT=           0.
 Calling FoFJK, ICntrl=      2127 FMM=F ISym2X=0 I1Cent= 0 IOpClX= 1 NMat=1 NMatS=1 NMatT=0.
 FoFJK:  IHMeth= 1 ICntrl=    2127 DoSepK=F KAlg= 0 I1Cent=           0 FoldK=F
 IRaf=         0 NMat=       1 IRICut=       1 DoRegI=T DoRafI=F ISym2E= 0 IDoP0=0 IntGTp=1.
 FoFCou: FMM=F IPFlag=           0 FMFlag=      100000 FMFlg1=         800
         NFxFlg=           0 DoJE=F BraDBF=F KetDBF=F FulRan=T
         wScrn=  0.000000 ICntrl=      2127 IOpCl=  1 I1Cent=           0 NGrid=           0
         NMat0=    1 NMatS0=      1 NMatT0=    0 NMatD0=    1 NMtDS0=    0 NMtDT0=    0
 Symmetry not used in FoFCou.
 Leave Link  703 at Wed Nov 29 15:57:35 2023, MaxMem=  1879048192 cpu:              33.1 elap:               2.2
 (Enter /home/sekinelabo/g16/l716.exe)
 Dipole        = 1.99082811D-01 2.57449481D-01 7.17429589D-02
 ***** Axes restored to original set *****
 -------------------------------------------------------------------
 Center     Atomic                   Forces (Hartrees/Bohr)
 Number     Number              X              Y              Z
 -------------------------------------------------------------------
      1       11           0.000010637    0.001331576    0.000592087
      2       11          -0.000429208   -0.000137686    0.000285300
      3       11          -0.002925597   -0.000343533   -0.001681100
      4       11           0.002691139   -0.002725285   -0.000569283
      5       11           0.000398905   -0.000414720    0.000241294
      6       11          -0.001555084    0.001442111   -0.000343809
      7       11           0.001809208    0.000847536    0.001475510
 -------------------------------------------------------------------
 Cartesian Forces:  Max     0.002925597 RMS     0.001381498
 Z-matrix is all fixed cartesians, so copy forces.
 Force constants in Cartesian coordinates: 
                1             2             3             4             5 
      1  0.796334D-01
      2 -0.108986D-01  0.871580D-01
      3 -0.112119D-01  0.725467D-02  0.130229D+00
      4 -0.142809D-01 -0.340098D-02  0.445778D-02  0.760354D-01
      5  0.221869D-02 -0.189992D-01 -0.869677D-02  0.846802D-02  0.899366D-01
      6  0.113301D-01  0.208324D-01 -0.285620D-01 -0.742170D-02 -0.209495D-01
      7 -0.193229D-01  0.665091D-02  0.387877D-02 -0.273109D-01 -0.263599D-02
      8 -0.122013D-02 -0.214769D-01 -0.310999D-02 -0.946458D-02 -0.288791D-01
      9 -0.126804D-01 -0.641077D-02 -0.364610D-01  0.504622D-03  0.116742D-01
     10 -0.109987D-01  0.126379D-02  0.776669D-02 -0.212866D-01  0.814320D-02
     11  0.154487D-02 -0.850443D-02 -0.690798D-02 -0.176271D-01 -0.137682D-01
     12 -0.189215D-01  0.657170D-02 -0.201919D-01  0.922669D-02  0.360808D-02
     13 -0.142780D-01  0.663122D-02  0.653082D-03  0.702487D-02 -0.540568D-03
     14 -0.422594D-02 -0.284124D-01  0.170118D-01 -0.665242D-03 -0.380397D-02
     15  0.526545D-02 -0.206702D-01 -0.277217D-01  0.298050D-03  0.525974D-02
     16  0.321169D-02 -0.581142D-03  0.485493D-03  0.526696D-02 -0.172487D-02
     17  0.257432D-02  0.102971D-02 -0.578532D-02  0.281185D-02 -0.911364D-03
     18  0.255197D-02 -0.515906D-02  0.445583D-02  0.164603D-03 -0.282245D-03
     19 -0.239646D-01  0.334762D-03 -0.602988D-02 -0.254488D-01 -0.139285D-01
     20  0.100068D-01 -0.107947D-01  0.233629D-03  0.198780D-01 -0.235748D-01
     21  0.236663D-01 -0.241872D-02 -0.217486D-01 -0.723004D-02  0.938646D-02
                6             7             8             9            10 
      6  0.552864D-01
      7 -0.928264D-02  0.146794D+00
      8 -0.173500D-01  0.675448D-02  0.132303D+00
      9 -0.215276D-01  0.178536D-01  0.617499D-02  0.159534D+00
     10 -0.225621D-02 -0.168845D-01 -0.120439D-01 -0.502719D-02  0.469718D-01
     11  0.558076D-02  0.705887D-02 -0.200873D-01  0.361272D-02 -0.418389D-02
     12 -0.476597D-02  0.129088D-01 -0.883057D-02 -0.228017D-01  0.121032D-02
     13  0.340692D-03 -0.193670D-01  0.714646D-02 -0.109457D-01  0.179736D-02
     14  0.554194D-02 -0.700464D-02 -0.214279D-01 -0.548215D-02  0.255197D-03
     15  0.559376D-02  0.272420D-02  0.117302D-01 -0.346129D-01  0.407207D-03
     16 -0.170615D-03 -0.326184D-01  0.337042D-02  0.465162D-02  0.373670D-02
     17 -0.316543D-03 -0.497302D-02 -0.195108D-01 -0.595849D-02  0.207668D-02
     18  0.205138D-02 -0.752206D-02  0.149856D-01 -0.242413D-01 -0.739890D-03
     19  0.746034D-02 -0.312905D-01  0.545720D-02  0.564350D-02 -0.333604D-02
     20  0.666095D-02 -0.585062D-02 -0.209209D-01 -0.361052D-02  0.448887D-02
     21 -0.807603D-02 -0.205607D-01 -0.360015D-02 -0.198896D-01 -0.136093D-02
               11            12            13            14            15 
     11  0.349278D-01
     12 -0.306537D-02  0.318410D-01
     13  0.541816D-02 -0.210707D-02  0.509292D-01
     14 -0.350956D-03  0.276224D-02 -0.202817D-03  0.809535D-01
     15  0.259253D-02  0.448991D-02 -0.112282D-01 -0.156061D-01  0.884614D-01
     16  0.356961D-02 -0.102725D-02 -0.658854D-02  0.381280D-02  0.460970D-02
     17  0.206818D-02 -0.947720D-03 -0.162365D-02 -0.145884D-01  0.133038D-01
     18 -0.173107D-02  0.416672D-02  0.978658D-02 -0.989747D-02 -0.263306D-01
     19  0.421948D-02 -0.128996D-02 -0.195178D-01  0.803064D-02 -0.207642D-02
     20  0.571486D-02 -0.983633D-04 -0.168288D-01 -0.123700D-01  0.339011D-02
     21 -0.815957D-04  0.726198D-02  0.135006D-01  0.566976D-02 -0.987987D-02
               16            17            18            19            20 
     16  0.250189D-01
     17 -0.211783D-02  0.365209D-01
     18 -0.439050D-02  0.439627D-02  0.384175D-01
     19  0.197263D-02  0.125165D-02  0.149294D-03  0.101585D+00
     20 -0.632899D-02 -0.460828D-02 -0.231199D-02 -0.536526D-02  0.665538D-01
     21 -0.415845D-02 -0.469194D-02  0.148045D-02 -0.385688D-02 -0.426381D-02
               21 
     21  0.508517D-01
 Leave Link  716 at Wed Nov 29 15:57:35 2023, MaxMem=  1879048192 cpu:               0.4 elap:               0.0
 (Enter /home/sekinelabo/g16/l103.exe)

 GradGradGradGradGradGradGradGradGradGradGradGradGradGradGradGradGradGrad
 Berny optimization.
 Search for a local minimum.
 Step number   1 out of a maximum of    2
 All quantities printed in internal units (Hartrees-Bohrs-Radians)
 Second derivative matrix not updated -- first step.
 ITU=  0
     Eigenvalues ---    0.03001   0.03596   0.04878   0.05408   0.06483
     Eigenvalues ---    0.07154   0.09270   0.11008   0.11319   0.12231
     Eigenvalues ---    0.14279   0.16122   0.16561   0.17794   0.20729
 Angle between quadratic step and forces=  35.85 degrees.
 Linear search not attempted -- first point.
 B after Tr=     0.000000    0.000000    0.000000
         Rot=    1.000000    0.000000    0.000000    0.000000 Ang=   0.00 deg.
 Variable       Old X    -DE/DX   Delta X   Delta X   Delta X     New X
                                 (Linear)    (Quad)   (Total)
    X1       28.17922   0.00001   0.00000   0.00104   0.00104  28.18026
    Y1       30.85148   0.00133   0.00000   0.01231   0.01231  30.86379
    Z1       32.72099   0.00059   0.00000   0.00319   0.00319  32.72418
    X2       29.91701  -0.00043   0.00000  -0.00370  -0.00370  29.91331
    Y2       34.29588  -0.00014   0.00000  -0.00853  -0.00853  34.28735
    Z2       27.52896   0.00029   0.00000   0.00191   0.00191  27.53088
    X3       27.89047  -0.00293   0.00000  -0.01314  -0.01314  27.87733
    Y3       28.15541  -0.00034   0.00000   0.00254   0.00254  28.15794
    Z3       26.82882  -0.00168   0.00000   0.00004   0.00004  26.82886
    X4       23.02064   0.00269   0.00000   0.04865   0.04865  23.06929
    Y4       33.72934  -0.00273   0.00000  -0.07774  -0.07774  33.65160
    Z4       28.29185  -0.00057   0.00000  -0.02278  -0.02278  28.26906
    X5       29.28773   0.00040   0.00000   0.01315   0.01315  29.30088
    Y5       24.49406  -0.00041   0.00000   0.00728   0.00728  24.50135
    Z5       31.96264   0.00024   0.00000   0.00764   0.00764  31.97028
    X6       31.07163  -0.00156   0.00000  -0.06742  -0.06742  31.00422
    Y6       22.19086   0.00144   0.00000   0.04450   0.04450  22.23537
    Z6       26.27796  -0.00034   0.00000  -0.01964  -0.01964  26.25832
    X7       33.63807   0.00181   0.00000   0.02142   0.02142  33.65949
    Y7       29.28773   0.00085   0.00000   0.01964   0.01964  29.30737
    Z7       29.39356   0.00148   0.00000   0.02963   0.02963  29.42319
         Item               Value     Threshold  Converged?
 Maximum Force            0.002926     0.000450     NO 
 RMS     Force            0.001381     0.000300     NO 
 Maximum Displacement     0.077742     0.001800     NO 
 RMS     Displacement     0.029504     0.001200     NO 
 Predicted change in Energy=-3.469087D-04
 GradGradGradGradGradGradGradGradGradGradGradGradGradGradGradGradGradGrad

 Leave Link  103 at Wed Nov 29 15:57:35 2023, MaxMem=  1879048192 cpu:               0.2 elap:               0.0
 (Enter /home/sekinelabo/g16/l9999.exe)
 1\1\GINC-SEKINELABO-XA7R-R37\Force\UB3LYP\6-311+G(d)\Na7(2)\SEKINELABO
 \29-Nov-2023\0\\#P B3LYP/6-311+g(d) force\\DPGEN\\0,2\Na,14.9118,16.32
 59,17.3152\Na,15.8314,18.1486,14.5677\Na,14.759,14.8992,14.1972\Na,12.
 182,17.8488,14.9714\Na,15.4984,12.9617,16.9139\Na,16.4424,11.7429,13.9
 057\Na,17.8005,15.4984,15.5544\\Version=ES64L-G16RevB.01\State=2-A\HF=
 -1136.1279998\S2=0.767831\S2-1=0.\S2A=0.750189\RMSD=8.462e-09\RMSF=1.3
 81e-03\Dipole=0.3144601,-0.0680091,0.0868959\Quadrupole=-3.2730908,5.1
 737591,-1.9006683,-4.5255027,-2.5278512,-0.6368256\PG=C01 [X(Na7)]\\@


     ON THE SURVIVAL OF THE FITTEST -
 "STRONG REPRESENTATIVES FROM EACH PAST ERA THRIVE TODAY,
 SUCH AS PROGRAMMING IN THE THIRTY YEAR OLD LANGUAGE KNOWN
 AS FORTRAN, AND EVEN IN THE ANCIENT SCRIPT KNOWN AS DIRECT
 MACHINE CODE. SOME PEOPLE MIGHT LOOK ON SUCH RELICS AS LIVING
 FOSSILS; OTHERS WOULD POINT OUT THAT EVEN A VERY OLD SPECIES
 MIGHT STILL BE FILLING A PARTICULAR ECOLOGICAL NICHE."
     -- ALAN KAY, SCI.AM. SEPTEMBER 1984
 Job cpu time:       0 days  0 hours  4 minutes 36.4 seconds.
 Elapsed time:       0 days  0 hours  0 minutes 23.9 seconds.
 File lengths (MBytes):  RWF=     32 Int=      0 D2E=      0 Chk=      4 Scr=      1
 Normal termination of Gaussian 16 at Wed Nov 29 15:57:35 2023.
