ITEM: TIMESTEP
2360
ITEM: NUMBER OF ATOMS
7
ITEM: BOX BOUNDS xy xz yz ff ff ff
0.0000000000000000e+00 2.6401496356799999e+01 0.0000000000000000e+00
0.0000000000000000e+00 2.6401496356799999e+01 0.0000000000000000e+00
0.0000000000000000e+00 2.6401496356799999e+01 0.0000000000000000e+00
ITEM: ATOMS id type x y z fx fy fz
2 1 15.4995 11.1473 11.3422 -0.0516716 -0.018353 0.0513069
4 1 12.5452 13.3273 11.3652 0.0534443 -0.0551057 -0.0822067
7 1 10.485 10.9853 14.7896 0.145861 0.204956 -0.076977
3 1 16.1123 14.0677 12.9068 0.0494679 0.0315737 0.000917714
5 1 10.6559 14.7648 13.294 -0.159464 -0.130876 0.109779
1 1 13.5569 16.0724 13.9948 0.0556183 0.0120291 0.0375909
6 1 13.5504 12.0405 14.7126 -0.0932567 -0.044224 -0.040411
