 Set GAUSS_MDEF to "14GB".
 Entering Gaussian System, Link 0=g16
 Initial command:
 /home/sekinelabo/g16/l1.exe "/home/sekinelabo/g16temp/Gau-1091283.inp" -scrdir="/home/sekinelabo/g16temp/"
 Entering Link 1 = /home/sekinelabo/g16/l1.exe PID=   1091285.
  
 Copyright (c) 1988-2017, Gaussian, Inc.  All Rights Reserved.
  
 This is part of the Gaussian(R) 16 program.  It is based on
 the Gaussian(R) 09 system (copyright 2009, Gaussian, Inc.),
 the Gaussian(R) 03 system (copyright 2003, Gaussian, Inc.),
 the Gaussian(R) 98 system (copyright 1998, Gaussian, Inc.),
 the Gaussian(R) 94 system (copyright 1995, Gaussian, Inc.),
 the Gaussian 92(TM) system (copyright 1992, Gaussian, Inc.),
 the Gaussian 90(TM) system (copyright 1990, Gaussian, Inc.),
 the Gaussian 88(TM) system (copyright 1988, Gaussian, Inc.),
 the Gaussian 86(TM) system (copyright 1986, Carnegie Mellon
 University), and the Gaussian 82(TM) system (copyright 1983,
 Carnegie Mellon University). Gaussian is a federally registered
 trademark of Gaussian, Inc.
  
 This software contains proprietary and confidential information,
 including trade secrets, belonging to Gaussian, Inc.
  
 This software is provided under written license and may be
 used, copied, transmitted, or stored only in accord with that
 written license.
  
 The following legend is applicable only to US Government
 contracts under FAR:
  
                    RESTRICTED RIGHTS LEGEND
  
 Use, reproduction and disclosure by the US Government is
 subject to restrictions as set forth in subparagraphs (a)
 and (c) of the Commercial Computer Software - Restricted
 Rights clause in FAR 52.227-19.
  
 Gaussian, Inc.
 340 Quinnipiac St., Bldg. 40, Wallingford CT 06492
  
  
 ---------------------------------------------------------------
 Warning -- This program may not be used in any manner that
 competes with the business of Gaussian, Inc. or will provide
 assistance to any competitor of Gaussian, Inc.  The licensee
 of this program is prohibited from giving any competitor of
 Gaussian, Inc. access to this program.  By using this program,
 the user acknowledges that Gaussian, Inc. is engaged in the
 business of creating and licensing software in the field of
 computational chemistry and represents and warrants to the
 licensee that it is not a competitor of Gaussian, Inc. and that
 it will not use this program in any manner prohibited above.
 ---------------------------------------------------------------
  

 Cite this work as:
 Gaussian 16, Revision B.01,
 M. J. Frisch, G. W. Trucks, H. B. Schlegel, G. E. Scuseria, 
 M. A. Robb, J. R. Cheeseman, G. Scalmani, V. Barone, 
 G. A. Petersson, H. Nakatsuji, X. Li, M. Caricato, A. V. Marenich, 
 J. Bloino, B. G. Janesko, R. Gomperts, B. Mennucci, H. P. Hratchian, 
 J. V. Ortiz, A. F. Izmaylov, J. L. Sonnenberg, D. Williams-Young, 
 F. Ding, F. Lipparini, F. Egidi, J. Goings, B. Peng, A. Petrone, 
 T. Henderson, D. Ranasinghe, V. G. Zakrzewski, J. Gao, N. Rega, 
 G. Zheng, W. Liang, M. Hada, M. Ehara, K. Toyota, R. Fukuda, 
 J. Hasegawa, M. Ishida, T. Nakajima, Y. Honda, O. Kitao, H. Nakai, 
 T. Vreven, K. Throssell, J. A. Montgomery, Jr., J. E. Peralta, 
 F. Ogliaro, M. J. Bearpark, J. J. Heyd, E. N. Brothers, K. N. Kudin, 
 V. N. Staroverov, T. A. Keith, R. Kobayashi, J. Normand, 
 K. Raghavachari, A. P. Rendell, J. C. Burant, S. S. Iyengar, 
 J. Tomasi, M. Cossi, J. M. Millam, M. Klene, C. Adamo, R. Cammi, 
 J. W. Ochterski, R. L. Martin, K. Morokuma, O. Farkas, 
 J. B. Foresman, and D. J. Fox, Gaussian, Inc., Wallingford CT, 2016.
 
 ******************************************
 Gaussian 16:  ES64L-G16RevB.01 20-Dec-2017
                 4-Dec-2023 
 ******************************************
 %nproc=15
 Will use up to   15 processors via shared memory.
 -------------------------
 #P B3LYP/6-311+g(d) force
 -------------------------
 1/10=7,30=1,38=1/1,3;
 2/12=2,17=6,18=5,40=1/2;
 3/5=4,6=6,7=11,11=2,25=1,30=1,71=1,74=-5/1,2,3;
 4//1;
 5/5=2,38=5/2;
 6/7=2,8=2,9=2,10=2,28=1/1;
 7/29=1/1,2,3,16;
 1/10=7,30=1/3;
 99//99;
 Leave Link    1 at Mon Dec  4 00:26:47 2023, MaxMem=           0 cpu:               0.3 elap:               0.0
 (Enter /home/sekinelabo/g16/l101.exe)
 -----
 DPGEN
 -----
 Symbolic Z-matrix:
 Charge =  0 Multiplicity = 2
 Na                    9.80829   8.72563   10.5104 
 Na                    12.7024   13.6464   10.3295 
 Na                    8.66204   10.4567   13.1706 
 Na                    13.0364   7.94401   8.90887 
 Na                    12.3106   15.1389   13.6468 
 Na                    14.805    11.0676   8.83445 
 Na                    9.36933   13.7146   15.2935 
 
 ITRead=  0  0  0  0  0  0  0
 MicOpt= -1 -1 -1 -1 -1 -1 -1
 NAtoms=      7 NQM=        7 NQMF=       0 NMMI=      0 NMMIF=      0
                NMic=       0 NMicF=      0.
                    Isotopes and Nuclear Properties:
 (Nuclear quadrupole moments (NQMom) in fm**2, nuclear magnetic moments (NMagM)
  in nuclear magnetons)

  Atom         1           2           3           4           5           6           7
 IAtWgt=          23          23          23          23          23          23          23
 AtmWgt=  22.9897697  22.9897697  22.9897697  22.9897697  22.9897697  22.9897697  22.9897697
 NucSpn=           3           3           3           3           3           3           3
 AtZEff=  -0.0000000  -0.0000000  -0.0000000  -0.0000000  -0.0000000  -0.0000000  -0.0000000
 NQMom=   10.4000000  10.4000000  10.4000000  10.4000000  10.4000000  10.4000000  10.4000000
 NMagM=    2.2175200   2.2175200   2.2175200   2.2175200   2.2175200   2.2175200   2.2175200
 AtZNuc=  11.0000000  11.0000000  11.0000000  11.0000000  11.0000000  11.0000000  11.0000000
 Leave Link  101 at Mon Dec  4 00:26:47 2023, MaxMem=  1879048192 cpu:               2.5 elap:               0.2
 (Enter /home/sekinelabo/g16/l103.exe)

 GradGradGradGradGradGradGradGradGradGradGradGradGradGradGradGradGradGrad
 Berny optimization.
 Initialization pass.
 Trust Radius=3.00D-01 FncErr=1.00D-07 GrdErr=1.00D-07 EigMax=2.50D+02 EigMin=1.00D-04
 Number of steps in this run=      2 maximum allowed number of steps=      2.
 GradGradGradGradGradGradGradGradGradGradGradGradGradGradGradGradGradGrad

 Leave Link  103 at Mon Dec  4 00:26:47 2023, MaxMem=  1879048192 cpu:               0.2 elap:               0.0
 (Enter /home/sekinelabo/g16/l202.exe)
                          Input orientation:                          
 ---------------------------------------------------------------------
 Center     Atomic      Atomic             Coordinates (Angstroms)
 Number     Number       Type             X           Y           Z
 ---------------------------------------------------------------------
      1         11           0        9.808290    8.725630   10.510400
      2         11           0       12.702400   13.646400   10.329500
      3         11           0        8.662040   10.456700   13.170600
      4         11           0       13.036400    7.944010    8.908870
      5         11           0       12.310600   15.138900   13.646800
      6         11           0       14.805000   11.067600    8.834450
      7         11           0        9.369330   13.714600   15.293500
 ---------------------------------------------------------------------
                    Distance matrix (angstroms):
                    1          2          3          4          5
     1  Na   0.000000
     2  Na   5.711618   0.000000
     3  Na   3.374486   5.879672   0.000000
     4  Na   3.687346   5.886170   6.603861   0.000000
     5  Na   7.564958   3.658626   5.954977   8.645300   0.000000
     6  Na   5.767213   3.647782   7.543961   3.590306   6.779102
     7  Na   6.925356   5.979574   3.952325   9.354711   3.659415
                    6          7
     6  Na   0.000000
     7  Na   8.847172   0.000000
 Stoichiometry    Na7(2)
 Framework group  C1[X(Na7)]
 Deg. of freedom    15
 Full point group                 C1      NOp   1
 Largest Abelian subgroup         C1      NOp   1
 Largest concise Abelian subgroup C1      NOp   1
                         Standard orientation:                         
 ---------------------------------------------------------------------
 Center     Atomic      Atomic             Coordinates (Angstroms)
 Number     Number       Type             X           Y           Z
 ---------------------------------------------------------------------
      1         11           0        1.766859    2.909378    0.506647
      2         11           0       -0.004919   -2.494114    1.041117
      3         11           0       -1.577577    3.091957    0.096074
      4         11           0        4.575762    0.805615   -0.625062
      5         11           0       -3.381438   -2.564403   -0.365910
      6         11           0        3.397031   -2.567389   -0.273294
      7         11           0       -4.775718    0.818956   -0.379572
 ---------------------------------------------------------------------
 Rotational constants (GHZ):           0.5384526           0.2953770           0.1979321
 Leave Link  202 at Mon Dec  4 00:26:47 2023, MaxMem=  1879048192 cpu:               0.0 elap:               0.0
 (Enter /home/sekinelabo/g16/l301.exe)
 Standard basis: 6-311+G(d) (5D, 7F)
 Ernie: Thresh=  0.10000D-02 Tol=  0.10000D-05 Strict=F.
 There are   217 symmetry adapted cartesian basis functions of A   symmetry.
 There are   210 symmetry adapted basis functions of A   symmetry.
   210 basis functions,   350 primitive gaussians,   217 cartesian basis functions
    39 alpha electrons       38 beta electrons
       nuclear repulsion energy       255.2958156096 Hartrees.
 IExCor=  402 DFT=T Ex+Corr=B3LYP ExCW=0 ScaHFX=  0.200000
 ScaDFX=  0.800000  0.720000  1.000000  0.810000 ScalE2=  1.000000  1.000000
 IRadAn=      5 IRanWt=     -1 IRanGd=            0 ICorTp=0 IEmpDi=  4
 NAtoms=    7 NActive=    7 NUniq=    7 SFac= 1.00D+00 NAtFMM=   60 NAOKFM=F Big=F
 Integral buffers will be    131072 words long.
 Raffenetti 2 integral format.
 Two-electron integral symmetry is turned on.
 Leave Link  301 at Mon Dec  4 00:26:48 2023, MaxMem=  1879048192 cpu:               0.5 elap:               0.0
 (Enter /home/sekinelabo/g16/l302.exe)
 NPDir=0 NMtPBC=     1 NCelOv=     1 NCel=       1 NClECP=     1 NCelD=      1
         NCelK=      1 NCelE2=     1 NClLst=     1 CellRange=     0.0.
 One-electron integrals computed using PRISM.
 One-electron integral symmetry used in STVInt
 NBasis=   210 RedAO= T EigKep=  1.61D-05  NBF=   210
 NBsUse=   210 1.00D-06 EigRej= -1.00D+00 NBFU=   210
 Precomputing XC quadrature grid using
 IXCGrd= 4 IRadAn=           5 IRanWt=          -1 IRanGd=           0 AccXCQ= 0.00D+00.
 Generated NRdTot=       0 NPtTot=           0 NUsed=           0 NTot=          32
 NSgBfM=   203   203   203   203   203 MxSgAt=     7 MxSgA2=     7.
 Leave Link  302 at Mon Dec  4 00:26:48 2023, MaxMem=  1879048192 cpu:               2.0 elap:               0.1
 (Enter /home/sekinelabo/g16/l303.exe)
 DipDrv:  MaxL=1.
 Leave Link  303 at Mon Dec  4 00:26:48 2023, MaxMem=  1879048192 cpu:               0.5 elap:               0.0
 (Enter /home/sekinelabo/g16/l401.exe)
 ExpMin= 7.60D-03 ExpMax= 3.62D+04 ExpMxC= 1.21D+03 IAcc=3 IRadAn=         5 AccDes= 0.00D+00
 Harris functional with IExCor=  402 and IRadAn=       5 diagonalized for initial guess.
 HarFok:  IExCor=  402 AccDes= 0.00D+00 IRadAn=         5 IDoV= 1 UseB2=F ITyADJ=14
 ICtDFT=  3500011 ScaDFX=  1.000000  1.000000  1.000000  1.000000
 FoFCou: FMM=F IPFlag=           0 FMFlag=      100000 FMFlg1=           0
         NFxFlg=           0 DoJE=T BraDBF=F KetDBF=T FulRan=T
         wScrn=  0.000000 ICntrl=       500 IOpCl=  0 I1Cent=   200000004 NGrid=           0
         NMat0=    1 NMatS0=      1 NMatT0=    0 NMatD0=    1 NMtDS0=    0 NMtDT0=    0
 Petite list used in FoFCou.
 Harris En= -1135.87589491556    
 JPrj=0 DoOrth=F DoCkMO=F.
 Initial guess <Sx>= 0.0000 <Sy>= 0.0000 <Sz>= 0.5000 <S**2>= 0.7500 S= 0.5000
 Leave Link  401 at Mon Dec  4 00:26:48 2023, MaxMem=  1879048192 cpu:               4.1 elap:               0.3
 (Enter /home/sekinelabo/g16/l502.exe)
 Keep R1 and R2 ints in memory in canonical form, NReq=506573279.
 FoFCou: FMM=F IPFlag=           0 FMFlag=           0 FMFlg1=           0
         NFxFlg=           0 DoJE=F BraDBF=F KetDBF=F FulRan=T
         wScrn=  0.000000 ICntrl=       600 IOpCl=  0 I1Cent=           0 NGrid=           0
         NMat0=    1 NMatS0=  22155 NMatT0=    0 NMatD0=    1 NMtDS0=    0 NMtDT0=    0
 Symmetry not used in FoFCou.
 Two-electron integral symmetry not used.
 UHF open shell SCF:
 Using DIIS extrapolation, IDIIS=  1040.
 NGot=  1879048192 LenX=  1388082621 LenY=  1388035091
 Requested convergence on RMS density matrix=1.00D-08 within 128 cycles.
 Requested convergence on MAX density matrix=1.00D-06.
 Requested convergence on             energy=1.00D-06.
 No special actions if energy rises.

 Cycle   1  Pass 1  IDiag  1:
 E= -1136.08176506910    
 DIIS: error= 1.08D-02 at cycle   1 NSaved=   1.
 NSaved= 1 IEnMin= 1 EnMin= -1136.08176506910     IErMin= 1 ErrMin= 1.08D-02
 ErrMax= 1.08D-02  0.00D+00 EMaxC= 1.00D-01 BMatC= 1.83D-01 BMatP= 1.83D-01
 IDIUse=3 WtCom= 8.92D-01 WtEn= 1.08D-01
 Coeff-Com:  0.100D+01
 Coeff-En:   0.100D+01
 Coeff:      0.100D+01
 Gap=     0.026 Goal=   None    Shift=    0.000
 Gap=     0.040 Goal=   None    Shift=    0.000
 GapD=    0.026 DampG=0.250 DampE=0.500 DampFc=0.2500 IDamp=-1.
 Damping current iteration by 2.50D-01
 RMSDP=4.01D-03 MaxDP=2.62D-01              OVMax= 1.36D-01

 Cycle   2  Pass 1  IDiag  1:
 E= -1136.08938523876     Delta-E=       -0.007620169663 Rises=F Damp=T
 DIIS: error= 7.43D-03 at cycle   2 NSaved=   2.
 NSaved= 2 IEnMin= 2 EnMin= -1136.08938523876     IErMin= 2 ErrMin= 7.43D-03
 ErrMax= 7.43D-03  0.00D+00 EMaxC= 1.00D-01 BMatC= 7.06D-02 BMatP= 1.83D-01
 IDIUse=3 WtCom= 9.26D-01 WtEn= 7.43D-02
 Coeff-Com: -0.129D+01 0.229D+01
 Coeff-En:   0.000D+00 0.100D+01
 Coeff:     -0.120D+01 0.220D+01
 Gap=     0.028 Goal=   None    Shift=    0.000
 Gap=     0.046 Goal=   None    Shift=    0.000
 RMSDP=4.16D-03 MaxDP=3.03D-01 DE=-7.62D-03 OVMax= 7.63D-02

 Cycle   3  Pass 1  IDiag  1:
 E= -1136.10478408614     Delta-E=       -0.015398847382 Rises=F Damp=F
 DIIS: error= 9.71D-04 at cycle   3 NSaved=   3.
 NSaved= 3 IEnMin= 3 EnMin= -1136.10478408614     IErMin= 3 ErrMin= 9.71D-04
 ErrMax= 9.71D-04  0.00D+00 EMaxC= 1.00D-01 BMatC= 3.51D-04 BMatP= 7.06D-02
 IDIUse=3 WtCom= 9.90D-01 WtEn= 9.71D-03
 Coeff-Com: -0.132D-01 0.310D-01 0.982D+00
 Coeff-En:   0.000D+00 0.000D+00 0.100D+01
 Coeff:     -0.131D-01 0.307D-01 0.982D+00
 Gap=     0.028 Goal=   None    Shift=    0.000
 Gap=     0.042 Goal=   None    Shift=    0.000
 RMSDP=9.98D-04 MaxDP=5.71D-02 DE=-1.54D-02 OVMax= 8.70D-02

 Cycle   4  Pass 1  IDiag  1:
 E= -1136.10348380403     Delta-E=        0.001300282114 Rises=F Damp=F
 DIIS: error= 2.56D-03 at cycle   4 NSaved=   4.
 NSaved= 4 IEnMin= 3 EnMin= -1136.10478408614     IErMin= 3 ErrMin= 9.71D-04
 ErrMax= 2.56D-03  0.00D+00 EMaxC= 1.00D-01 BMatC= 1.13D-03 BMatP= 3.51D-04
 IDIUse=3 WtCom= 1.65D-01 WtEn= 8.35D-01
 Coeff-Com:  0.110D-01-0.147D-01 0.654D+00 0.349D+00
 Coeff-En:   0.000D+00 0.000D+00 0.742D+00 0.258D+00
 Coeff:      0.181D-02-0.242D-02 0.727D+00 0.273D+00
 Gap=     0.028 Goal=   None    Shift=    0.000
 Gap=     0.043 Goal=   None    Shift=    0.000
 RMSDP=5.33D-04 MaxDP=2.63D-02 DE= 1.30D-03 OVMax= 5.54D-02

 Cycle   5  Pass 1  IDiag  1:
 E= -1136.10530210545     Delta-E=       -0.001818301417 Rises=F Damp=F
 DIIS: error= 3.78D-04 at cycle   5 NSaved=   5.
 NSaved= 5 IEnMin= 5 EnMin= -1136.10530210545     IErMin= 5 ErrMin= 3.78D-04
 ErrMax= 3.78D-04  0.00D+00 EMaxC= 1.00D-01 BMatC= 5.03D-05 BMatP= 3.51D-04
 IDIUse=3 WtCom= 9.96D-01 WtEn= 3.78D-03
 Coeff-Com:  0.765D-03-0.197D-02 0.330D+00 0.854D-01 0.586D+00
 Coeff-En:   0.000D+00 0.000D+00 0.000D+00 0.000D+00 0.100D+01
 Coeff:      0.762D-03-0.196D-02 0.328D+00 0.851D-01 0.588D+00
 Gap=     0.028 Goal=   None    Shift=    0.000
 Gap=     0.043 Goal=   None    Shift=    0.000
 RMSDP=1.30D-04 MaxDP=5.88D-03 DE=-1.82D-03 OVMax= 9.13D-03

 Cycle   6  Pass 1  IDiag  1:
 E= -1136.10535774760     Delta-E=       -0.000055642150 Rises=F Damp=F
 DIIS: error= 1.25D-04 at cycle   6 NSaved=   6.
 NSaved= 6 IEnMin= 6 EnMin= -1136.10535774760     IErMin= 6 ErrMin= 1.25D-04
 ErrMax= 1.25D-04  0.00D+00 EMaxC= 1.00D-01 BMatC= 4.70D-06 BMatP= 5.03D-05
 IDIUse=3 WtCom= 9.99D-01 WtEn= 1.25D-03
 Coeff-Com: -0.533D-02 0.671D-02-0.117D+00-0.977D-01 0.179D+00 0.103D+01
 Coeff-En:   0.000D+00 0.000D+00 0.000D+00 0.000D+00 0.000D+00 0.100D+01
 Coeff:     -0.532D-02 0.670D-02-0.117D+00-0.976D-01 0.179D+00 0.103D+01
 Gap=     0.029 Goal=   None    Shift=    0.000
 Gap=     0.043 Goal=   None    Shift=    0.000
 RMSDP=1.01D-04 MaxDP=4.66D-03 DE=-5.56D-05 OVMax= 8.55D-03

 Cycle   7  Pass 1  IDiag  1:
 E= -1136.10537355812     Delta-E=       -0.000015810527 Rises=F Damp=F
 DIIS: error= 9.79D-05 at cycle   7 NSaved=   7.
 NSaved= 7 IEnMin= 7 EnMin= -1136.10537355812     IErMin= 7 ErrMin= 9.79D-05
 ErrMax= 9.79D-05  0.00D+00 EMaxC= 1.00D-01 BMatC= 1.92D-06 BMatP= 4.70D-06
 IDIUse=1 WtCom= 1.00D+00 WtEn= 0.00D+00
 Coeff-Com: -0.277D-02 0.359D-02-0.115D+00-0.683D-01 0.240D-01 0.587D+00
 Coeff-Com:  0.571D+00
 Coeff:     -0.277D-02 0.359D-02-0.115D+00-0.683D-01 0.240D-01 0.587D+00
 Coeff:      0.571D+00
 Gap=     0.029 Goal=   None    Shift=    0.000
 Gap=     0.043 Goal=   None    Shift=    0.000
 RMSDP=4.58D-05 MaxDP=2.37D-03 DE=-1.58D-05 OVMax= 3.73D-03

 Cycle   8  Pass 1  IDiag  1:
 E= -1136.10537804571     Delta-E=       -0.000004487582 Rises=F Damp=F
 DIIS: error= 5.68D-05 at cycle   8 NSaved=   8.
 NSaved= 8 IEnMin= 8 EnMin= -1136.10537804571     IErMin= 8 ErrMin= 5.68D-05
 ErrMax= 5.68D-05  0.00D+00 EMaxC= 1.00D-01 BMatC= 4.77D-07 BMatP= 1.92D-06
 IDIUse=1 WtCom= 1.00D+00 WtEn= 0.00D+00
 Coeff-Com:  0.100D-02-0.120D-02-0.294D-01-0.411D-02-0.617D-01-0.542D-01
 Coeff-Com:  0.338D+00 0.811D+00
 Coeff:      0.100D-02-0.120D-02-0.294D-01-0.411D-02-0.617D-01-0.542D-01
 Coeff:      0.338D+00 0.811D+00
 Gap=     0.029 Goal=   None    Shift=    0.000
 Gap=     0.043 Goal=   None    Shift=    0.000
 RMSDP=3.38D-05 MaxDP=1.35D-03 DE=-4.49D-06 OVMax= 2.76D-03

 Cycle   9  Pass 1  IDiag  1:
 E= -1136.10538007486     Delta-E=       -0.000002029151 Rises=F Damp=F
 DIIS: error= 1.93D-05 at cycle   9 NSaved=   9.
 NSaved= 9 IEnMin= 9 EnMin= -1136.10538007486     IErMin= 9 ErrMin= 1.93D-05
 ErrMax= 1.93D-05  0.00D+00 EMaxC= 1.00D-01 BMatC= 6.90D-08 BMatP= 4.77D-07
 IDIUse=1 WtCom= 1.00D+00 WtEn= 0.00D+00
 Coeff-Com:  0.886D-03-0.113D-02 0.567D-02 0.666D-02-0.231D-01-0.776D-01
 Coeff-Com:  0.364D-02 0.223D+00 0.862D+00
 Coeff:      0.886D-03-0.113D-02 0.567D-02 0.666D-02-0.231D-01-0.776D-01
 Coeff:      0.364D-02 0.223D+00 0.862D+00
 Gap=     0.029 Goal=   None    Shift=    0.000
 Gap=     0.043 Goal=   None    Shift=    0.000
 RMSDP=1.51D-05 MaxDP=5.60D-04 DE=-2.03D-06 OVMax= 2.10D-03

 Cycle  10  Pass 1  IDiag  1:
 E= -1136.10538069209     Delta-E=       -0.000000617231 Rises=F Damp=F
 DIIS: error= 1.50D-05 at cycle  10 NSaved=  10.
 NSaved=10 IEnMin=10 EnMin= -1136.10538069209     IErMin=10 ErrMin= 1.50D-05
 ErrMax= 1.50D-05  0.00D+00 EMaxC= 1.00D-01 BMatC= 3.49D-08 BMatP= 6.90D-08
 IDIUse=1 WtCom= 1.00D+00 WtEn= 0.00D+00
 Coeff-Com: -0.329D-03 0.420D-03 0.538D-02 0.967D-04 0.131D-01 0.159D-01
 Coeff-Com: -0.758D-01-0.159D+00 0.533D-01 0.115D+01
 Coeff:     -0.329D-03 0.420D-03 0.538D-02 0.967D-04 0.131D-01 0.159D-01
 Coeff:     -0.758D-01-0.159D+00 0.533D-01 0.115D+01
 Gap=     0.029 Goal=   None    Shift=    0.000
 Gap=     0.043 Goal=   None    Shift=    0.000
 RMSDP=1.50D-05 MaxDP=4.58D-04 DE=-6.17D-07 OVMax= 2.35D-03

 Cycle  11  Pass 1  IDiag  1:
 E= -1136.10538124907     Delta-E=       -0.000000556979 Rises=F Damp=F
 DIIS: error= 1.43D-05 at cycle  11 NSaved=  11.
 NSaved=11 IEnMin=11 EnMin= -1136.10538124907     IErMin=11 ErrMin= 1.43D-05
 ErrMax= 1.43D-05  0.00D+00 EMaxC= 1.00D-01 BMatC= 2.63D-08 BMatP= 3.49D-08
 IDIUse=1 WtCom= 1.00D+00 WtEn= 0.00D+00
 Coeff-Com: -0.894D-03 0.114D-02-0.465D-03-0.495D-02 0.262D-01 0.663D-01
 Coeff-Com: -0.544D-01-0.258D+00-0.612D+00 0.645D+00 0.119D+01
 Coeff:     -0.894D-03 0.114D-02-0.465D-03-0.495D-02 0.262D-01 0.663D-01
 Coeff:     -0.544D-01-0.258D+00-0.612D+00 0.645D+00 0.119D+01
 Gap=     0.029 Goal=   None    Shift=    0.000
 Gap=     0.043 Goal=   None    Shift=    0.000
 RMSDP=2.19D-05 MaxDP=6.61D-04 DE=-5.57D-07 OVMax= 3.57D-03

 Cycle  12  Pass 1  IDiag  1:
 E= -1136.10538191968     Delta-E=       -0.000000670614 Rises=F Damp=F
 DIIS: error= 9.23D-06 at cycle  12 NSaved=  12.
 NSaved=12 IEnMin=12 EnMin= -1136.10538191968     IErMin=12 ErrMin= 9.23D-06
 ErrMax= 9.23D-06  0.00D+00 EMaxC= 1.00D-01 BMatC= 1.40D-08 BMatP= 2.63D-08
 IDIUse=1 WtCom= 1.00D+00 WtEn= 0.00D+00
 Coeff-Com:  0.421D-03-0.556D-03-0.523D-02-0.275D-04-0.135D-01-0.121D-01
 Coeff-Com:  0.799D-01 0.155D+00-0.164D+00-0.109D+01 0.854D-01 0.196D+01
 Coeff:      0.421D-03-0.556D-03-0.523D-02-0.275D-04-0.135D-01-0.121D-01
 Coeff:      0.799D-01 0.155D+00-0.164D+00-0.109D+01 0.854D-01 0.196D+01
 Gap=     0.029 Goal=   None    Shift=    0.000
 Gap=     0.043 Goal=   None    Shift=    0.000
 RMSDP=3.56D-05 MaxDP=1.08D-03 DE=-6.71D-07 OVMax= 5.84D-03

 Cycle  13  Pass 1  IDiag  1:
 E= -1136.10538261541     Delta-E=       -0.000000695729 Rises=F Damp=F
 DIIS: error= 4.55D-06 at cycle  13 NSaved=  13.
 NSaved=13 IEnMin=13 EnMin= -1136.10538261541     IErMin=13 ErrMin= 4.55D-06
 ErrMax= 4.55D-06  0.00D+00 EMaxC= 1.00D-01 BMatC= 4.12D-09 BMatP= 1.40D-08
 IDIUse=1 WtCom= 1.00D+00 WtEn= 0.00D+00
 Coeff-Com:  0.461D-03-0.592D-03-0.797D-03 0.224D-02-0.143D-01-0.278D-01
 Coeff-Com:  0.441D-01 0.133D+00 0.186D+00-0.459D+00-0.378D+00 0.233D+00
 Coeff-Com:  0.128D+01
 Coeff:      0.461D-03-0.592D-03-0.797D-03 0.224D-02-0.143D-01-0.278D-01
 Coeff:      0.441D-01 0.133D+00 0.186D+00-0.459D+00-0.378D+00 0.233D+00
 Coeff:      0.128D+01
 Gap=     0.029 Goal=   None    Shift=    0.000
 Gap=     0.043 Goal=   None    Shift=    0.000
 RMSDP=1.91D-05 MaxDP=6.02D-04 DE=-6.96D-07 OVMax= 3.05D-03

 Cycle  14  Pass 1  IDiag  1:
 E= -1136.10538278530     Delta-E=       -0.000000169895 Rises=F Damp=F
 DIIS: error= 2.32D-06 at cycle  14 NSaved=  14.
 NSaved=14 IEnMin=14 EnMin= -1136.10538278530     IErMin=14 ErrMin= 2.32D-06
 ErrMax= 2.32D-06  0.00D+00 EMaxC= 1.00D-01 BMatC= 1.03D-09 BMatP= 4.12D-09
 IDIUse=1 WtCom= 1.00D+00 WtEn= 0.00D+00
 Coeff-Com: -0.141D-03 0.189D-03 0.174D-02 0.210D-03 0.338D-02 0.325D-02
 Coeff-Com: -0.236D-01-0.467D-01 0.621D-01 0.356D+00-0.373D-01-0.728D+00
 Coeff-Com:  0.910D-01 0.132D+01
 Coeff:     -0.141D-03 0.189D-03 0.174D-02 0.210D-03 0.338D-02 0.325D-02
 Coeff:     -0.236D-01-0.467D-01 0.621D-01 0.356D+00-0.373D-01-0.728D+00
 Coeff:      0.910D-01 0.132D+01
 Gap=     0.029 Goal=   None    Shift=    0.000
 Gap=     0.043 Goal=   None    Shift=    0.000
 RMSDP=9.95D-06 MaxDP=3.00D-04 DE=-1.70D-07 OVMax= 1.46D-03

 Cycle  15  Pass 1  IDiag  1:
 E= -1136.10538281718     Delta-E=       -0.000000031875 Rises=F Damp=F
 DIIS: error= 9.35D-07 at cycle  15 NSaved=  15.
 NSaved=15 IEnMin=15 EnMin= -1136.10538281718     IErMin=15 ErrMin= 9.35D-07
 ErrMax= 9.35D-07  0.00D+00 EMaxC= 1.00D-01 BMatC= 1.64D-10 BMatP= 1.03D-09
 IDIUse=1 WtCom= 1.00D+00 WtEn= 0.00D+00
 Coeff-Com: -0.768D-04 0.100D-03 0.295D-03-0.150D-03 0.163D-02 0.407D-02
 Coeff-Com: -0.782D-02-0.215D-01-0.185D-01 0.932D-01 0.403D-01-0.685D-01
 Coeff-Com: -0.189D+00 0.875D-01 0.108D+01
 Coeff:     -0.768D-04 0.100D-03 0.295D-03-0.150D-03 0.163D-02 0.407D-02
 Coeff:     -0.782D-02-0.215D-01-0.185D-01 0.932D-01 0.403D-01-0.685D-01
 Coeff:     -0.189D+00 0.875D-01 0.108D+01
 Gap=     0.029 Goal=   None    Shift=    0.000
 Gap=     0.043 Goal=   None    Shift=    0.000
 RMSDP=1.56D-06 MaxDP=7.00D-05 DE=-3.19D-08 OVMax= 1.97D-04

 Cycle  16  Pass 1  IDiag  1:
 E= -1136.10538281943     Delta-E=       -0.000000002248 Rises=F Damp=F
 DIIS: error= 6.43D-07 at cycle  16 NSaved=  16.
 NSaved=16 IEnMin=16 EnMin= -1136.10538281943     IErMin=16 ErrMin= 6.43D-07
 ErrMax= 6.43D-07  0.00D+00 EMaxC= 1.00D-01 BMatC= 6.92D-11 BMatP= 1.64D-10
 IDIUse=1 WtCom= 1.00D+00 WtEn= 0.00D+00
 Coeff-Com:  0.608D-05-0.883D-05-0.232D-03-0.520D-05-0.233D-03 0.425D-03
 Coeff-Com:  0.129D-02 0.307D-02-0.139D-01-0.301D-01 0.135D-01 0.873D-01
 Coeff-Com: -0.432D-01-0.183D+00 0.169D+00 0.996D+00
 Coeff:      0.608D-05-0.883D-05-0.232D-03-0.520D-05-0.233D-03 0.425D-03
 Coeff:      0.129D-02 0.307D-02-0.139D-01-0.301D-01 0.135D-01 0.873D-01
 Coeff:     -0.432D-01-0.183D+00 0.169D+00 0.996D+00
 Gap=     0.029 Goal=   None    Shift=    0.000
 Gap=     0.043 Goal=   None    Shift=    0.000
 RMSDP=6.63D-07 MaxDP=2.95D-05 DE=-2.25D-09 OVMax= 7.70D-05

 Cycle  17  Pass 1  IDiag  1:
 E= -1136.10538282024     Delta-E=       -0.000000000816 Rises=F Damp=F
 DIIS: error= 4.97D-07 at cycle  17 NSaved=  17.
 NSaved=17 IEnMin=17 EnMin= -1136.10538282024     IErMin=17 ErrMin= 4.97D-07
 ErrMax= 4.97D-07  0.00D+00 EMaxC= 1.00D-01 BMatC= 3.53D-11 BMatP= 6.92D-11
 IDIUse=1 WtCom= 1.00D+00 WtEn= 0.00D+00
 Coeff-Com:  0.807D-04-0.105D-03-0.232D-03 0.321D-03-0.205D-02-0.386D-02
 Coeff-Com:  0.713D-02 0.200D-01 0.206D-01-0.849D-01-0.422D-01 0.739D-01
 Coeff-Com:  0.150D+00-0.957D-01-0.755D+00-0.796D-01 0.179D+01
 Coeff:      0.807D-04-0.105D-03-0.232D-03 0.321D-03-0.205D-02-0.386D-02
 Coeff:      0.713D-02 0.200D-01 0.206D-01-0.849D-01-0.422D-01 0.739D-01
 Coeff:      0.150D+00-0.957D-01-0.755D+00-0.796D-01 0.179D+01
 Gap=     0.029 Goal=   None    Shift=    0.000
 Gap=     0.043 Goal=   None    Shift=    0.000
 RMSDP=1.07D-06 MaxDP=4.66D-05 DE=-8.16D-10 OVMax= 1.07D-04

 Cycle  18  Pass 1  IDiag  1:
 E= -1136.10538282103     Delta-E=       -0.000000000784 Rises=F Damp=F
 DIIS: error= 1.78D-07 at cycle  18 NSaved=  18.
 NSaved=18 IEnMin=18 EnMin= -1136.10538282103     IErMin=18 ErrMin= 1.78D-07
 ErrMax= 1.78D-07  0.00D+00 EMaxC= 1.00D-01 BMatC= 5.84D-12 BMatP= 3.53D-11
 IDIUse=1 WtCom= 1.00D+00 WtEn= 0.00D+00
 Coeff-Com: -0.191D-04 0.254D-04 0.972D-04-0.372D-04 0.368D-03 0.822D-03
 Coeff-Com: -0.171D-02-0.517D-02 0.211D-02 0.265D-01-0.107D-02-0.479D-01
 Coeff-Com:  0.266D-02 0.820D-01 0.156D-01-0.281D+00-0.246D+00 0.145D+01
 Coeff:     -0.191D-04 0.254D-04 0.972D-04-0.372D-04 0.368D-03 0.822D-03
 Coeff:     -0.171D-02-0.517D-02 0.211D-02 0.265D-01-0.107D-02-0.479D-01
 Coeff:      0.266D-02 0.820D-01 0.156D-01-0.281D+00-0.246D+00 0.145D+01
 Gap=     0.029 Goal=   None    Shift=    0.000
 Gap=     0.043 Goal=   None    Shift=    0.000
 RMSDP=5.80D-07 MaxDP=2.60D-05 DE=-7.84D-10 OVMax= 6.28D-05

 Cycle  19  Pass 1  IDiag  1:
 E= -1136.10538282116     Delta-E=       -0.000000000136 Rises=F Damp=F
 DIIS: error= 5.91D-08 at cycle  19 NSaved=  19.
 NSaved=19 IEnMin=19 EnMin= -1136.10538282116     IErMin=19 ErrMin= 5.91D-08
 ErrMax= 5.91D-08  0.00D+00 EMaxC= 1.00D-01 BMatC= 8.49D-13 BMatP= 5.84D-12
 IDIUse=1 WtCom= 1.00D+00 WtEn= 0.00D+00
 Coeff-Com: -0.997D-05 0.130D-04 0.328D-04-0.260D-04 0.233D-03 0.456D-03
 Coeff-Com: -0.965D-03-0.237D-02-0.183D-02 0.114D-01 0.306D-02-0.968D-02
 Coeff-Com: -0.183D-01 0.128D-01 0.994D-01 0.231D-01-0.279D+00 0.120D+00
 Coeff-Com:  0.104D+01
 Coeff:     -0.997D-05 0.130D-04 0.328D-04-0.260D-04 0.233D-03 0.456D-03
 Coeff:     -0.965D-03-0.237D-02-0.183D-02 0.114D-01 0.306D-02-0.968D-02
 Coeff:     -0.183D-01 0.128D-01 0.994D-01 0.231D-01-0.279D+00 0.120D+00
 Coeff:      0.104D+01
 Gap=     0.029 Goal=   None    Shift=    0.000
 Gap=     0.043 Goal=   None    Shift=    0.000
 RMSDP=1.00D-07 MaxDP=5.11D-06 DE=-1.36D-10 OVMax= 1.12D-05

 Cycle  20  Pass 1  IDiag  1:
 E= -1136.10538282118     Delta-E=       -0.000000000012 Rises=F Damp=F
 DIIS: error= 3.14D-08 at cycle  20 NSaved=  20.
 NSaved=20 IEnMin=20 EnMin= -1136.10538282118     IErMin=20 ErrMin= 3.14D-08
 ErrMax= 3.14D-08  0.00D+00 EMaxC= 1.00D-01 BMatC= 2.23D-13 BMatP= 8.49D-13
 IDIUse=1 WtCom= 1.00D+00 WtEn= 0.00D+00
 Coeff-Com:  0.365D-05-0.487D-05-0.209D-04 0.101D-04-0.767D-04-0.122D-03
 Coeff-Com:  0.319D-03 0.888D-03-0.115D-02-0.467D-02 0.828D-03 0.106D-01
 Coeff-Com: -0.322D-02-0.183D-01 0.471D-02 0.782D-01 0.371D-01-0.397D+00
 Coeff-Com:  0.197D+00 0.110D+01
 Coeff:      0.365D-05-0.487D-05-0.209D-04 0.101D-04-0.767D-04-0.122D-03
 Coeff:      0.319D-03 0.888D-03-0.115D-02-0.467D-02 0.828D-03 0.106D-01
 Coeff:     -0.322D-02-0.183D-01 0.471D-02 0.782D-01 0.371D-01-0.397D+00
 Coeff:      0.197D+00 0.110D+01
 Gap=     0.029 Goal=   None    Shift=    0.000
 Gap=     0.043 Goal=   None    Shift=    0.000
 RMSDP=4.79D-08 MaxDP=2.95D-06 DE=-1.21D-11 OVMax= 4.90D-06

 Cycle  21  Pass 1  IDiag  1:
 E= -1136.10538282117     Delta-E=        0.000000000003 Rises=F Damp=F
 DIIS: error= 1.25D-08 at cycle  21 NSaved=  20.
 NSaved=20 IEnMin=19 EnMin= -1136.10538282118     IErMin=20 ErrMin= 1.25D-08
 ErrMax= 1.25D-08  0.00D+00 EMaxC= 1.00D-01 BMatC= 2.73D-14 BMatP= 2.23D-13
 IDIUse=1 WtCom= 1.00D+00 WtEn= 0.00D+00
 Coeff-Com:  0.235D-07-0.101D-05-0.103D-05 0.296D-06 0.643D-05 0.631D-05
 Coeff-Com:  0.944D-05-0.857D-04 0.221D-05 0.210D-03-0.336D-03 0.523D-03
 Coeff-Com:  0.948D-03-0.469D-02-0.127D-01 0.214D-01 0.142D-01-0.156D+00
 Coeff-Com: -0.509D-01 0.119D+01
 Coeff:      0.235D-07-0.101D-05-0.103D-05 0.296D-06 0.643D-05 0.631D-05
 Coeff:      0.944D-05-0.857D-04 0.221D-05 0.210D-03-0.336D-03 0.523D-03
 Coeff:      0.948D-03-0.469D-02-0.127D-01 0.214D-01 0.142D-01-0.156D+00
 Coeff:     -0.509D-01 0.119D+01
 Gap=     0.029 Goal=   None    Shift=    0.000
 Gap=     0.043 Goal=   None    Shift=    0.000
 RMSDP=1.76D-08 MaxDP=1.07D-06 DE= 2.96D-12 OVMax= 1.98D-06

 Cycle  22  Pass 1  IDiag  1:
 E= -1136.10538282119     Delta-E=       -0.000000000013 Rises=F Damp=F
 DIIS: error= 5.23D-09 at cycle  22 NSaved=  20.
 NSaved=20 IEnMin=20 EnMin= -1136.10538282119     IErMin=20 ErrMin= 5.23D-09
 ErrMax= 5.23D-09  0.00D+00 EMaxC= 1.00D-01 BMatC= 6.79D-15 BMatP= 2.73D-14
 IDIUse=1 WtCom= 1.00D+00 WtEn= 0.00D+00
 Coeff-Com:  0.867D-06 0.971D-06-0.426D-05-0.520D-05 0.101D-04 0.147D-04
 Coeff-Com:  0.185D-03 0.522D-05-0.267D-03-0.546D-03 0.734D-03 0.177D-02
 Coeff-Com: -0.411D-02-0.114D-01 0.462D-02 0.570D-01-0.755D-01-0.164D+00
 Coeff-Com:  0.212D+00 0.979D+00
 Coeff:      0.867D-06 0.971D-06-0.426D-05-0.520D-05 0.101D-04 0.147D-04
 Coeff:      0.185D-03 0.522D-05-0.267D-03-0.546D-03 0.734D-03 0.177D-02
 Coeff:     -0.411D-02-0.114D-01 0.462D-02 0.570D-01-0.755D-01-0.164D+00
 Coeff:      0.212D+00 0.979D+00
 Gap=     0.029 Goal=   None    Shift=    0.000
 Gap=     0.043 Goal=   None    Shift=    0.000
 RMSDP=5.65D-09 MaxDP=2.48D-07 DE=-1.32D-11 OVMax= 4.24D-07

 SCF Done:  E(UB3LYP) =  -1136.10538282     A.U. after   22 cycles
            NFock= 22  Conv=0.57D-08     -V/T= 2.0030
 <Sx>= 0.0000 <Sy>= 0.0000 <Sz>= 0.5000 <S**2>= 0.7893 S= 0.5195
 <L.S>= 0.000000000000E+00
 KE= 1.132752133079D+03 PE=-3.239292461755D+03 EE= 7.151391302447D+02
 Annihilation of the first spin contaminant:
 S**2 before annihilation     0.7893,   after     0.7510
 Leave Link  502 at Mon Dec  4 00:27:05 2023, MaxMem=  1879048192 cpu:             187.0 elap:              17.0
 (Enter /home/sekinelabo/g16/l601.exe)
 Copying SCF densities to generalized density rwf, IOpCl= 1 IROHF=0.

 **********************************************************************

            Population analysis using the SCF Density.

 **********************************************************************

 Orbital symmetries:
 Alpha Orbitals:
       Occupied  (A) (A) (A) (A) (A) (A) (A) (A) (A) (A) (A) (A)
                 (A) (A) (A) (A) (A) (A) (A) (A) (A) (A) (A) (A)
                 (A) (A) (A) (A) (A) (A) (A) (A) (A) (A) (A) (A)
                 (A) (A) (A)
       Virtual   (A) (A) (A) (A) (A) (A) (A) (A) (A) (A) (A) (A)
                 (A) (A) (A) (A) (A) (A) (A) (A) (A) (A) (A) (A)
                 (A) (A) (A) (A) (A) (A) (A) (A) (A) (A) (A) (A)
                 (A) (A) (A) (A) (A) (A) (A) (A) (A) (A) (A) (A)
                 (A) (A) (A) (A) (A) (A) (A) (A) (A) (A) (A) (A)
                 (A) (A) (A) (A) (A) (A) (A) (A) (A) (A) (A) (A)
                 (A) (A) (A) (A) (A) (A) (A) (A) (A) (A) (A) (A)
                 (A) (A) (A) (A) (A) (A) (A) (A) (A) (A) (A) (A)
                 (A) (A) (A) (A) (A) (A) (A) (A) (A) (A) (A) (A)
                 (A) (A) (A) (A) (A) (A) (A) (A) (A) (A) (A) (A)
                 (A) (A) (A) (A) (A) (A) (A) (A) (A) (A) (A) (A)
                 (A) (A) (A) (A) (A) (A) (A) (A) (A) (A) (A) (A)
                 (A) (A) (A) (A) (A) (A) (A) (A) (A) (A) (A) (A)
                 (A) (A) (A) (A) (A) (A) (A) (A) (A) (A) (A) (A)
                 (A) (A) (A)
 Beta  Orbitals:
       Occupied  (A) (A) (A) (A) (A) (A) (A) (A) (A) (A) (A) (A)
                 (A) (A) (A) (A) (A) (A) (A) (A) (A) (A) (A) (A)
                 (A) (A) (A) (A) (A) (A) (A) (A) (A) (A) (A) (A)
                 (A) (A)
       Virtual   (A) (A) (A) (A) (A) (A) (A) (A) (A) (A) (A) (A)
                 (A) (A) (A) (A) (A) (A) (A) (A) (A) (A) (A) (A)
                 (A) (A) (A) (A) (A) (A) (A) (A) (A) (A) (A) (A)
                 (A) (A) (A) (A) (A) (A) (A) (A) (A) (A) (A) (A)
                 (A) (A) (A) (A) (A) (A) (A) (A) (A) (A) (A) (A)
                 (A) (A) (A) (A) (A) (A) (A) (A) (A) (A) (A) (A)
                 (A) (A) (A) (A) (A) (A) (A) (A) (A) (A) (A) (A)
                 (A) (A) (A) (A) (A) (A) (A) (A) (A) (A) (A) (A)
                 (A) (A) (A) (A) (A) (A) (A) (A) (A) (A) (A) (A)
                 (A) (A) (A) (A) (A) (A) (A) (A) (A) (A) (A) (A)
                 (A) (A) (A) (A) (A) (A) (A) (A) (A) (A) (A) (A)
                 (A) (A) (A) (A) (A) (A) (A) (A) (A) (A) (A) (A)
                 (A) (A) (A) (A) (A) (A) (A) (A) (A) (A) (A) (A)
                 (A) (A) (A) (A) (A) (A) (A) (A) (A) (A) (A) (A)
                 (A) (A) (A) (A)
 The electronic state is 2-A.
 Alpha  occ. eigenvalues --  -38.45389 -38.45301 -38.44617 -38.44612 -38.44493
 Alpha  occ. eigenvalues --  -38.44255 -38.44183  -2.21122  -2.21040  -2.20400
 Alpha  occ. eigenvalues --   -2.20383  -2.20256  -2.20028  -2.19958  -1.14811
 Alpha  occ. eigenvalues --   -1.14792  -1.14762  -1.14728  -1.14710  -1.14684
 Alpha  occ. eigenvalues --   -1.14060  -1.14043  -1.14042  -1.14027  -1.14022
 Alpha  occ. eigenvalues --   -1.14009  -1.13931  -1.13927  -1.13890  -1.13703
 Alpha  occ. eigenvalues --   -1.13695  -1.13656  -1.13617  -1.13613  -1.13576
 Alpha  occ. eigenvalues --   -0.15380  -0.13843  -0.12980  -0.10831
 Alpha virt. eigenvalues --   -0.07909  -0.05042  -0.04774  -0.03533  -0.03466
 Alpha virt. eigenvalues --   -0.02468  -0.01954  -0.01882  -0.01356  -0.00933
 Alpha virt. eigenvalues --   -0.00883  -0.00336   0.00041   0.00322   0.00599
 Alpha virt. eigenvalues --    0.00615   0.00745   0.00893   0.01111   0.01170
 Alpha virt. eigenvalues --    0.01336   0.01475   0.01511   0.01671   0.01736
 Alpha virt. eigenvalues --    0.01760   0.01934   0.02065   0.02164   0.02246
 Alpha virt. eigenvalues --    0.02379   0.02561   0.02611   0.02695   0.02877
 Alpha virt. eigenvalues --    0.03001   0.03024   0.03062   0.03189   0.03394
 Alpha virt. eigenvalues --    0.03499   0.03618   0.03785   0.03927   0.04013
 Alpha virt. eigenvalues --    0.04341   0.04506   0.04807   0.04946   0.05642
 Alpha virt. eigenvalues --    0.06111   0.06540   0.06788   0.06994   0.07198
 Alpha virt. eigenvalues --    0.07246   0.07445   0.07507   0.07821   0.07892
 Alpha virt. eigenvalues --    0.08319   0.08512   0.08641   0.08925   0.09271
 Alpha virt. eigenvalues --    0.09582   0.09928   0.10443   0.10679   0.11236
 Alpha virt. eigenvalues --    0.11668   0.11867   0.12553   0.13293   0.13564
 Alpha virt. eigenvalues --    0.13627   0.13892   0.14978   0.15317   0.17175
 Alpha virt. eigenvalues --    0.27816   0.28209   0.28909   0.29388   0.29855
 Alpha virt. eigenvalues --    0.30420   0.30648   0.31393   0.32240   0.32376
 Alpha virt. eigenvalues --    0.32876   0.33438   0.33833   0.34526   0.34667
 Alpha virt. eigenvalues --    0.35261   0.36877   0.37172   0.37913   0.38816
 Alpha virt. eigenvalues --    0.39308   0.39556   0.40264   0.41188   0.41406
 Alpha virt. eigenvalues --    0.42082   0.42692   0.42865   0.43313   0.43592
 Alpha virt. eigenvalues --    0.43672   0.43943   0.44176   0.44380   0.44519
 Alpha virt. eigenvalues --    0.44964   0.45125   0.45245   0.45824   0.46338
 Alpha virt. eigenvalues --    0.46827   0.47248   0.47976   0.48775   0.49236
 Alpha virt. eigenvalues --    0.49813   0.50090   0.50600   0.51035   0.51230
 Alpha virt. eigenvalues --    0.52702   0.53273   0.54963   0.58109   0.59560
 Alpha virt. eigenvalues --    0.61400   2.01399   2.05065   2.05933   2.09997
 Alpha virt. eigenvalues --    2.11943   2.14237   2.15867   4.43219   4.43448
 Alpha virt. eigenvalues --    4.43987   4.44057   4.44143   4.44380   4.44685
 Alpha virt. eigenvalues --    4.44816   4.45198   4.45279   4.45715   4.45873
 Alpha virt. eigenvalues --    4.46236   4.46715   4.47406   4.47515   4.48174
 Alpha virt. eigenvalues --    4.48275   4.48894   4.50115   4.54450  96.20440
 Alpha virt. eigenvalues --   96.24835  96.25970  96.30742  96.33238  96.35702
 Alpha virt. eigenvalues --   96.37751
  Beta  occ. eigenvalues --  -38.45396 -38.45309 -38.44559 -38.44546 -38.44469
  Beta  occ. eigenvalues --  -38.44237 -38.44123  -2.21140  -2.21060  -2.20291
  Beta  occ. eigenvalues --   -2.20261  -2.20214  -2.20000  -2.19846  -1.14827
  Beta  occ. eigenvalues --   -1.14807  -1.14746  -1.14745  -1.14726  -1.14668
  Beta  occ. eigenvalues --   -1.13986  -1.13972  -1.13960  -1.13952  -1.13942
  Beta  occ. eigenvalues --   -1.13926  -1.13906  -1.13899  -1.13842  -1.13688
  Beta  occ. eigenvalues --   -1.13679  -1.13613  -1.13541  -1.13535  -1.13507
  Beta  occ. eigenvalues --   -0.14833  -0.13154  -0.12343
  Beta virt. eigenvalues --   -0.08074  -0.07742  -0.04561  -0.04150  -0.03350
  Beta virt. eigenvalues --   -0.03138  -0.02300  -0.01939  -0.01693  -0.01036
  Beta virt. eigenvalues --   -0.00748  -0.00606  -0.00003   0.00258   0.00290
  Beta virt. eigenvalues --    0.00722   0.00731   0.00808   0.00967   0.01169
  Beta virt. eigenvalues --    0.01258   0.01405   0.01535   0.01616   0.01719
  Beta virt. eigenvalues --    0.01796   0.01901   0.01999   0.02125   0.02287
  Beta virt. eigenvalues --    0.02356   0.02500   0.02559   0.02635   0.02875
  Beta virt. eigenvalues --    0.02959   0.03020   0.03092   0.03138   0.03217
  Beta virt. eigenvalues --    0.03434   0.03544   0.03687   0.03821   0.03971
  Beta virt. eigenvalues --    0.04060   0.04474   0.04623   0.04943   0.05044
  Beta virt. eigenvalues --    0.05717   0.06183   0.06692   0.06840   0.07058
  Beta virt. eigenvalues --    0.07272   0.07335   0.07532   0.07665   0.07897
  Beta virt. eigenvalues --    0.08010   0.08450   0.08727   0.08815   0.09036
  Beta virt. eigenvalues --    0.09487   0.09785   0.09962   0.10546   0.10794
  Beta virt. eigenvalues --    0.11435   0.11724   0.12105   0.12743   0.13374
  Beta virt. eigenvalues --    0.13768   0.13833   0.14080   0.15161   0.15423
  Beta virt. eigenvalues --    0.17314   0.28134   0.28509   0.29245   0.29758
  Beta virt. eigenvalues --    0.30161   0.30695   0.30893   0.31616   0.32534
  Beta virt. eigenvalues --    0.32646   0.32969   0.33624   0.34156   0.34713
  Beta virt. eigenvalues --    0.35013   0.35435   0.37454   0.37548   0.37912
  Beta virt. eigenvalues --    0.39086   0.39494   0.39668   0.40461   0.41398
  Beta virt. eigenvalues --    0.41542   0.42243   0.42761   0.42936   0.43470
  Beta virt. eigenvalues --    0.43755   0.43782   0.44098   0.44237   0.44448
  Beta virt. eigenvalues --    0.44592   0.45060   0.45253   0.45305   0.45913
  Beta virt. eigenvalues --    0.46499   0.46920   0.47351   0.48109   0.48896
  Beta virt. eigenvalues --    0.49395   0.50042   0.50216   0.50675   0.51207
  Beta virt. eigenvalues --    0.51377   0.52856   0.53539   0.55155   0.58280
  Beta virt. eigenvalues --    0.59726   0.61542   2.01507   2.05149   2.06051
  Beta virt. eigenvalues --    2.10226   2.12019   2.14360   2.15954   4.43271
  Beta virt. eigenvalues --    4.43467   4.43986   4.44056   4.44154   4.44411
  Beta virt. eigenvalues --    4.44770   4.44894   4.45243   4.45322   4.45761
  Beta virt. eigenvalues --    4.45915   4.46298   4.46755   4.47465   4.47571
  Beta virt. eigenvalues --    4.48201   4.48345   4.48961   4.50193   4.54511
  Beta virt. eigenvalues --   96.20477  96.24866  96.26010  96.30814  96.33269
  Beta virt. eigenvalues --   96.35744  96.37782
          Condensed to atoms (all electrons):
               1          2          3          4          5          6
     1  Na  11.359929  -0.330188   0.158794  -0.014217  -0.048969   0.058279
     2  Na  -0.330188  12.062517  -0.186818   0.031070  -0.104291   0.076635
     3  Na   0.158794  -0.186818  11.444820  -0.387827   0.127677  -0.076732
     4  Na  -0.014217   0.031070  -0.387827  10.916755  -0.029306   0.190761
     5  Na  -0.048969  -0.104291   0.127677  -0.029306  10.604338  -0.085685
     6  Na   0.058279   0.076635  -0.076732   0.190761  -0.085685  10.625972
     7  Na  -0.252485   0.202319  -0.003214   0.036888   0.173683  -0.057052
               7
     1  Na  -0.252485
     2  Na   0.202319
     3  Na  -0.003214
     4  Na   0.036888
     5  Na   0.173683
     6  Na  -0.057052
     7  Na  11.027023
          Atomic-Atomic Spin Densities.
               1          2          3          4          5          6
     1  Na  -0.073143   0.002731   0.091396  -0.054436   0.015714   0.016716
     2  Na   0.002731   0.441812   0.016927  -0.038067  -0.050960  -0.010862
     3  Na   0.091396   0.016927   0.190799  -0.153297   0.011917   0.043597
     4  Na  -0.054436  -0.038067  -0.153297   0.493730  -0.015288   0.024504
     5  Na   0.015714  -0.050960   0.011917  -0.015288  -0.052586   0.020200
     6  Na   0.016716  -0.010862   0.043597   0.024504   0.020200  -0.094088
     7  Na  -0.016320  -0.058576  -0.090290   0.040375   0.034962  -0.024750
               7
     1  Na  -0.016320
     2  Na  -0.058576
     3  Na  -0.090290
     4  Na   0.040375
     5  Na   0.034962
     6  Na  -0.024750
     7  Na   0.481089
 Mulliken charges and spin densities:
               1          2
     1  Na   0.068857  -0.017343
     2  Na  -0.751244   0.303005
     3  Na  -0.076701   0.111050
     4  Na   0.255877   0.297522
     5  Na   0.362552  -0.036040
     6  Na   0.267822  -0.024683
     7  Na  -0.127163   0.366490
 Sum of Mulliken charges =  -0.00000   1.00000
 Mulliken charges and spin densities with hydrogens summed into heavy atoms:
               1          2
     1  Na   0.068857  -0.017343
     2  Na  -0.751244   0.303005
     3  Na  -0.076701   0.111050
     4  Na   0.255877   0.297522
     5  Na   0.362552  -0.036040
     6  Na   0.267822  -0.024683
     7  Na  -0.127163   0.366490
 Electronic spatial extent (au):  <R**2>=           4592.4489
 Charge=             -0.0000 electrons
 Dipole moment (field-independent basis, Debye):
    X=              0.0627    Y=             -0.6118    Z=             -0.2852  Tot=              0.6779
 Quadrupole moment (field-independent basis, Debye-Ang):
   XX=            -59.1266   YY=            -65.8692   ZZ=            -73.4107
   XY=             -0.4542   XZ=              0.1453   YZ=              1.6450
 Traceless Quadrupole moment (field-independent basis, Debye-Ang):
   XX=              7.0089   YY=              0.2663   ZZ=             -7.2752
   XY=             -0.4542   XZ=              0.1453   YZ=              1.6450
 Octapole moment (field-independent basis, Debye-Ang**2):
  XXX=              3.5267  YYY=            -25.1146  ZZZ=              0.6412  XYY=             -2.7667
  XXY=              2.7189  XXZ=            -13.2503  XZZ=              3.1580  YZZ=             -3.8077
  YYZ=            -10.8972  XYZ=             -0.6130
 Hexadecapole moment (field-independent basis, Debye-Ang**3):
 XXXX=          -4555.6395 YYYY=          -2711.9330 ZZZZ=           -421.3075 XXXY=             -4.7341
 XXXZ=            -25.7438 YYYX=            -16.0417 YYYZ=             44.2802 ZZZX=              0.3108
 ZZZY=              4.2821 XXYY=           -974.7144 XXZZ=           -880.8909 YYZZ=           -518.5929
 XXYZ=             17.5454 YYXZ=             16.0178 ZZXY=              8.2711
 N-N= 2.552958156096D+02 E-N=-3.239292462003D+03  KE= 1.132752133079D+03
                          Isotropic Fermi Contact Couplings
        Atom                 a.u.       MegaHertz       Gauss      10(-4) cm-1
     1  Na(23)             0.03856      45.62074      16.27861      15.21744
     2  Na(23)             0.26625     314.97935     112.39246     105.06580
     3  Na(23)             0.07131      84.36733      30.10436      28.14191
     4  Na(23)             0.25229     298.46771     106.50070      99.55811
     5  Na(23)            -0.07611     -90.03484     -32.12667     -30.03239
     6  Na(23)            -0.07865     -93.04208     -33.19973     -31.03550
     7  Na(23)             0.28188     333.47122     118.99082     111.23403
 --------------------------------------------------------
       Center         ----  Spin Dipole Couplings  ----
                      3XX-RR        3YY-RR        3ZZ-RR
 --------------------------------------------------------
     1   Atom        0.024641     -0.010980     -0.013661
     2   Atom       -0.007384      0.005058      0.002326
     3   Atom        0.022536     -0.011091     -0.011445
     4   Atom       -0.001633      0.001439      0.000195
     5   Atom        0.016196     -0.001443     -0.014753
     6   Atom        0.013651     -0.000015     -0.013636
     7   Atom       -0.001924      0.001211      0.000713
 --------------------------------------------------------
                        XY            XZ            YZ
 --------------------------------------------------------
     1   Atom       -0.009730     -0.003091      0.000819
     2   Atom        0.000697      0.000490      0.000339
     3   Atom        0.006919      0.007395      0.001360
     4   Atom       -0.000994      0.001417     -0.000143
     5   Atom       -0.021470      0.010104     -0.005926
     6   Atom        0.021035     -0.010804     -0.007466
     7   Atom        0.001849     -0.000054      0.000908
 --------------------------------------------------------


 ---------------------------------------------------------------------------------
              Anisotropic Spin Dipole Couplings in Principal Axis System
 ---------------------------------------------------------------------------------

       Atom             a.u.   MegaHertz   Gauss  10(-4) cm-1        Axes

              Baa    -0.0139    -1.965    -0.701    -0.655  0.0591 -0.0818  0.9949
     1 Na(23) Bbb    -0.0135    -1.901    -0.678    -0.634  0.2518  0.9656  0.0644
              Bcc     0.0274     3.866     1.379     1.289  0.9660 -0.2467 -0.0777
 
              Baa    -0.0074    -1.051    -0.375    -0.351  0.9974 -0.0543 -0.0481
     2 Na(23) Bbb     0.0023     0.325     0.116     0.108  0.0406 -0.1321  0.9904
              Bcc     0.0051     0.726     0.259     0.242  0.0601  0.9898  0.1296
 
              Baa    -0.0130    -1.835    -0.655    -0.612 -0.2276  0.1386  0.9638
     3 Na(23) Bbb    -0.0124    -1.757    -0.627    -0.586 -0.1550  0.9720 -0.1764
              Bcc     0.0254     3.592     1.282     1.198  0.9613  0.1895  0.1997
 
              Baa    -0.0026    -0.363    -0.130    -0.121  0.8759  0.2014 -0.4384
     4 Na(23) Bbb     0.0006     0.087     0.031     0.029  0.2938  0.4979  0.8159
              Bcc     0.0020     0.276     0.098     0.092 -0.3826  0.8435 -0.3769
 
              Baa    -0.0178    -2.517    -0.898    -0.840 -0.3652 -0.1460  0.9194
     5 Na(23) Bbb    -0.0156    -2.203    -0.786    -0.735  0.4605  0.8300  0.3147
              Bcc     0.0334     4.720     1.684     1.574  0.8091 -0.5383  0.2359
 
              Baa    -0.0174    -2.457    -0.877    -0.820  0.3009  0.0450  0.9526
     6 Na(23) Bbb    -0.0153    -2.154    -0.769    -0.719 -0.5496  0.8245  0.1347
              Bcc     0.0327     4.612     1.646     1.538  0.7793  0.5641 -0.2728
 
              Baa    -0.0028    -0.400    -0.143    -0.134  0.8916 -0.4354  0.1249
     7 Na(23) Bbb     0.0004     0.055     0.020     0.018 -0.2900 -0.3369  0.8958
              Bcc     0.0024     0.345     0.123     0.115  0.3479  0.8348  0.4266
 

 ---------------------------------------------------------------------------------

 No NMR shielding tensors so no spin-rotation constants.
 Leave Link  601 at Mon Dec  4 00:27:06 2023, MaxMem=  1879048192 cpu:               2.3 elap:               0.2
 (Enter /home/sekinelabo/g16/l701.exe)
 ... and contract with generalized density number  0.
 Compute integral first derivatives.
 Leave Link  701 at Mon Dec  4 00:27:06 2023, MaxMem=  1879048192 cpu:               1.5 elap:               0.1
 (Enter /home/sekinelabo/g16/l702.exe)
 L702 exits ... SP integral derivatives will be done elsewhere.
 Leave Link  702 at Mon Dec  4 00:27:06 2023, MaxMem=  1879048192 cpu:               0.4 elap:               0.0
 (Enter /home/sekinelabo/g16/l703.exe)
 Integral derivatives from FoFJK, PRISM(SPDF).
 Compute integral first derivatives, UseDBF=F ICtDFT=           0.
 Calling FoFJK, ICntrl=      2127 FMM=F ISym2X=0 I1Cent= 0 IOpClX= 1 NMat=1 NMatS=1 NMatT=0.
 FoFJK:  IHMeth= 1 ICntrl=    2127 DoSepK=F KAlg= 0 I1Cent=           0 FoldK=F
 IRaf=         0 NMat=       1 IRICut=       1 DoRegI=T DoRafI=F ISym2E= 0 IDoP0=0 IntGTp=1.
 FoFCou: FMM=F IPFlag=           0 FMFlag=      100000 FMFlg1=         800
         NFxFlg=           0 DoJE=F BraDBF=F KetDBF=F FulRan=T
         wScrn=  0.000000 ICntrl=      2127 IOpCl=  1 I1Cent=           0 NGrid=           0
         NMat0=    1 NMatS0=      1 NMatT0=    0 NMatD0=    1 NMtDS0=    0 NMtDT0=    0
 Symmetry not used in FoFCou.
 Leave Link  703 at Mon Dec  4 00:27:08 2023, MaxMem=  1879048192 cpu:              27.5 elap:               1.8
 (Enter /home/sekinelabo/g16/l716.exe)
 Dipole        = 2.46683655D-02-2.40682573D-01-1.12213274D-01
 ***** Axes restored to original set *****
 -------------------------------------------------------------------
 Center     Atomic                   Forces (Hartrees/Bohr)
 Number     Number              X              Y              Z
 -------------------------------------------------------------------
      1       11           0.000571413    0.001399154    0.001382298
      2       11           0.000909387   -0.000810968    0.001381439
      3       11           0.001605650    0.000621737   -0.001181279
      4       11           0.000774237    0.002884435    0.000275977
      5       11          -0.002857733   -0.003183389   -0.001017560
      6       11          -0.003528070   -0.001109336    0.001440369
      7       11           0.002525114    0.000198367   -0.002281243
 -------------------------------------------------------------------
 Cartesian Forces:  Max     0.003528070 RMS     0.001794858
 Z-matrix is all fixed cartesians, so copy forces.
 Force constants in Cartesian coordinates: 
                1             2             3             4             5 
      1  0.290840D-01
      2  0.394674D-02  0.180816D-01
      3 -0.426492D-02  0.134572D-01  0.216228D-01
      4 -0.811563D-05  0.415706D-05 -0.183870D-04  0.189883D-01
      5  0.415255D-05 -0.212705D-05  0.940814D-05 -0.631153D-02  0.174619D-01
      6 -0.185763D-04  0.951531D-05 -0.420871D-04  0.114244D-02  0.418180D-02
      7 -0.167214D-01 -0.596199D-02  0.157968D-02 -0.164311D-04  0.208448D-04
      8 -0.201526D-02 -0.110995D-01 -0.896785D-02  0.145120D-04 -0.184103D-04
      9  0.641403D-02 -0.664527D-02 -0.157057D-01 -0.167965D-04  0.213083D-04
     10 -0.142579D-01  0.337500D-02  0.341640D-02  0.302736D-02  0.284330D-02
     11 -0.333097D-02 -0.101991D-01 -0.441022D-02 -0.175156D-02 -0.164643D-02
     12 -0.677065D-03 -0.666516D-02 -0.680013D-02 -0.157142D-02 -0.153351D-02
     13 -0.311085D-04  0.268903D-04 -0.309026D-04 -0.904586D-02  0.437977D-03
     14  0.274752D-04 -0.237497D-04  0.272934D-04 -0.534295D-03 -0.825499D-02
     15 -0.318003D-04  0.274883D-04 -0.315898D-04 -0.345830D-02 -0.612128D-02
     16 -0.111957D-02 -0.397218D-02 -0.318038D-03 -0.137617D-01  0.249267D-02
     17  0.650507D-03  0.229968D-02  0.188840D-03  0.623887D-02 -0.918675D-02
     18  0.696748D-03  0.212380D-02  0.367883D-03  0.440304D-03  0.110234D-02
     19  0.305405D-02  0.258139D-02 -0.363828D-03  0.816465D-03  0.512586D-03
     20  0.717357D-03  0.943237D-03 -0.304691D-03  0.233984D-02  0.164678D-02
     21 -0.211841D-02 -0.230758D-02  0.588810D-03  0.348216D-02  0.233993D-02
                6             7             8             9            10 
      6  0.234706D-01
      7 -0.113190D-04  0.231094D-01
      8  0.999702D-05  0.705289D-02  0.189397D-01
      9 -0.115707D-04 -0.104634D-01  0.954780D-02  0.215309D-01
     10 -0.646773D-03  0.252368D-02  0.639866D-03  0.671047D-03  0.211805D-01
     11  0.376575D-03  0.270001D-02  0.100338D-02  0.510474D-03 -0.843223D-04
     12  0.435137D-03  0.376911D-02  0.800043D-03  0.110345D-02 -0.725900D-02
     13 -0.236554D-02  0.822928D-04 -0.705696D-04  0.808818D-04 -0.200921D-04
     14 -0.831157D-03 -0.294977D-02 -0.701675D-03  0.205960D-02 -0.203015D-04
     15 -0.143039D-01 -0.240439D-02 -0.732957D-03  0.192590D-02  0.676088D-05
     16  0.203395D-02 -0.275447D-05  0.268322D-04 -0.186474D-04 -0.124481D-01
     17 -0.328218D-02  0.141092D-05 -0.137442D-04  0.955172D-05 -0.675827D-02
     18 -0.890668D-02 -0.624062D-05  0.607919D-04 -0.422481D-04  0.381700D-02
     19 -0.134189D-03 -0.897484D-02 -0.564827D-02  0.333288D-02 -0.547085D-05
     20 -0.464557D-03 -0.863398D-03 -0.810974D-02 -0.550346D-02  0.472902D-05
     21 -0.641498D-03  0.753655D-02 -0.717828D-03 -0.880076D-02 -0.543464D-05
               11            12            13            14            15 
     11  0.262375D-01
     12  0.787965D-02  0.824815D-02
     13  0.102806D-04 -0.459898D-04  0.180477D-01
     14  0.103877D-04 -0.464691D-04  0.764009D-02  0.164969D-01
     15 -0.345936D-05  0.154753D-04 -0.225553D-02  0.820387D-02  0.207418D-01
     16  0.240326D-02  0.582140D-02  0.182131D-02 -0.134858D-02  0.821858D-03
     17 -0.153596D-01 -0.466555D-03 -0.464787D-03  0.468522D-03 -0.265690D-03
     18 -0.440596D-02 -0.296530D-02  0.336315D-02 -0.270476D-02  0.161413D-02
     19  0.532933D-04 -0.370368D-04 -0.108543D-01 -0.281462D-02  0.732141D-02
     20 -0.460669D-04  0.320148D-04 -0.757988D-02 -0.799539D-02 -0.110797D-02
     21  0.529406D-04 -0.367917D-04  0.125394D-02 -0.670838D-02 -0.996185D-02
               16            17            18            19            20 
     16  0.255397D-01
     17  0.361410D-03  0.217550D-01
     18 -0.832066D-02  0.383611D-02  0.992553D-02
     19 -0.288408D-04 -0.291414D-04  0.970478D-05  0.159929D-01
     20  0.365880D-04  0.369693D-04 -0.123117D-04  0.534477D-02  0.135242D-01
     21 -0.198678D-04 -0.200748D-04  0.668541D-05 -0.101289D-01  0.736098D-02
               21 
     21  0.188454D-01
 Leave Link  716 at Mon Dec  4 00:27:08 2023, MaxMem=  1879048192 cpu:               0.4 elap:               0.0
 (Enter /home/sekinelabo/g16/l103.exe)

 GradGradGradGradGradGradGradGradGradGradGradGradGradGradGradGradGradGrad
 Berny optimization.
 Search for a local minimum.
 Step number   1 out of a maximum of    2
 All quantities printed in internal units (Hartrees-Bohrs-Radians)
 Second derivative matrix not updated -- first step.
 ITU=  0
     Eigenvalues ---    0.00047   0.00104   0.00512   0.00610   0.01044
     Eigenvalues ---    0.01152   0.01598   0.02894   0.02979   0.03702
     Eigenvalues ---    0.04223   0.04447   0.04918   0.06267   0.06388
 Quadratic step=5.948D-01 exceeds max=3.000D-01 adjusted using Lamda=-9.600D-03.
 Angle between NR and scaled steps=  16.09 degrees.
 Angle between quadratic step and forces=  25.16 degrees.
 Linear search not attempted -- first point.
 B after Tr=     0.000000    0.000000   -0.000000
         Rot=    1.000000   -0.000000   -0.000000    0.000000 Ang=   0.00 deg.
 Variable       Old X    -DE/DX   Delta X   Delta X   Delta X     New X
                                 (Linear)    (Quad)   (Total)
    X1       18.53498   0.00057   0.00000   0.04731   0.04731  18.58229
    Y1       16.48905   0.00140   0.00000   0.06562   0.06562  16.55467
    Z1       19.86178   0.00138   0.00000   0.03662   0.03662  19.89840
    X2       24.00406   0.00091   0.00000  -0.03866  -0.03866  23.96540
    Y2       25.78796  -0.00081   0.00000  -0.07247  -0.07247  25.71549
    Z2       19.51993   0.00138   0.00000   0.04789   0.04789  19.56781
    X3       16.36888   0.00161   0.00000   0.07822   0.07822  16.44710
    Y3       19.76030   0.00062   0.00000   0.05298   0.05298  19.81328
    Z3       24.88883  -0.00118   0.00000  -0.03663  -0.03663  24.85219
    X4       24.63523   0.00077   0.00000  -0.00447  -0.00447  24.63075
    Y4       15.01200   0.00288   0.00000   0.10253   0.10253  15.11454
    Z4       16.83532   0.00028   0.00000   0.02543   0.02543  16.86076
    X5       23.26366  -0.00286   0.00000  -0.05484  -0.05484  23.20883
    Y5       28.60837  -0.00318   0.00000  -0.12275  -0.12275  28.48563
    Z5       25.78871  -0.00102   0.00000  -0.04421  -0.04421  25.74451
    X6       27.97740  -0.00353   0.00000  -0.10009  -0.10009  27.87731
    Y6       20.91473  -0.00111   0.00000  -0.00743  -0.00743  20.90731
    Z6       16.69469   0.00144   0.00000   0.07360   0.07360  16.76829
    X7       17.70547   0.00253   0.00000   0.07253   0.07253  17.77799
    Y7       25.91684   0.00020   0.00000  -0.01850  -0.01850  25.89834
    Z7       28.90053  -0.00228   0.00000  -0.10270  -0.10270  28.79782
         Item               Value     Threshold  Converged?
 Maximum Force            0.003528     0.000450     NO 
 RMS     Force            0.001795     0.000300     NO 
 Maximum Displacement     0.122746     0.001800     NO 
 RMS     Displacement     0.065480     0.001200     NO 
 Predicted change in Energy=-1.549175D-03
 GradGradGradGradGradGradGradGradGradGradGradGradGradGradGradGradGradGrad

 Leave Link  103 at Mon Dec  4 00:27:08 2023, MaxMem=  1879048192 cpu:               0.2 elap:               0.0
 (Enter /home/sekinelabo/g16/l9999.exe)
 1\1\GINC-SEKINELABO-XA7R-R37\Force\UB3LYP\6-311+G(d)\Na7(2)\SEKINELABO
 \04-Dec-2023\0\\#P B3LYP/6-311+g(d) force\\DPGEN\\0,2\Na,9.80829,8.725
 63,10.5104\Na,12.7024,13.6464,10.3295\Na,8.66204,10.4567,13.1706\Na,13
 .0364,7.94401,8.90887\Na,12.3106,15.1389,13.6468\Na,14.805,11.0676,8.8
 3445\Na,9.36933,13.7146,15.2935\\Version=ES64L-G16RevB.01\State=2-A\HF
 =-1136.1053828\S2=0.789331\S2-1=0.\S2A=0.751023\RMSD=5.654e-09\RMSF=1.
 795e-03\Dipole=0.2477126,0.0980017,0.0127506\Quadrupole=0.1356229,-0.0
 197627,-0.1158602,0.3679545,-3.2959157,4.3395752\PG=C01 [X(Na7)]\\@


            THE IRISH PIG
 'TWAS AN EVENING IN NOVEMBER,
 AS I VERY WELL REMEMBER
 I WAS STROLLING DOWN THE STREET IN DRUNKEN PRIDE,
 BUT MY KNEES WERE ALL A'FLUTTER
 SO I LANDED IN THE GUTTER,
 AND A PIG CAME UP AND LAY DOWN BY MY SIDE.

 YES, I LAY THERE IN THE GUTTER
 THINKING THOUGHTS I COULD NOT UTTER
 WHEN A COLLEEN PASSING BY DID SOFTLY SAY,
 'YE CAN TELL A MAN THAT BOOZES
 BY THE COMPANY THAT HE CHOOSES.' -
 AT THAT, THE PIG GOT UP AND WALKED AWAY!
     -- THE ECONOMIST, AUGUST 23, 1986
 Job cpu time:       0 days  0 hours  3 minutes 50.2 seconds.
 Elapsed time:       0 days  0 hours  0 minutes 19.9 seconds.
 File lengths (MBytes):  RWF=     32 Int=      0 D2E=      0 Chk=      4 Scr=      1
 Normal termination of Gaussian 16 at Mon Dec  4 00:27:08 2023.
