 Set GAUSS_MDEF to "14GB".
 Entering Gaussian System, Link 0=g16
 Initial command:
 /home/sekinelabo/g16/l1.exe "/home/sekinelabo/g16temp/Gau-137300.inp" -scrdir="/home/sekinelabo/g16temp/"
 Entering Link 1 = /home/sekinelabo/g16/l1.exe PID=    137302.
  
 Copyright (c) 1988-2017, Gaussian, Inc.  All Rights Reserved.
  
 This is part of the Gaussian(R) 16 program.  It is based on
 the Gaussian(R) 09 system (copyright 2009, Gaussian, Inc.),
 the Gaussian(R) 03 system (copyright 2003, Gaussian, Inc.),
 the Gaussian(R) 98 system (copyright 1998, Gaussian, Inc.),
 the Gaussian(R) 94 system (copyright 1995, Gaussian, Inc.),
 the Gaussian 92(TM) system (copyright 1992, Gaussian, Inc.),
 the Gaussian 90(TM) system (copyright 1990, Gaussian, Inc.),
 the Gaussian 88(TM) system (copyright 1988, Gaussian, Inc.),
 the Gaussian 86(TM) system (copyright 1986, Carnegie Mellon
 University), and the Gaussian 82(TM) system (copyright 1983,
 Carnegie Mellon University). Gaussian is a federally registered
 trademark of Gaussian, Inc.
  
 This software contains proprietary and confidential information,
 including trade secrets, belonging to Gaussian, Inc.
  
 This software is provided under written license and may be
 used, copied, transmitted, or stored only in accord with that
 written license.
  
 The following legend is applicable only to US Government
 contracts under FAR:
  
                    RESTRICTED RIGHTS LEGEND
  
 Use, reproduction and disclosure by the US Government is
 subject to restrictions as set forth in subparagraphs (a)
 and (c) of the Commercial Computer Software - Restricted
 Rights clause in FAR 52.227-19.
  
 Gaussian, Inc.
 340 Quinnipiac St., Bldg. 40, Wallingford CT 06492
  
  
 ---------------------------------------------------------------
 Warning -- This program may not be used in any manner that
 competes with the business of Gaussian, Inc. or will provide
 assistance to any competitor of Gaussian, Inc.  The licensee
 of this program is prohibited from giving any competitor of
 Gaussian, Inc. access to this program.  By using this program,
 the user acknowledges that Gaussian, Inc. is engaged in the
 business of creating and licensing software in the field of
 computational chemistry and represents and warrants to the
 licensee that it is not a competitor of Gaussian, Inc. and that
 it will not use this program in any manner prohibited above.
 ---------------------------------------------------------------
  

 Cite this work as:
 Gaussian 16, Revision B.01,
 M. J. Frisch, G. W. Trucks, H. B. Schlegel, G. E. Scuseria, 
 M. A. Robb, J. R. Cheeseman, G. Scalmani, V. Barone, 
 G. A. Petersson, H. Nakatsuji, X. Li, M. Caricato, A. V. Marenich, 
 J. Bloino, B. G. Janesko, R. Gomperts, B. Mennucci, H. P. Hratchian, 
 J. V. Ortiz, A. F. Izmaylov, J. L. Sonnenberg, D. Williams-Young, 
 F. Ding, F. Lipparini, F. Egidi, J. Goings, B. Peng, A. Petrone, 
 T. Henderson, D. Ranasinghe, V. G. Zakrzewski, J. Gao, N. Rega, 
 G. Zheng, W. Liang, M. Hada, M. Ehara, K. Toyota, R. Fukuda, 
 J. Hasegawa, M. Ishida, T. Nakajima, Y. Honda, O. Kitao, H. Nakai, 
 T. Vreven, K. Throssell, J. A. Montgomery, Jr., J. E. Peralta, 
 F. Ogliaro, M. J. Bearpark, J. J. Heyd, E. N. Brothers, K. N. Kudin, 
 V. N. Staroverov, T. A. Keith, R. Kobayashi, J. Normand, 
 K. Raghavachari, A. P. Rendell, J. C. Burant, S. S. Iyengar, 
 J. Tomasi, M. Cossi, J. M. Millam, M. Klene, C. Adamo, R. Cammi, 
 J. W. Ochterski, R. L. Martin, K. Morokuma, O. Farkas, 
 J. B. Foresman, and D. J. Fox, Gaussian, Inc., Wallingford CT, 2016.
 
 ******************************************
 Gaussian 16:  ES64L-G16RevB.01 20-Dec-2017
                 9-Dec-2023 
 ******************************************
 %nproc=15
 Will use up to   15 processors via shared memory.
 -------------------------
 #P B3LYP/6-311+g(d) force
 -------------------------
 1/10=7,30=1,38=1/1,3;
 2/12=2,17=6,18=5,40=1/2;
 3/5=4,6=6,7=11,11=2,25=1,30=1,71=1,74=-5/1,2,3;
 4//1;
 5/5=2,38=5/2;
 6/7=2,8=2,9=2,10=2,28=1/1;
 7/29=1/1,2,3,16;
 1/10=7,30=1/3;
 99//99;
 Leave Link    1 at Sat Dec  9 07:04:00 2023, MaxMem=           0 cpu:               0.3 elap:               0.0
 (Enter /home/sekinelabo/g16/l101.exe)
 -----
 DPGEN
 -----
 Symbolic Z-matrix:
 Charge =  0 Multiplicity = 2
 Na                    12.0054   12.5865   10.929 
 Na                    13.7723   10.8329   12.6198 
 Na                    16.1713   12.5873   12.5566 
 Na                    13.7685   14.34     12.6202 
 Na                    10.213    14.3605   12.561 
 Na                    11.9517   12.5852   14.2532 
 Na                    10.2178   10.8076   12.5602 
 
 ITRead=  0  0  0  0  0  0  0
 MicOpt= -1 -1 -1 -1 -1 -1 -1
 NAtoms=      7 NQM=        7 NQMF=       0 NMMI=      0 NMMIF=      0
                NMic=       0 NMicF=      0.
                    Isotopes and Nuclear Properties:
 (Nuclear quadrupole moments (NQMom) in fm**2, nuclear magnetic moments (NMagM)
  in nuclear magnetons)

  Atom         1           2           3           4           5           6           7
 IAtWgt=          23          23          23          23          23          23          23
 AtmWgt=  22.9897697  22.9897697  22.9897697  22.9897697  22.9897697  22.9897697  22.9897697
 NucSpn=           3           3           3           3           3           3           3
 AtZEff=  -0.0000000  -0.0000000  -0.0000000  -0.0000000  -0.0000000  -0.0000000  -0.0000000
 NQMom=   10.4000000  10.4000000  10.4000000  10.4000000  10.4000000  10.4000000  10.4000000
 NMagM=    2.2175200   2.2175200   2.2175200   2.2175200   2.2175200   2.2175200   2.2175200
 AtZNuc=  11.0000000  11.0000000  11.0000000  11.0000000  11.0000000  11.0000000  11.0000000
 Leave Link  101 at Sat Dec  9 07:04:00 2023, MaxMem=  1879048192 cpu:               2.5 elap:               0.2
 (Enter /home/sekinelabo/g16/l103.exe)

 GradGradGradGradGradGradGradGradGradGradGradGradGradGradGradGradGradGrad
 Berny optimization.
 Initialization pass.
 Trust Radius=3.00D-01 FncErr=1.00D-07 GrdErr=1.00D-07 EigMax=2.50D+02 EigMin=1.00D-04
 Number of steps in this run=      2 maximum allowed number of steps=      2.
 GradGradGradGradGradGradGradGradGradGradGradGradGradGradGradGradGradGrad

 Leave Link  103 at Sat Dec  9 07:04:00 2023, MaxMem=  1879048192 cpu:               0.2 elap:               0.0
 (Enter /home/sekinelabo/g16/l202.exe)
                          Input orientation:                          
 ---------------------------------------------------------------------
 Center     Atomic      Atomic             Coordinates (Angstroms)
 Number     Number       Type             X           Y           Z
 ---------------------------------------------------------------------
      1         11           0       12.005400   12.586500   10.929000
      2         11           0       13.772300   10.832900   12.619800
      3         11           0       16.171300   12.587300   12.556600
      4         11           0       13.768500   14.340000   12.620200
      5         11           0       10.213000   14.360500   12.561000
      6         11           0       11.951700   12.585200   14.253200
      7         11           0       10.217800   10.807600   12.560200
 ---------------------------------------------------------------------
                    Distance matrix (angstroms):
                    1          2          3          4          5
     1  Na   0.000000
     2  Na   3.009294   0.000000
     3  Na   4.472561   2.972728   0.000000
     4  Na   3.007232   3.507102   2.974803   0.000000
     5  Na   3.003864   5.011590   6.216558   3.556052   0.000000
     6  Na   3.324634   3.008843   4.547909   3.007786   3.006378
     7  Na   3.003467   3.555090   6.213816   5.008884   3.552903
                    6          7
     6  Na   0.000000
     7  Na   3.005415   0.000000
 Stoichiometry    Na7(2)
 Framework group  C1[X(Na7)]
 Deg. of freedom    15
 Full point group                 C1      NOp   1
 Largest Abelian subgroup         C1      NOp   1
 Largest concise Abelian subgroup C1      NOp   1
                         Standard orientation:                         
 ---------------------------------------------------------------------
 Center     Atomic      Atomic             Coordinates (Angstroms)
 Number     Number       Type             X           Y           Z
 ---------------------------------------------------------------------
      1         11           0        0.580314   -0.000786   -1.656714
      2         11           0       -1.186586    1.752814    0.034086
      3         11           0       -3.585586   -0.001586   -0.029114
      4         11           0       -1.182786   -1.754286    0.034486
      5         11           0        2.372714   -1.774785   -0.024714
      6         11           0        0.634014    0.000514    1.667486
      7         11           0        2.367914    1.778115   -0.025514
 ---------------------------------------------------------------------
 Rotational constants (GHZ):           1.2218692           0.6627588           0.5481941
 Leave Link  202 at Sat Dec  9 07:04:00 2023, MaxMem=  1879048192 cpu:               0.0 elap:               0.0
 (Enter /home/sekinelabo/g16/l301.exe)
 Standard basis: 6-311+G(d) (5D, 7F)
 Ernie: Thresh=  0.10000D-02 Tol=  0.10000D-05 Strict=F.
 There are   217 symmetry adapted cartesian basis functions of A   symmetry.
 There are   210 symmetry adapted basis functions of A   symmetry.
   210 basis functions,   350 primitive gaussians,   217 cartesian basis functions
    39 alpha electrons       38 beta electrons
       nuclear repulsion energy       379.5558197652 Hartrees.
 IExCor=  402 DFT=T Ex+Corr=B3LYP ExCW=0 ScaHFX=  0.200000
 ScaDFX=  0.800000  0.720000  1.000000  0.810000 ScalE2=  1.000000  1.000000
 IRadAn=      5 IRanWt=     -1 IRanGd=            0 ICorTp=0 IEmpDi=  4
 NAtoms=    7 NActive=    7 NUniq=    7 SFac= 1.00D+00 NAtFMM=   60 NAOKFM=F Big=F
 Integral buffers will be    131072 words long.
 Raffenetti 2 integral format.
 Two-electron integral symmetry is turned on.
 Leave Link  301 at Sat Dec  9 07:04:00 2023, MaxMem=  1879048192 cpu:               0.5 elap:               0.0
 (Enter /home/sekinelabo/g16/l302.exe)
 NPDir=0 NMtPBC=     1 NCelOv=     1 NCel=       1 NClECP=     1 NCelD=      1
         NCelK=      1 NCelE2=     1 NClLst=     1 CellRange=     0.0.
 One-electron integrals computed using PRISM.
 One-electron integral symmetry used in STVInt
 NBasis=   210 RedAO= T EigKep=  6.62D-06  NBF=   210
 NBsUse=   209 1.00D-06 EigRej=  4.16D-07 NBFU=   209
 Precomputing XC quadrature grid using
 IXCGrd= 4 IRadAn=           5 IRanWt=          -1 IRanGd=           0 AccXCQ= 0.00D+00.
 Generated NRdTot=       0 NPtTot=           0 NUsed=           0 NTot=          32
 NSgBfM=   210   210   210   210   210 MxSgAt=     7 MxSgA2=     7.
 Leave Link  302 at Sat Dec  9 07:04:01 2023, MaxMem=  1879048192 cpu:               2.0 elap:               0.1
 (Enter /home/sekinelabo/g16/l303.exe)
 DipDrv:  MaxL=1.
 Leave Link  303 at Sat Dec  9 07:04:01 2023, MaxMem=  1879048192 cpu:               0.5 elap:               0.0
 (Enter /home/sekinelabo/g16/l401.exe)
 ExpMin= 7.60D-03 ExpMax= 3.62D+04 ExpMxC= 1.21D+03 IAcc=3 IRadAn=         5 AccDes= 0.00D+00
 Harris functional with IExCor=  402 and IRadAn=       5 diagonalized for initial guess.
 HarFok:  IExCor=  402 AccDes= 0.00D+00 IRadAn=         5 IDoV= 1 UseB2=F ITyADJ=14
 ICtDFT=  3500011 ScaDFX=  1.000000  1.000000  1.000000  1.000000
 FoFCou: FMM=F IPFlag=           0 FMFlag=      100000 FMFlg1=           0
         NFxFlg=           0 DoJE=T BraDBF=F KetDBF=T FulRan=T
         wScrn=  0.000000 ICntrl=       500 IOpCl=  0 I1Cent=   200000004 NGrid=           0
         NMat0=    1 NMatS0=      1 NMatT0=    0 NMatD0=    1 NMtDS0=    0 NMtDT0=    0
 Petite list used in FoFCou.
 Harris En= -1135.88274542125    
 JPrj=0 DoOrth=F DoCkMO=F.
 Initial guess <Sx>= 0.0000 <Sy>= 0.0000 <Sz>= 0.5000 <S**2>= 0.7500 S= 0.5000
 Leave Link  401 at Sat Dec  9 07:04:01 2023, MaxMem=  1879048192 cpu:               4.4 elap:               0.3
 (Enter /home/sekinelabo/g16/l502.exe)
 Keep R1 and R2 ints in memory in canonical form, NReq=506573321.
 FoFCou: FMM=F IPFlag=           0 FMFlag=           0 FMFlg1=           0
         NFxFlg=           0 DoJE=F BraDBF=F KetDBF=F FulRan=T
         wScrn=  0.000000 ICntrl=       600 IOpCl=  0 I1Cent=           0 NGrid=           0
         NMat0=    1 NMatS0=  22155 NMatT0=    0 NMatD0=    1 NMtDS0=    0 NMtDT0=    0
 Symmetry not used in FoFCou.
 Two-electron integral symmetry not used.
 UHF open shell SCF:
 Using DIIS extrapolation, IDIIS=  1040.
 NGot=  1879048192 LenX=  1388082579 LenY=  1388035049
 Requested convergence on RMS density matrix=1.00D-08 within 128 cycles.
 Requested convergence on MAX density matrix=1.00D-06.
 Requested convergence on             energy=1.00D-06.
 No special actions if energy rises.

 Cycle   1  Pass 1  IDiag  1:
 E= -1136.06072743671    
 DIIS: error= 1.49D-02 at cycle   1 NSaved=   1.
 NSaved= 1 IEnMin= 1 EnMin= -1136.06072743671     IErMin= 1 ErrMin= 1.49D-02
 ErrMax= 1.49D-02  0.00D+00 EMaxC= 1.00D-01 BMatC= 2.08D-01 BMatP= 2.08D-01
 IDIUse=3 WtCom= 8.51D-01 WtEn= 1.49D-01
 Coeff-Com:  0.100D+01
 Coeff-En:   0.100D+01
 Coeff:      0.100D+01
 Gap=     0.027 Goal=   None    Shift=    0.000
 Gap=     0.043 Goal=   None    Shift=    0.000
 GapD=    0.027 DampG=0.250 DampE=0.500 DampFc=0.2500 IDamp=-1.
 Damping current iteration by 2.50D-01
 RMSDP=6.83D-02 MaxDP=5.59D+00              OVMax= 3.11D-01

 Cycle   2  Pass 1  IDiag  1:
 E= -1136.07784072047     Delta-E=       -0.017113283752 Rises=F Damp=T
 DIIS: error= 1.00D-02 at cycle   2 NSaved=   2.
 NSaved= 2 IEnMin= 2 EnMin= -1136.07784072047     IErMin= 2 ErrMin= 1.00D-02
 ErrMax= 1.00D-02  0.00D+00 EMaxC= 1.00D-01 BMatC= 7.69D-02 BMatP= 2.08D-01
 IDIUse=3 WtCom= 9.00D-01 WtEn= 1.00D-01
 Coeff-Com: -0.120D+01 0.220D+01
 Coeff-En:   0.000D+00 0.100D+01
 Coeff:     -0.108D+01 0.208D+01
 Gap=     0.049 Goal=   None    Shift=    0.000
 Gap=     0.054 Goal=   None    Shift=    0.000
 RMSDP=2.87D-02 MaxDP=2.54D+00 DE=-1.71D-02 OVMax= 2.51D-01

 Cycle   3  Pass 1  IDiag  1:
 E= -1136.10157823339     Delta-E=       -0.023737512926 Rises=F Damp=F
 DIIS: error= 4.93D-03 at cycle   3 NSaved=   3.
 NSaved= 3 IEnMin= 3 EnMin= -1136.10157823339     IErMin= 3 ErrMin= 4.93D-03
 ErrMax= 4.93D-03  0.00D+00 EMaxC= 1.00D-01 BMatC= 8.78D-03 BMatP= 7.69D-02
 IDIUse=3 WtCom= 9.51D-01 WtEn= 4.93D-02
 Coeff-Com: -0.413D+00 0.745D+00 0.668D+00
 Coeff-En:   0.000D+00 0.000D+00 0.100D+01
 Coeff:     -0.392D+00 0.708D+00 0.684D+00
 Gap=     0.039 Goal=   None    Shift=    0.000
 Gap=     0.045 Goal=   None    Shift=    0.000
 RMSDP=1.76D-02 MaxDP=1.18D+00 DE=-2.37D-02 OVMax= 1.51D-01

 Cycle   4  Pass 1  IDiag  1:
 E= -1136.10093637506     Delta-E=        0.000641858335 Rises=F Damp=F
 DIIS: error= 6.04D-03 at cycle   4 NSaved=   4.
 NSaved= 4 IEnMin= 3 EnMin= -1136.10157823339     IErMin= 3 ErrMin= 4.93D-03
 ErrMax= 6.04D-03  0.00D+00 EMaxC= 1.00D-01 BMatC= 7.50D-03 BMatP= 8.78D-03
 IDIUse=3 WtCom= 9.40D-01 WtEn= 6.04D-02
 Coeff-Com: -0.313D-01 0.603D-01 0.472D+00 0.499D+00
 Coeff-En:   0.000D+00 0.000D+00 0.517D+00 0.483D+00
 Coeff:     -0.294D-01 0.566D-01 0.475D+00 0.498D+00
 Gap=     0.043 Goal=   None    Shift=    0.000
 Gap=     0.046 Goal=   None    Shift=    0.000
 RMSDP=4.65D-03 MaxDP=3.10D-01 DE= 6.42D-04 OVMax= 1.01D-01

 Cycle   5  Pass 1  IDiag  1:
 E= -1136.10754250397     Delta-E=       -0.006606128911 Rises=F Damp=F
 DIIS: error= 2.24D-03 at cycle   5 NSaved=   5.
 NSaved= 5 IEnMin= 5 EnMin= -1136.10754250397     IErMin= 5 ErrMin= 2.24D-03
 ErrMax= 2.24D-03  0.00D+00 EMaxC= 1.00D-01 BMatC= 1.12D-03 BMatP= 7.50D-03
 IDIUse=3 WtCom= 9.78D-01 WtEn= 2.24D-02
 Coeff-Com:  0.300D-02-0.451D-02 0.277D+00 0.342D+00 0.382D+00
 Coeff-En:   0.000D+00 0.000D+00 0.000D+00 0.145D+00 0.855D+00
 Coeff:      0.293D-02-0.441D-02 0.271D+00 0.338D+00 0.392D+00
 Gap=     0.043 Goal=   None    Shift=    0.000
 Gap=     0.045 Goal=   None    Shift=    0.000
 RMSDP=1.35D-03 MaxDP=7.83D-02 DE=-6.61D-03 OVMax= 3.10D-02

 Cycle   6  Pass 1  IDiag  1:
 E= -1136.10869496120     Delta-E=       -0.001152457227 Rises=F Damp=F
 DIIS: error= 1.84D-04 at cycle   6 NSaved=   6.
 NSaved= 6 IEnMin= 6 EnMin= -1136.10869496120     IErMin= 6 ErrMin= 1.84D-04
 ErrMax= 1.84D-04  0.00D+00 EMaxC= 1.00D-01 BMatC= 6.05D-06 BMatP= 1.12D-03
 IDIUse=3 WtCom= 9.98D-01 WtEn= 1.84D-03
 Coeff-Com: -0.170D-02 0.194D-02-0.236D-01-0.346D-01 0.293D-01 0.103D+01
 Coeff-En:   0.000D+00 0.000D+00 0.000D+00 0.000D+00 0.000D+00 0.100D+01
 Coeff:     -0.170D-02 0.193D-02-0.236D-01-0.346D-01 0.293D-01 0.103D+01
 Gap=     0.044 Goal=   None    Shift=    0.000
 Gap=     0.046 Goal=   None    Shift=    0.000
 RMSDP=5.31D-04 MaxDP=5.69D-02 DE=-1.15D-03 OVMax= 3.41D-03

 Cycle   7  Pass 1  IDiag  1:
 E= -1136.10870457580     Delta-E=       -0.000009614608 Rises=F Damp=F
 DIIS: error= 3.87D-05 at cycle   7 NSaved=   7.
 NSaved= 7 IEnMin= 7 EnMin= -1136.10870457580     IErMin= 7 ErrMin= 3.87D-05
 ErrMax= 3.87D-05  0.00D+00 EMaxC= 1.00D-01 BMatC= 2.60D-07 BMatP= 6.05D-06
 IDIUse=1 WtCom= 1.00D+00 WtEn= 0.00D+00
 Coeff-Com:  0.177D-03-0.284D-03-0.695D-02-0.893D-02-0.645D-02 0.787D-01
 Coeff-Com:  0.944D+00
 Coeff:      0.177D-03-0.284D-03-0.695D-02-0.893D-02-0.645D-02 0.787D-01
 Coeff:      0.944D+00
 Gap=     0.044 Goal=   None    Shift=    0.000
 Gap=     0.046 Goal=   None    Shift=    0.000
 RMSDP=1.30D-04 MaxDP=1.55D-02 DE=-9.61D-06 OVMax= 1.61D-03

 Cycle   8  Pass 1  IDiag  1:
 E= -1136.10870548010     Delta-E=       -0.000000904297 Rises=F Damp=F
 DIIS: error= 3.03D-05 at cycle   8 NSaved=   8.
 NSaved= 8 IEnMin= 8 EnMin= -1136.10870548010     IErMin= 8 ErrMin= 3.03D-05
 ErrMax= 3.03D-05  0.00D+00 EMaxC= 1.00D-01 BMatC= 1.20D-07 BMatP= 2.60D-07
 IDIUse=1 WtCom= 1.00D+00 WtEn= 0.00D+00
 Coeff-Com:  0.288D-03-0.361D-03 0.240D-03 0.246D-02-0.964D-02-0.155D+00
 Coeff-Com:  0.308D+00 0.854D+00
 Coeff:      0.288D-03-0.361D-03 0.240D-03 0.246D-02-0.964D-02-0.155D+00
 Coeff:      0.308D+00 0.854D+00
 Gap=     0.044 Goal=   None    Shift=    0.000
 Gap=     0.046 Goal=   None    Shift=    0.000
 RMSDP=8.62D-05 MaxDP=9.62D-03 DE=-9.04D-07 OVMax= 1.47D-03

 Cycle   9  Pass 1  IDiag  1:
 E= -1136.10870593336     Delta-E=       -0.000000453254 Rises=F Damp=F
 DIIS: error= 1.38D-05 at cycle   9 NSaved=   9.
 NSaved= 9 IEnMin= 9 EnMin= -1136.10870593336     IErMin= 9 ErrMin= 1.38D-05
 ErrMax= 1.38D-05  0.00D+00 EMaxC= 1.00D-01 BMatC= 2.13D-08 BMatP= 1.20D-07
 IDIUse=1 WtCom= 1.00D+00 WtEn= 0.00D+00
 Coeff-Com: -0.137D-03 0.202D-03 0.169D-02 0.170D-02 0.303D-02 0.529D-02
 Coeff-Com: -0.289D+00-0.293D+00 0.157D+01
 Coeff:     -0.137D-03 0.202D-03 0.169D-02 0.170D-02 0.303D-02 0.529D-02
 Coeff:     -0.289D+00-0.293D+00 0.157D+01
 Gap=     0.044 Goal=   None    Shift=    0.000
 Gap=     0.046 Goal=   None    Shift=    0.000
 RMSDP=6.24D-05 MaxDP=5.49D-03 DE=-4.53D-07 OVMax= 1.45D-03

 Cycle  10  Pass 1  IDiag  1:
 E= -1136.10870615717     Delta-E=       -0.000000223818 Rises=F Damp=F
 DIIS: error= 5.80D-06 at cycle  10 NSaved=  10.
 NSaved=10 IEnMin=10 EnMin= -1136.10870615717     IErMin=10 ErrMin= 5.80D-06
 ErrMax= 5.80D-06  0.00D+00 EMaxC= 1.00D-01 BMatC= 7.05D-09 BMatP= 2.13D-08
 IDIUse=1 WtCom= 1.00D+00 WtEn= 0.00D+00
 Coeff-Com: -0.710D-04 0.101D-03 0.102D-02 0.616D-03 0.307D-02 0.195D-01
 Coeff-Com: -0.161D+00-0.239D+00 0.642D+00 0.734D+00
 Coeff:     -0.710D-04 0.101D-03 0.102D-02 0.616D-03 0.307D-02 0.195D-01
 Coeff:     -0.161D+00-0.239D+00 0.642D+00 0.734D+00
 Gap=     0.044 Goal=   None    Shift=    0.000
 Gap=     0.046 Goal=   None    Shift=    0.000
 RMSDP=1.62D-05 MaxDP=1.55D-03 DE=-2.24D-07 OVMax= 3.85D-04

 Cycle  11  Pass 1  IDiag  1:
 E= -1136.10870618066     Delta-E=       -0.000000023485 Rises=F Damp=F
 DIIS: error= 2.72D-06 at cycle  11 NSaved=  11.
 NSaved=11 IEnMin=11 EnMin= -1136.10870618066     IErMin=11 ErrMin= 2.72D-06
 ErrMax= 2.72D-06  0.00D+00 EMaxC= 1.00D-01 BMatC= 2.67D-09 BMatP= 7.05D-09
 IDIUse=1 WtCom= 1.00D+00 WtEn= 0.00D+00
 Coeff-Com: -0.307D-05 0.434D-06 0.162D-03-0.127D-03 0.119D-02 0.112D-01
 Coeff-Com: -0.355D-02-0.405D-01-0.164D+00 0.450D+00 0.746D+00
 Coeff:     -0.307D-05 0.434D-06 0.162D-03-0.127D-03 0.119D-02 0.112D-01
 Coeff:     -0.355D-02-0.405D-01-0.164D+00 0.450D+00 0.746D+00
 Gap=     0.044 Goal=   None    Shift=    0.000
 Gap=     0.046 Goal=   None    Shift=    0.000
 RMSDP=8.35D-06 MaxDP=6.94D-04 DE=-2.35D-08 OVMax= 2.27D-04

 Cycle  12  Pass 1  IDiag  1:
 E= -1136.10870618747     Delta-E=       -0.000000006809 Rises=F Damp=F
 DIIS: error= 5.82D-07 at cycle  12 NSaved=  12.
 NSaved=12 IEnMin=12 EnMin= -1136.10870618747     IErMin=12 ErrMin= 5.82D-07
 ErrMax= 5.82D-07  0.00D+00 EMaxC= 1.00D-01 BMatC= 1.66D-10 BMatP= 2.67D-09
 IDIUse=1 WtCom= 1.00D+00 WtEn= 0.00D+00
 Coeff-Com: -0.928D-05 0.101D-04-0.147D-03-0.150D-03-0.801D-04 0.234D-02
 Coeff-Com:  0.174D-01 0.288D-01-0.137D+00-0.117D-01 0.187D+00 0.913D+00
 Coeff:     -0.928D-05 0.101D-04-0.147D-03-0.150D-03-0.801D-04 0.234D-02
 Coeff:      0.174D-01 0.288D-01-0.137D+00-0.117D-01 0.187D+00 0.913D+00
 Gap=     0.044 Goal=   None    Shift=    0.000
 Gap=     0.046 Goal=   None    Shift=    0.000
 RMSDP=2.36D-06 MaxDP=1.83D-04 DE=-6.81D-09 OVMax= 5.30D-05

 Cycle  13  Pass 1  IDiag  1:
 E= -1136.10870618793     Delta-E=       -0.000000000462 Rises=F Damp=F
 DIIS: error= 3.66D-07 at cycle  13 NSaved=  13.
 NSaved=13 IEnMin=13 EnMin= -1136.10870618793     IErMin=13 ErrMin= 3.66D-07
 ErrMax= 3.66D-07  0.00D+00 EMaxC= 1.00D-01 BMatC= 4.18D-11 BMatP= 1.66D-10
 IDIUse=1 WtCom= 1.00D+00 WtEn= 0.00D+00
 Coeff-Com: -0.167D-05 0.140D-05-0.931D-04-0.696D-04-0.161D-03 0.257D-04
 Coeff-Com:  0.941D-02 0.168D-01-0.525D-01-0.444D-01 0.288D-01 0.452D+00
 Coeff-Com:  0.590D+00
 Coeff:     -0.167D-05 0.140D-05-0.931D-04-0.696D-04-0.161D-03 0.257D-04
 Coeff:      0.941D-02 0.168D-01-0.525D-01-0.444D-01 0.288D-01 0.452D+00
 Coeff:      0.590D+00
 Gap=     0.044 Goal=   None    Shift=    0.000
 Gap=     0.046 Goal=   None    Shift=    0.000
 RMSDP=7.45D-07 MaxDP=8.54D-05 DE=-4.62D-10 OVMax= 1.04D-05

 Cycle  14  Pass 1  IDiag  1:
 E= -1136.10870618796     Delta-E=       -0.000000000033 Rises=F Damp=F
 DIIS: error= 1.64D-07 at cycle  14 NSaved=  14.
 NSaved=14 IEnMin=14 EnMin= -1136.10870618796     IErMin=14 ErrMin= 1.64D-07
 ErrMax= 1.64D-07  0.00D+00 EMaxC= 1.00D-01 BMatC= 9.54D-12 BMatP= 4.18D-11
 IDIUse=1 WtCom= 1.00D+00 WtEn= 0.00D+00
 Coeff-Com:  0.406D-05-0.517D-05-0.896D-05 0.660D-05-0.806D-04-0.931D-03
 Coeff-Com:  0.110D-03-0.946D-03 0.162D-01-0.209D-01-0.449D-01-0.467D-01
 Coeff-Com:  0.322D+00 0.776D+00
 Coeff:      0.406D-05-0.517D-05-0.896D-05 0.660D-05-0.806D-04-0.931D-03
 Coeff:      0.110D-03-0.946D-03 0.162D-01-0.209D-01-0.449D-01-0.467D-01
 Coeff:      0.322D+00 0.776D+00
 Gap=     0.044 Goal=   None    Shift=    0.000
 Gap=     0.046 Goal=   None    Shift=    0.000
 RMSDP=6.41D-07 MaxDP=7.68D-05 DE=-3.32D-11 OVMax= 6.75D-06

 Cycle  15  Pass 1  IDiag  1:
 E= -1136.10870618799     Delta-E=       -0.000000000026 Rises=F Damp=F
 DIIS: error= 4.55D-08 at cycle  15 NSaved=  15.
 NSaved=15 IEnMin=15 EnMin= -1136.10870618799     IErMin=15 ErrMin= 4.55D-08
 ErrMax= 4.55D-08  0.00D+00 EMaxC= 1.00D-01 BMatC= 6.53D-13 BMatP= 9.54D-12
 IDIUse=1 WtCom= 1.00D+00 WtEn= 0.00D+00
 Coeff-Com:  0.226D-06-0.150D-06 0.799D-05 0.920D-05 0.866D-05-0.143D-03
 Coeff-Com: -0.122D-02-0.263D-02 0.994D-02 0.264D-02-0.113D-01-0.731D-01
 Coeff-Com: -0.425D-02 0.186D+00 0.894D+00
 Coeff:      0.226D-06-0.150D-06 0.799D-05 0.920D-05 0.866D-05-0.143D-03
 Coeff:     -0.122D-02-0.263D-02 0.994D-02 0.264D-02-0.113D-01-0.731D-01
 Coeff:     -0.425D-02 0.186D+00 0.894D+00
 Gap=     0.044 Goal=   None    Shift=    0.000
 Gap=     0.046 Goal=   None    Shift=    0.000
 RMSDP=1.83D-07 MaxDP=2.25D-05 DE=-2.59D-11 OVMax= 2.39D-06

 Cycle  16  Pass 1  IDiag  1:
 E= -1136.10870618800     Delta-E=       -0.000000000010 Rises=F Damp=F
 DIIS: error= 2.68D-08 at cycle  16 NSaved=  16.
 NSaved=16 IEnMin=16 EnMin= -1136.10870618800     IErMin=16 ErrMin= 2.68D-08
 ErrMax= 2.68D-08  0.00D+00 EMaxC= 1.00D-01 BMatC= 1.37D-13 BMatP= 6.53D-13
 IDIUse=1 WtCom= 1.00D+00 WtEn= 0.00D+00
 Coeff-Com: -0.804D-06 0.106D-05 0.359D-05 0.130D-06 0.202D-04 0.136D-03
 Coeff-Com: -0.148D-03-0.155D-03-0.173D-02 0.490D-02 0.698D-02-0.121D-01
 Coeff-Com: -0.567D-01-0.761D-01 0.207D+00 0.927D+00
 Coeff:     -0.804D-06 0.106D-05 0.359D-05 0.130D-06 0.202D-04 0.136D-03
 Coeff:     -0.148D-03-0.155D-03-0.173D-02 0.490D-02 0.698D-02-0.121D-01
 Coeff:     -0.567D-01-0.761D-01 0.207D+00 0.927D+00
 Gap=     0.044 Goal=   None    Shift=    0.000
 Gap=     0.046 Goal=   None    Shift=    0.000
 RMSDP=6.20D-08 MaxDP=4.63D-06 DE=-9.55D-12 OVMax= 1.45D-06

 Cycle  17  Pass 1  IDiag  1:
 E= -1136.10870618800     Delta-E=       -0.000000000004 Rises=F Damp=F
 DIIS: error= 8.26D-09 at cycle  17 NSaved=  17.
 NSaved=17 IEnMin=17 EnMin= -1136.10870618800     IErMin=17 ErrMin= 8.26D-09
 ErrMax= 8.26D-09  0.00D+00 EMaxC= 1.00D-01 BMatC= 1.67D-14 BMatP= 1.37D-13
 IDIUse=1 WtCom= 1.00D+00 WtEn= 0.00D+00
 Coeff-Com:  0.266D-06-0.373D-06-0.186D-05-0.121D-05-0.737D-05-0.964D-05
 Coeff-Com:  0.175D-03 0.462D-03-0.834D-03-0.222D-02-0.190D-03 0.155D-01
 Coeff-Com:  0.164D-01-0.481D-02-0.209D+00-0.260D+00 0.144D+01
 Coeff:      0.266D-06-0.373D-06-0.186D-05-0.121D-05-0.737D-05-0.964D-05
 Coeff:      0.175D-03 0.462D-03-0.834D-03-0.222D-02-0.190D-03 0.155D-01
 Coeff:      0.164D-01-0.481D-02-0.209D+00-0.260D+00 0.144D+01
 Gap=     0.044 Goal=   None    Shift=    0.000
 Gap=     0.046 Goal=   None    Shift=    0.000
 RMSDP=3.48D-08 MaxDP=1.71D-06 DE=-4.09D-12 OVMax= 1.27D-06

 Cycle  18  Pass 1  IDiag  1:
 E= -1136.10870618800     Delta-E=       -0.000000000000 Rises=F Damp=F
 DIIS: error= 3.26D-09 at cycle  18 NSaved=  18.
 NSaved=18 IEnMin=18 EnMin= -1136.10870618800     IErMin=18 ErrMin= 3.26D-09
 ErrMax= 3.26D-09  0.00D+00 EMaxC= 1.00D-01 BMatC= 2.70D-15 BMatP= 1.67D-14
 IDIUse=1 WtCom= 1.00D+00 WtEn= 0.00D+00
 Large coefficients: NSaved= 18 BigCof=    0.00 CofMax=   10.00 Det=-2.70D-15
 Inversion failed.  Reducing to 17 matrices.
 Large coefficients: NSaved= 17 BigCof=    0.00 CofMax=   10.00 Det=-2.89D-15
 Inversion failed.  Reducing to 16 matrices.
 Large coefficients: NSaved= 16 BigCof=    0.00 CofMax=   10.00 Det=-2.90D-15
 Inversion failed.  Reducing to 15 matrices.
 Coeff-Com: -0.419D-06-0.201D-05-0.181D-04-0.853D-05-0.793D-04 0.456D-03
 Coeff-Com: -0.651D-03-0.933D-03 0.129D-02 0.471D-02 0.867D-02 0.255D-02
 Coeff-Com: -0.124D+00-0.197D+00 0.131D+01
 Coeff:     -0.419D-06-0.201D-05-0.181D-04-0.853D-05-0.793D-04 0.456D-03
 Coeff:     -0.651D-03-0.933D-03 0.129D-02 0.471D-02 0.867D-02 0.255D-02
 Coeff:     -0.124D+00-0.197D+00 0.131D+01
 Gap=     0.044 Goal=   None    Shift=    0.000
 Gap=     0.046 Goal=   None    Shift=    0.000
 RMSDP=2.02D-08 MaxDP=1.81D-06 DE=-4.55D-13 OVMax= 5.95D-07

 Cycle  19  Pass 1  IDiag  1:
 E= -1136.10870618800     Delta-E=       -0.000000000001 Rises=F Damp=F
 DIIS: error= 1.37D-09 at cycle  19 NSaved=  16.
 NSaved=16 IEnMin=16 EnMin= -1136.10870618800     IErMin=16 ErrMin= 1.37D-09
 ErrMax= 1.37D-09  0.00D+00 EMaxC= 1.00D-01 BMatC= 4.34D-16 BMatP= 2.70D-15
 IDIUse=1 WtCom= 1.00D+00 WtEn= 0.00D+00
 Large coefficients: NSaved= 16 BigCof=    0.00 CofMax=   10.00 Det=-7.11D-16
 Inversion failed.  Reducing to 15 matrices.
 Coeff-Com:  0.194D-06-0.366D-06-0.200D-04-0.711D-04 0.185D-03 0.108D-03
 Coeff-Com: -0.158D-03-0.157D-02-0.174D-03 0.339D-02 0.130D-01 0.446D-02
 Coeff-Com: -0.153D+00 0.189D+00 0.945D+00
 Coeff:      0.194D-06-0.366D-06-0.200D-04-0.711D-04 0.185D-03 0.108D-03
 Coeff:     -0.158D-03-0.157D-02-0.174D-03 0.339D-02 0.130D-01 0.446D-02
 Coeff:     -0.153D+00 0.189D+00 0.945D+00
 Gap=     0.044 Goal=   None    Shift=    0.000
 Gap=     0.046 Goal=   None    Shift=    0.000
 RMSDP=7.17D-09 MaxDP=6.72D-07 DE=-9.09D-13 OVMax= 1.45D-07

 SCF Done:  E(UB3LYP) =  -1136.10870619     A.U. after   19 cycles
            NFock= 19  Conv=0.72D-08     -V/T= 2.0025
 <Sx>= 0.0000 <Sy>= 0.0000 <Sz>= 0.5000 <S**2>= 0.7594 S= 0.5047
 <L.S>= 0.000000000000E+00
 KE= 1.133236943078D+03 PE=-3.488677367354D+03 EE= 8.397758983224D+02
 Annihilation of the first spin contaminant:
 S**2 before annihilation     0.7594,   after     0.7501
 Leave Link  502 at Sat Dec  9 07:04:17 2023, MaxMem=  1879048192 cpu:             176.9 elap:              15.8
 (Enter /home/sekinelabo/g16/l601.exe)
 Copying SCF densities to generalized density rwf, IOpCl= 1 IROHF=0.

 **********************************************************************

            Population analysis using the SCF Density.

 **********************************************************************

 Orbital symmetries:
 Alpha Orbitals:
       Occupied  (A) (A) (A) (A) (A) (A) (A) (A) (A) (A) (A) (A)
                 (A) (A) (A) (A) (A) (A) (A) (A) (A) (A) (A) (A)
                 (A) (A) (A) (A) (A) (A) (A) (A) (A) (A) (A) (A)
                 (A) (A) (A)
       Virtual   (A) (A) (A) (A) (A) (A) (A) (A) (A) (A) (A) (A)
                 (A) (A) (A) (A) (A) (A) (A) (A) (A) (A) (A) (A)
                 (A) (A) (A) (A) (A) (A) (A) (A) (A) (A) (A) (A)
                 (A) (A) (A) (A) (A) (A) (A) (A) (A) (A) (A) (A)
                 (A) (A) (A) (A) (A) (A) (A) (A) (A) (A) (A) (A)
                 (A) (A) (A) (A) (A) (A) (A) (A) (A) (A) (A) (A)
                 (A) (A) (A) (A) (A) (A) (A) (A) (A) (A) (A) (A)
                 (A) (A) (A) (A) (A) (A) (A) (A) (A) (A) (A) (A)
                 (A) (A) (A) (A) (A) (A) (A) (A) (A) (A) (A) (A)
                 (A) (A) (A) (A) (A) (A) (A) (A) (A) (A) (A) (A)
                 (A) (A) (A) (A) (A) (A) (A) (A) (A) (A) (A) (A)
                 (A) (A) (A) (A) (A) (A) (A) (A) (A) (A) (A) (A)
                 (A) (A) (A) (A) (A) (A) (A) (A) (A) (A) (A) (A)
                 (A) (A) (A) (A) (A) (A) (A) (A) (A) (A) (A) (A)
                 (A) (A)
 Beta  Orbitals:
       Occupied  (A) (A) (A) (A) (A) (A) (A) (A) (A) (A) (A) (A)
                 (A) (A) (A) (A) (A) (A) (A) (A) (A) (A) (A) (A)
                 (A) (A) (A) (A) (A) (A) (A) (A) (A) (A) (A) (A)
                 (A) (A)
       Virtual   (A) (A) (A) (A) (A) (A) (A) (A) (A) (A) (A) (A)
                 (A) (A) (A) (A) (A) (A) (A) (A) (A) (A) (A) (A)
                 (A) (A) (A) (A) (A) (A) (A) (A) (A) (A) (A) (A)
                 (A) (A) (A) (A) (A) (A) (A) (A) (A) (A) (A) (A)
                 (A) (A) (A) (A) (A) (A) (A) (A) (A) (A) (A) (A)
                 (A) (A) (A) (A) (A) (A) (A) (A) (A) (A) (A) (A)
                 (A) (A) (A) (A) (A) (A) (A) (A) (A) (A) (A) (A)
                 (A) (A) (A) (A) (A) (A) (A) (A) (A) (A) (A) (A)
                 (A) (A) (A) (A) (A) (A) (A) (A) (A) (A) (A) (A)
                 (A) (A) (A) (A) (A) (A) (A) (A) (A) (A) (A) (A)
                 (A) (A) (A) (A) (A) (A) (A) (A) (A) (A) (A) (A)
                 (A) (A) (A) (A) (A) (A) (A) (A) (A) (A) (A) (A)
                 (A) (A) (A) (A) (A) (A) (A) (A) (A) (A) (A) (A)
                 (A) (A) (A) (A) (A) (A) (A) (A) (A) (A) (A) (A)
                 (A) (A) (A)
 The electronic state is 2-A.
 Alpha  occ. eigenvalues --  -38.45362 -38.43659 -38.43653 -38.43475 -38.43429
 Alpha  occ. eigenvalues --  -38.43080 -38.43080  -2.21244  -2.19635  -2.19615
 Alpha  occ. eigenvalues --   -2.19606  -2.19575  -2.19115  -2.19115  -1.14934
 Alpha  occ. eigenvalues --   -1.14933  -1.14864  -1.13503  -1.13402  -1.13402
 Alpha  occ. eigenvalues --   -1.13380  -1.13353  -1.13280  -1.13220  -1.13200
 Alpha  occ. eigenvalues --   -1.13162  -1.13146  -1.13132  -1.13109  -1.12817
 Alpha  occ. eigenvalues --   -1.12802  -1.12771  -1.12768  -1.12712  -1.12688
 Alpha  occ. eigenvalues --   -0.20301  -0.14399  -0.11872  -0.11076
 Alpha virt. eigenvalues --   -0.06716  -0.04921  -0.03635  -0.03319  -0.02335
 Alpha virt. eigenvalues --   -0.02244  -0.02209  -0.01081  -0.00084   0.00039
 Alpha virt. eigenvalues --    0.00315   0.00362   0.00821   0.00851   0.00938
 Alpha virt. eigenvalues --    0.01085   0.01308   0.01421   0.01470   0.01521
 Alpha virt. eigenvalues --    0.01561   0.01706   0.01955   0.01966   0.02151
 Alpha virt. eigenvalues --    0.02191   0.02420   0.02656   0.02783   0.02801
 Alpha virt. eigenvalues --    0.02888   0.03078   0.03082   0.03245   0.03294
 Alpha virt. eigenvalues --    0.03304   0.03799   0.03846   0.04101   0.04173
 Alpha virt. eigenvalues --    0.04429   0.04509   0.04843   0.05266   0.05275
 Alpha virt. eigenvalues --    0.05583   0.05715   0.05801   0.06075   0.06237
 Alpha virt. eigenvalues --    0.06817   0.06859   0.06983   0.07384   0.07760
 Alpha virt. eigenvalues --    0.08241   0.08742   0.08913   0.09359   0.09556
 Alpha virt. eigenvalues --    0.10172   0.10545   0.11028   0.12316   0.12581
 Alpha virt. eigenvalues --    0.13852   0.13902   0.13966   0.14200   0.14209
 Alpha virt. eigenvalues --    0.14399   0.14839   0.14962   0.15218   0.15748
 Alpha virt. eigenvalues --    0.16061   0.17241   0.18009   0.19858   0.22683
 Alpha virt. eigenvalues --    0.24266   0.27689   0.28424   0.29531   0.30373
 Alpha virt. eigenvalues --    0.30468   0.32044   0.32637   0.33421   0.33556
 Alpha virt. eigenvalues --    0.33825   0.37251   0.38118   0.39264   0.40187
 Alpha virt. eigenvalues --    0.40632   0.41705   0.42888   0.44395   0.44780
 Alpha virt. eigenvalues --    0.44862   0.44900   0.44920   0.45812   0.46293
 Alpha virt. eigenvalues --    0.46879   0.47058   0.47413   0.48070   0.48152
 Alpha virt. eigenvalues --    0.48295   0.49303   0.51977   0.52313   0.52831
 Alpha virt. eigenvalues --    0.53932   0.54318   0.54624   0.55078   0.55831
 Alpha virt. eigenvalues --    0.56327   0.56463   0.58252   0.61376   0.61995
 Alpha virt. eigenvalues --    0.64291   0.65400   0.67698   0.71558   0.72139
 Alpha virt. eigenvalues --    0.73661   0.74099   0.75742   0.80296   0.82252
 Alpha virt. eigenvalues --    2.09219   2.16013   2.23108   2.25833   2.27673
 Alpha virt. eigenvalues --    2.34327   2.36838   4.41618   4.42131   4.42713
 Alpha virt. eigenvalues --    4.42776   4.43771   4.44192   4.44287   4.46555
 Alpha virt. eigenvalues --    4.46900   4.48842   4.49612   4.50135   4.57761
 Alpha virt. eigenvalues --    4.64523   4.65023   4.65728   4.68183   4.71190
 Alpha virt. eigenvalues --    4.72407   4.77870   4.78754  96.29563  96.39069
 Alpha virt. eigenvalues --   96.47963  96.51797  96.53939  96.63406  96.67014
  Beta  occ. eigenvalues --  -38.45369 -38.43648 -38.43642 -38.43392 -38.43343
  Beta  occ. eigenvalues --  -38.43065 -38.43065  -2.21259  -2.19602  -2.19596
  Beta  occ. eigenvalues --   -2.19473  -2.19423  -2.19094  -2.19094  -1.14947
  Beta  occ. eigenvalues --   -1.14942  -1.14861  -1.13461  -1.13364  -1.13313
  Beta  occ. eigenvalues --   -1.13305  -1.13284  -1.13213  -1.13193  -1.13178
  Beta  occ. eigenvalues --   -1.13085  -1.13065  -1.13045  -1.13030  -1.12797
  Beta  occ. eigenvalues --   -1.12784  -1.12706  -1.12702  -1.12699  -1.12681
  Beta  occ. eigenvalues --   -0.19541  -0.14164  -0.11551
  Beta virt. eigenvalues --   -0.06993  -0.06598  -0.04942  -0.03320  -0.02814
  Beta virt. eigenvalues --   -0.02184  -0.01517  -0.01163  -0.01058   0.00029
  Beta virt. eigenvalues --    0.00110   0.00326   0.00339   0.00853   0.00924
  Beta virt. eigenvalues --    0.01093   0.01100   0.01436   0.01492   0.01573
  Beta virt. eigenvalues --    0.01623   0.01659   0.01788   0.01972   0.02051
  Beta virt. eigenvalues --    0.02188   0.02322   0.02396   0.02622   0.02798
  Beta virt. eigenvalues --    0.02868   0.02978   0.03095   0.03135   0.03239
  Beta virt. eigenvalues --    0.03293   0.03461   0.03875   0.03980   0.04261
  Beta virt. eigenvalues --    0.04412   0.04498   0.04536   0.04963   0.05308
  Beta virt. eigenvalues --    0.05453   0.05600   0.05944   0.05990   0.06340
  Beta virt. eigenvalues --    0.06386   0.06828   0.06895   0.07183   0.07521
  Beta virt. eigenvalues --    0.07918   0.08291   0.08930   0.09030   0.09553
  Beta virt. eigenvalues --    0.09837   0.10209   0.11005   0.11279   0.12325
  Beta virt. eigenvalues --    0.12672   0.13923   0.14012   0.14411   0.14412
  Beta virt. eigenvalues --    0.14497   0.14879   0.14987   0.15356   0.15617
  Beta virt. eigenvalues --    0.16080   0.16086   0.17483   0.18464   0.19886
  Beta virt. eigenvalues --    0.23257   0.24480   0.28045   0.28403   0.29709
  Beta virt. eigenvalues --    0.30841   0.31164   0.32538   0.32852   0.33676
  Beta virt. eigenvalues --    0.33781   0.34373   0.37483   0.38201   0.39385
  Beta virt. eigenvalues --    0.40299   0.41149   0.41825   0.42996   0.44360
  Beta virt. eigenvalues --    0.44836   0.45004   0.45095   0.45146   0.46027
  Beta virt. eigenvalues --    0.46466   0.47311   0.47446   0.47771   0.48151
  Beta virt. eigenvalues --    0.48281   0.48412   0.49257   0.52130   0.52301
  Beta virt. eigenvalues --    0.53054   0.54327   0.54628   0.54716   0.55327
  Beta virt. eigenvalues --    0.56284   0.56469   0.56529   0.58274   0.61946
  Beta virt. eigenvalues --    0.62052   0.64829   0.65404   0.67871   0.72126
  Beta virt. eigenvalues --    0.72252   0.73948   0.74402   0.75793   0.80494
  Beta virt. eigenvalues --    0.82419   2.09242   2.16021   2.23123   2.25906
  Beta virt. eigenvalues --    2.27688   2.34728   2.37101   4.41733   4.42238
  Beta virt. eigenvalues --    4.42740   4.42791   4.43827   4.44215   4.44353
  Beta virt. eigenvalues --    4.46641   4.46902   4.48911   4.49609   4.50212
  Beta virt. eigenvalues --    4.57767   4.64535   4.65145   4.65869   4.68199
  Beta virt. eigenvalues --    4.71264   4.72411   4.77966   4.78836  96.29578
  Beta virt. eigenvalues --   96.39073  96.47973  96.51823  96.53952  96.63526
  Beta virt. eigenvalues --   96.67099
          Condensed to atoms (all electrons):
               1          2          3          4          5          6
     1  Na  15.573210   0.070386   0.054415   0.070449  -0.144690  -4.022702
     2  Na   0.070386  12.110517   0.181532   0.304292  -1.724369   0.252350
     3  Na   0.054415   0.181532  11.536083   0.182040  -0.290379  -0.138199
     4  Na   0.070449   0.304292   0.182040  12.111965  -0.418484   0.252017
     5  Na  -0.144690  -1.724369  -0.290379  -0.418484  13.642897  -0.211096
     6  Na  -4.022702   0.252350  -0.138199   0.252017  -0.211096  15.489070
     7  Na  -0.143123  -0.415886  -0.289726  -1.723700  -0.185438  -0.209998
               7
     1  Na  -0.143123
     2  Na  -0.415886
     3  Na  -0.289726
     4  Na  -1.723700
     5  Na  -0.185438
     6  Na  -0.209998
     7  Na  13.636874
          Atomic-Atomic Spin Densities.
               1          2          3          4          5          6
     1  Na   4.008869  -0.127566   0.154954  -0.126194   0.112138  -3.650143
     2  Na  -0.127566  -0.190950   0.044547  -0.101363   0.266996   0.119404
     3  Na   0.154954   0.044547  -0.454628   0.044751   0.049959  -0.018513
     4  Na  -0.126194  -0.101363   0.044751  -0.191229   0.132937   0.118044
     5  Na   0.112138   0.266996   0.049959   0.132937  -0.461327  -0.053622
     6  Na  -3.650143   0.119404  -0.018513   0.118044  -0.053622   3.978943
     7  Na   0.109180   0.132459   0.049852   0.266791  -0.088441  -0.050821
               7
     1  Na   0.109180
     2  Na   0.132459
     3  Na   0.049852
     4  Na   0.266791
     5  Na  -0.088441
     6  Na  -0.050821
     7  Na  -0.460376
 Mulliken charges and spin densities:
               1          2
     1  Na  -0.457945   0.481238
     2  Na   0.221177   0.143526
     3  Na  -0.235767  -0.129077
     4  Na   0.221421   0.143738
     5  Na   0.331559  -0.041360
     6  Na  -0.411443   0.443292
     7  Na   0.330997  -0.041357
 Sum of Mulliken charges =  -0.00000   1.00000
 Mulliken charges and spin densities with hydrogens summed into heavy atoms:
               1          2
     1  Na  -0.457945   0.481238
     2  Na   0.221177   0.143526
     3  Na  -0.235767  -0.129077
     4  Na   0.221421   0.143738
     5  Na   0.331559  -0.041360
     6  Na  -0.411443   0.443292
     7  Na   0.330997  -0.041357
 Electronic spatial extent (au):  <R**2>=           1935.0864
 Charge=             -0.0000 electrons
 Dipole moment (field-independent basis, Debye):
    X=             -0.4980    Y=             -0.0011    Z=             -0.0104  Tot=              0.4982
 Quadrupole moment (field-independent basis, Debye-Ang):
   XX=            -45.8641   YY=            -72.4072   ZZ=            -73.6123
   XY=              0.0008   XZ=              0.0613   YZ=             -0.0029
 Traceless Quadrupole moment (field-independent basis, Debye-Ang):
   XX=             18.0971   YY=             -8.4460   ZZ=             -9.6511
   XY=              0.0008   XZ=              0.0613   YZ=             -0.0029
 Octapole moment (field-independent basis, Debye-Ang**2):
  XXX=            -30.5233  YYY=              0.0189  ZZZ=             -0.0133  XYY=              8.5843
  XXY=             -0.0591  XXZ=             -0.4060  XZZ=             -0.3463  YZZ=             -0.0030
  YYZ=              0.0575  XYZ=             -0.0042
 Hexadecapole moment (field-independent basis, Debye-Ang**3):
 XXXX=          -1314.2103 YYYY=          -1075.0078 ZZZZ=           -636.9751 XXXY=             -0.1276
 XXXZ=              1.9096 YYYX=              0.1202 YYYZ=             -0.0489 ZZZX=              1.6335
 ZZZY=              0.0089 XXYY=           -402.2817 XXZZ=           -426.3884 YYZZ=           -313.9469
 XXYZ=             -0.0285 YYXZ=             -1.9686 ZZXY=              0.0005
 N-N= 3.795558197652D+02 E-N=-3.488677366951D+03  KE= 1.133236943078D+03
                          Isotropic Fermi Contact Couplings
        Atom                 a.u.       MegaHertz       Gauss      10(-4) cm-1
     1  Na(23)             0.33579     397.25251     141.74957     132.50917
     2  Na(23)            -0.00491      -5.80865      -2.07267      -1.93756
     3  Na(23)            -0.04680     -55.36033     -19.75394     -18.46622
     4  Na(23)            -0.00486      -5.75358      -2.05302      -1.91919
     5  Na(23)            -0.01179     -13.94678      -4.97656      -4.65215
     6  Na(23)             0.34612     409.47164     146.10966     136.58504
     7  Na(23)            -0.01178     -13.93124      -4.97101      -4.64696
 --------------------------------------------------------
       Center         ----  Spin Dipole Couplings  ----
                      3XX-RR        3YY-RR        3ZZ-RR
 --------------------------------------------------------
     1   Atom        0.002892      0.004114     -0.007005
     2   Atom       -0.031432     -0.023804      0.055236
     3   Atom       -0.001612     -0.010929      0.012541
     4   Atom       -0.031461     -0.023837      0.055298
     5   Atom       -0.022028     -0.023570      0.045598
     6   Atom        0.002483      0.005401     -0.007884
     7   Atom       -0.022045     -0.023584      0.045630
 --------------------------------------------------------
                        XY            XZ            YZ
 --------------------------------------------------------
     1   Atom        0.000007     -0.002214     -0.000012
     2   Atom       -0.001528      0.002273     -0.001455
     3   Atom        0.000002     -0.000329     -0.000001
     4   Atom        0.001503      0.002291      0.001473
     5   Atom       -0.000412     -0.000108     -0.001436
     6   Atom        0.000001      0.000466     -0.000012
     7   Atom        0.000415     -0.000080      0.001458
 --------------------------------------------------------


 ---------------------------------------------------------------------------------
              Anisotropic Spin Dipole Couplings in Principal Axis System
 ---------------------------------------------------------------------------------

       Atom             a.u.   MegaHertz   Gauss  10(-4) cm-1        Axes

              Baa    -0.0075    -1.056    -0.377    -0.352  0.2088  0.0009  0.9780
     1 Na(23) Bbb     0.0034     0.475     0.170     0.158  0.9779 -0.0126 -0.2087
              Bcc     0.0041     0.581     0.207     0.194  0.0121  0.9999 -0.0035
 
              Baa    -0.0318    -4.487    -1.601    -1.497  0.9826  0.1844 -0.0226
     2 Na(23) Bbb    -0.0236    -3.326    -1.187    -1.109 -0.1838  0.9827  0.0234
              Bcc     0.0553     7.812     2.788     2.606  0.0265 -0.0189  0.9995
 
              Baa    -0.0109    -1.543    -0.551    -0.515 -0.0002  1.0000  0.0001
     3 Na(23) Bbb    -0.0016    -0.229    -0.082    -0.076  0.9997  0.0002  0.0232
              Bcc     0.0125     1.772     0.632     0.591 -0.0232 -0.0001  0.9997
 
              Baa    -0.0318    -4.489    -1.602    -1.498  0.9831 -0.1815 -0.0228
     4 Na(23) Bbb    -0.0236    -3.332    -1.189    -1.111  0.1810  0.9832 -0.0236
              Bcc     0.0554     7.821     2.791     2.609  0.0267  0.0191  0.9995
 
              Baa    -0.0237    -3.347    -1.194    -1.116  0.2401  0.9705  0.0205
     5 Na(23) Bbb    -0.0219    -3.096    -1.105    -1.033  0.9707 -0.2401 -0.0035
              Bcc     0.0456     6.443     2.299     2.149 -0.0015 -0.0207  0.9998
 
              Baa    -0.0079    -1.116    -0.398    -0.372 -0.0448  0.0009  0.9990
     6 Na(23) Bbb     0.0025     0.354     0.126     0.118  0.9990 -0.0001  0.0448
              Bcc     0.0054     0.763     0.272     0.254  0.0001  1.0000 -0.0009
 
              Baa    -0.0237    -3.349    -1.195    -1.117 -0.2417  0.9701 -0.0207
     7 Na(23) Bbb    -0.0219    -3.098    -1.106    -1.034  0.9703  0.2417 -0.0041
              Bcc     0.0457     6.448     2.301     2.151 -0.0010  0.0210  0.9998
 

 ---------------------------------------------------------------------------------

 No NMR shielding tensors so no spin-rotation constants.
 Leave Link  601 at Sat Dec  9 07:04:17 2023, MaxMem=  1879048192 cpu:               2.3 elap:               0.2
 (Enter /home/sekinelabo/g16/l701.exe)
 ... and contract with generalized density number  0.
 Compute integral first derivatives.
 Leave Link  701 at Sat Dec  9 07:04:17 2023, MaxMem=  1879048192 cpu:               1.5 elap:               0.1
 (Enter /home/sekinelabo/g16/l702.exe)
 L702 exits ... SP integral derivatives will be done elsewhere.
 Leave Link  702 at Sat Dec  9 07:04:17 2023, MaxMem=  1879048192 cpu:               0.4 elap:               0.0
 (Enter /home/sekinelabo/g16/l703.exe)
 Integral derivatives from FoFJK, PRISM(SPDF).
 Compute integral first derivatives, UseDBF=F ICtDFT=           0.
 Calling FoFJK, ICntrl=      2127 FMM=F ISym2X=0 I1Cent= 0 IOpClX= 1 NMat=1 NMatS=1 NMatT=0.
 FoFJK:  IHMeth= 1 ICntrl=    2127 DoSepK=F KAlg= 0 I1Cent=           0 FoldK=F
 IRaf=         0 NMat=       1 IRICut=       1 DoRegI=T DoRafI=F ISym2E= 0 IDoP0=0 IntGTp=1.
 FoFCou: FMM=F IPFlag=           0 FMFlag=      100000 FMFlg1=         800
         NFxFlg=           0 DoJE=F BraDBF=F KetDBF=F FulRan=T
         wScrn=  0.000000 ICntrl=      2127 IOpCl=  1 I1Cent=           0 NGrid=           0
         NMat0=    1 NMatS0=      1 NMatT0=    0 NMatD0=    1 NMtDS0=    0 NMtDT0=    0
 Symmetry not used in FoFCou.
 Leave Link  703 at Sat Dec  9 07:04:20 2023, MaxMem=  1879048192 cpu:              35.0 elap:               2.3
 (Enter /home/sekinelabo/g16/l716.exe)
 Dipole        =-1.95947643D-01-4.31729658D-04-4.07501359D-03
 ***** Axes restored to original set *****
 -------------------------------------------------------------------
 Center     Atomic                   Forces (Hartrees/Bohr)
 Number     Number              X              Y              Z
 -------------------------------------------------------------------
      1       11           0.001030212   -0.000007546   -0.015694229
      2       11           0.000252510   -0.014524780    0.000279439
      3       11           0.007280810    0.000034758   -0.000374551
      4       11           0.000298325    0.014534374    0.000292700
      5       11          -0.004653643    0.009895624   -0.000129763
      6       11           0.000450946   -0.000003703    0.015765801
      7       11          -0.004659159   -0.009928726   -0.000139397
 -------------------------------------------------------------------
 Cartesian Forces:  Max     0.015765801 RMS     0.007596124
 Z-matrix is all fixed cartesians, so copy forces.
 Force constants in Cartesian coordinates: 
                1             2             3             4             5 
      1  0.134130D+00
      2  0.126761D-04  0.132129D+00
      3 -0.250480D-02 -0.162358D-04  0.191757D+00
      4 -0.296223D-01  0.103381D-01  0.596532D-02  0.138619D+00
      5  0.401320D-02 -0.359090D-01 -0.524006D-02 -0.218470D-01  0.179337D+00
      6 -0.218451D-01  0.296788D-01 -0.386702D-01  0.373630D-03 -0.205426D-02
      7 -0.575437D-02 -0.890114D-05  0.105026D-03 -0.349605D-01  0.127529D-01
      8 -0.617008D-05  0.758621D-02  0.127346D-05 -0.237614D-01 -0.458816D-01
      9 -0.808010D-02  0.000000D+00  0.254688D-02  0.629349D-03  0.680177D-03
     10 -0.296698D-01 -0.103557D-01  0.592469D-02 -0.154547D-01  0.106507D-01
     11 -0.400267D-02 -0.359979D-01  0.523455D-02 -0.106393D-01 -0.340901D-01
     12 -0.218397D-01 -0.297456D-01 -0.387564D-01 -0.426560D-03  0.628146D-03
     13 -0.285379D-01  0.119878D-01 -0.494593D-02 -0.516301D-03  0.104632D-01
     14  0.115838D-01 -0.278562D-01  0.462710D-02  0.104328D-01 -0.520154D-03
     15  0.268079D-01 -0.270564D-01 -0.354558D-01 -0.201729D-03  0.183041D-03
     16 -0.120404D-01  0.948097D-05  0.394341D-03 -0.303119D-01  0.371618D-02
     17  0.921641D-05 -0.120174D-01  0.129670D-04  0.111660D-01 -0.363253D-01
     18  0.723439D-03  0.504845D-05 -0.459752D-01 -0.571335D-02  0.570083D-02
     19 -0.285051D-01 -0.119836D-01 -0.493865D-02 -0.277531D-01 -0.197492D-01
     20 -0.116101D-01 -0.279342D-01 -0.461959D-02  0.243108D-01 -0.266109D-01
     21  0.267384D-01  0.271334D-01 -0.354466D-01 -0.626659D-03  0.102133D-03
                6             7             8             9            10 
      6  0.985811D-01
      7  0.613942D-04  0.810387D-01
      8  0.125331D-02  0.458384D-04  0.635663D-01
      9 -0.162165D-01 -0.844005D-03  0.325619D-05  0.213465D-01
     10 -0.420588D-03 -0.348774D-01  0.237390D-01  0.632359D-03  0.138541D+00
     11 -0.637361D-03 -0.127676D-01 -0.457673D-01 -0.689047D-03  0.218732D-01
     12 -0.103420D-01  0.583739D-04 -0.126046D-02 -0.161767D-01  0.398621D-03
     13 -0.208856D-03 -0.147420D-04  0.819715D-04 -0.495547D-04 -0.277254D-01
     14  0.213906D-03  0.446438D-02  0.621032D-02  0.304991D-03 -0.243137D-01
     15  0.124862D-01  0.244811D-03  0.215138D-03  0.302207D-02 -0.637454D-03
     16  0.223760D-01 -0.542311D-02 -0.878904D-05  0.776203D-02 -0.303276D-01
     17 -0.293588D-01 -0.106714D-04  0.807593D-02  0.364738D-05 -0.111610D-01
     18 -0.378716D-01  0.129799D-03  0.113675D-05  0.242462D-02 -0.569265D-02
     19 -0.336484D-03 -0.860072D-05 -0.904256D-04 -0.500710D-04 -0.485841D-03
     20  0.904383D-03 -0.447590D-02  0.621020D-02 -0.304021D-03 -0.104326D-01
     21 -0.796687D-02  0.244600D-03 -0.213652D-03  0.305320D-02 -0.204985D-03
               11            12            13            14            15 
     11  0.179406D+00
     12  0.208867D-02  0.986075D-01
     13  0.197308D-01 -0.322135D-03  0.977721D-01
     14 -0.265866D-01 -0.906195D-03 -0.336090D-01  0.104356D+00
     15 -0.109666D-03 -0.791401D-02  0.512169D-03 -0.254522D-03  0.653394D-01
     16 -0.372077D-02  0.223438D-01 -0.277337D-01  0.117035D-01 -0.265229D-01
     17 -0.363949D-01  0.294177D-01  0.110518D-01 -0.278130D-01  0.273587D-01
     18 -0.569731D-02 -0.378956D-01  0.522690D-02 -0.430517D-02 -0.361098D-01
     19 -0.104737D-01 -0.212419D-03 -0.132441D-01  0.197381D-01 -0.202751D-03
     20 -0.568657D-03 -0.222305D-03 -0.197067D-01 -0.277902D-01 -0.336262D-03
     21 -0.189829D-03  0.124772D-01 -0.212591D-03  0.319897D-03 -0.136806D-02
               16            17            18            19            20 
     16  0.133553D+00
     17  0.392447D-05  0.132360D+00
     18  0.127074D-03 -0.495348D-05  0.191575D+00
     19 -0.277162D-01 -0.110593D-01  0.519879D-02  0.977130D-01
     20 -0.117035D-01 -0.278851D-01  0.430043D-02  0.336180D-01  0.104579D+00
     21 -0.264804D-01 -0.274293D-01 -0.361475D-01  0.541586D-03  0.277367D-03
               21 
     21  0.653986D-01
 Leave Link  716 at Sat Dec  9 07:04:20 2023, MaxMem=  1879048192 cpu:               0.4 elap:               0.0
 (Enter /home/sekinelabo/g16/l103.exe)

 GradGradGradGradGradGradGradGradGradGradGradGradGradGradGradGradGradGrad
 Berny optimization.
 Search for a local minimum.
 Step number   1 out of a maximum of    2
 All quantities printed in internal units (Hartrees-Bohrs-Radians)
 Second derivative matrix not updated -- first step.
 ITU=  0
     Eigenvalues ---    0.04986   0.06878   0.07340   0.10611   0.11333
     Eigenvalues ---    0.14674   0.17244   0.18447   0.18685   0.18846
     Eigenvalues ---    0.19711   0.22428   0.23186   0.23584   0.24863
 Angle between quadratic step and forces=  25.21 degrees.
 Linear search not attempted -- first point.
 B after Tr=     0.000000    0.000000   -0.000000
         Rot=    1.000000   -0.000000   -0.000000   -0.000000 Ang=   0.00 deg.
 Variable       Old X    -DE/DX   Delta X   Delta X   Delta X     New X
                                 (Linear)    (Quad)   (Total)
    X1       22.68692   0.00103   0.00000  -0.01781  -0.01781  22.66911
    Y1       23.78504  -0.00001   0.00000  -0.00007  -0.00007  23.78496
    Z1       20.65282  -0.01569   0.00000  -0.07689  -0.07689  20.57593
    X2       26.02588   0.00025   0.00000   0.02249   0.02249  26.04836
    Y2       20.47121  -0.01452   0.00000  -0.09178  -0.09178  20.37943
    Z2       23.84797   0.00028   0.00000   0.00270   0.00270  23.85067
    X3       30.55933   0.00728   0.00000   0.12505   0.12505  30.68437
    Y3       23.78655   0.00003   0.00000   0.00029   0.00029  23.78684
    Z3       23.72854  -0.00037   0.00000  -0.00424  -0.00424  23.72429
    X4       26.01869   0.00030   0.00000   0.02257   0.02257  26.04127
    Y4       27.09867   0.01453   0.00000   0.09179   0.09179  27.19046
    Z4       23.84872   0.00029   0.00000   0.00276   0.00276  23.85148
    X5       19.29977  -0.00465   0.00000  -0.06496  -0.06496  19.23481
    Y5       27.13741   0.00990   0.00000   0.09308   0.09308  27.23049
    Z5       23.73685  -0.00013   0.00000  -0.00158  -0.00158  23.73527
    X6       22.58544   0.00045   0.00000  -0.02232  -0.02232  22.56312
    Y6       23.78258  -0.00000   0.00000  -0.00009  -0.00009  23.78249
    Z6       26.93464   0.01577   0.00000   0.07888   0.07888  27.01353
    X7       19.30884  -0.00466   0.00000  -0.06502  -0.06502  19.24382
    Y7       20.42340  -0.00993   0.00000  -0.09323  -0.09323  20.33018
    Z7       23.73534  -0.00014   0.00000  -0.00163  -0.00163  23.73371
         Item               Value     Threshold  Converged?
 Maximum Force            0.015766     0.000450     NO 
 RMS     Force            0.007596     0.000300     NO 
 Maximum Displacement     0.125046     0.001800     NO 
 RMS     Displacement     0.058672     0.001200     NO 
 Predicted change in Energy=-4.233750D-03
 GradGradGradGradGradGradGradGradGradGradGradGradGradGradGradGradGradGrad

 Leave Link  103 at Sat Dec  9 07:04:20 2023, MaxMem=  1879048192 cpu:               0.2 elap:               0.0
 (Enter /home/sekinelabo/g16/l9999.exe)
 1\1\GINC-SEKINELABO-XA7R-R37\Force\UB3LYP\6-311+G(d)\Na7(2)\SEKINELABO
 \09-Dec-2023\0\\#P B3LYP/6-311+g(d) force\\DPGEN\\0,2\Na,12.0054,12.58
 65,10.929\Na,13.7723,10.8329,12.6198\Na,16.1713,12.5873,12.5566\Na,13.
 7685,14.34,12.6202\Na,10.213,14.3605,12.561\Na,11.9517,12.5852,14.2532
 \Na,10.2178,10.8076,12.5602\\Version=ES64L-G16RevB.01\State=2-A\HF=-11
 36.1087062\S2=0.759423\S2-1=0.\S2A=0.750063\RMSD=7.170e-09\RMSF=7.596e
 -03\Dipole=0.1959476,0.0004317,-0.004075\Quadrupole=13.4547152,-6.2793
 898,-7.1753254,0.0005583,-0.0455787,0.0021352\PG=C01 [X(Na7)]\\@


 ... THIS SEEMS PLAINLY ABSURD; BUT WHOEVER WISHES TO BECOME A 
 PHILOSOPHER MUST LEARN NOT TO BE FRIGHTENED BY ABSURDITIES.

                          -- BERTRAND RUSSELL
 Job cpu time:       0 days  0 hours  3 minutes 48.0 seconds.
 Elapsed time:       0 days  0 hours  0 minutes 19.2 seconds.
 File lengths (MBytes):  RWF=     32 Int=      0 D2E=      0 Chk=      4 Scr=      1
 Normal termination of Gaussian 16 at Sat Dec  9 07:04:20 2023.
