 Set GAUSS_MDEF to "14GB".
 Entering Gaussian System, Link 0=g16
 Initial command:
 /home/sekinelabo/g16/l1.exe "/home/sekinelabo/g16temp/Gau-243010.inp" -scrdir="/home/sekinelabo/g16temp/"
 Entering Link 1 = /home/sekinelabo/g16/l1.exe PID=    243012.
  
 Copyright (c) 1988-2017, Gaussian, Inc.  All Rights Reserved.
  
 This is part of the Gaussian(R) 16 program.  It is based on
 the Gaussian(R) 09 system (copyright 2009, Gaussian, Inc.),
 the Gaussian(R) 03 system (copyright 2003, Gaussian, Inc.),
 the Gaussian(R) 98 system (copyright 1998, Gaussian, Inc.),
 the Gaussian(R) 94 system (copyright 1995, Gaussian, Inc.),
 the Gaussian 92(TM) system (copyright 1992, Gaussian, Inc.),
 the Gaussian 90(TM) system (copyright 1990, Gaussian, Inc.),
 the Gaussian 88(TM) system (copyright 1988, Gaussian, Inc.),
 the Gaussian 86(TM) system (copyright 1986, Carnegie Mellon
 University), and the Gaussian 82(TM) system (copyright 1983,
 Carnegie Mellon University). Gaussian is a federally registered
 trademark of Gaussian, Inc.
  
 This software contains proprietary and confidential information,
 including trade secrets, belonging to Gaussian, Inc.
  
 This software is provided under written license and may be
 used, copied, transmitted, or stored only in accord with that
 written license.
  
 The following legend is applicable only to US Government
 contracts under FAR:
  
                    RESTRICTED RIGHTS LEGEND
  
 Use, reproduction and disclosure by the US Government is
 subject to restrictions as set forth in subparagraphs (a)
 and (c) of the Commercial Computer Software - Restricted
 Rights clause in FAR 52.227-19.
  
 Gaussian, Inc.
 340 Quinnipiac St., Bldg. 40, Wallingford CT 06492
  
  
 ---------------------------------------------------------------
 Warning -- This program may not be used in any manner that
 competes with the business of Gaussian, Inc. or will provide
 assistance to any competitor of Gaussian, Inc.  The licensee
 of this program is prohibited from giving any competitor of
 Gaussian, Inc. access to this program.  By using this program,
 the user acknowledges that Gaussian, Inc. is engaged in the
 business of creating and licensing software in the field of
 computational chemistry and represents and warrants to the
 licensee that it is not a competitor of Gaussian, Inc. and that
 it will not use this program in any manner prohibited above.
 ---------------------------------------------------------------
  

 Cite this work as:
 Gaussian 16, Revision B.01,
 M. J. Frisch, G. W. Trucks, H. B. Schlegel, G. E. Scuseria, 
 M. A. Robb, J. R. Cheeseman, G. Scalmani, V. Barone, 
 G. A. Petersson, H. Nakatsuji, X. Li, M. Caricato, A. V. Marenich, 
 J. Bloino, B. G. Janesko, R. Gomperts, B. Mennucci, H. P. Hratchian, 
 J. V. Ortiz, A. F. Izmaylov, J. L. Sonnenberg, D. Williams-Young, 
 F. Ding, F. Lipparini, F. Egidi, J. Goings, B. Peng, A. Petrone, 
 T. Henderson, D. Ranasinghe, V. G. Zakrzewski, J. Gao, N. Rega, 
 G. Zheng, W. Liang, M. Hada, M. Ehara, K. Toyota, R. Fukuda, 
 J. Hasegawa, M. Ishida, T. Nakajima, Y. Honda, O. Kitao, H. Nakai, 
 T. Vreven, K. Throssell, J. A. Montgomery, Jr., J. E. Peralta, 
 F. Ogliaro, M. J. Bearpark, J. J. Heyd, E. N. Brothers, K. N. Kudin, 
 V. N. Staroverov, T. A. Keith, R. Kobayashi, J. Normand, 
 K. Raghavachari, A. P. Rendell, J. C. Burant, S. S. Iyengar, 
 J. Tomasi, M. Cossi, J. M. Millam, M. Klene, C. Adamo, R. Cammi, 
 J. W. Ochterski, R. L. Martin, K. Morokuma, O. Farkas, 
 J. B. Foresman, and D. J. Fox, Gaussian, Inc., Wallingford CT, 2016.
 
 ******************************************
 Gaussian 16:  ES64L-G16RevB.01 20-Dec-2017
                29-Nov-2023 
 ******************************************
 %nproc=15
 Will use up to   15 processors via shared memory.
 -------------------------
 #P B3LYP/6-311+g(d) force
 -------------------------
 1/10=7,30=1,38=1/1,3;
 2/12=2,17=6,18=5,40=1/2;
 3/5=4,6=6,7=11,11=2,25=1,30=1,71=1,74=-5/1,2,3;
 4//1;
 5/5=2,38=5/2;
 6/7=2,8=2,9=2,10=2,28=1/1;
 7/29=1/1,2,3,16;
 1/10=7,30=1/3;
 99//99;
 Leave Link    1 at Wed Nov 29 00:40:39 2023, MaxMem=           0 cpu:               0.3 elap:               0.0
 (Enter /home/sekinelabo/g16/l101.exe)
 -----
 DPGEN
 -----
 Symbolic Z-matrix:
 Charge =  0 Multiplicity = 2
 Na                    17.3991   16.848    14.028 
 Na                    14.0658   16.5083   13.2068 
 Na                    12.6107   14.3296   15.1034 
 Na                    15.1151   16.7377   16.3062 
 Na                    14.6212   13.788    17.5538 
 Na                    15.736    14.0663   14.4371 
 Na                    17.8776   15.1476   16.7902 
 
 ITRead=  0  0  0  0  0  0  0
 MicOpt= -1 -1 -1 -1 -1 -1 -1
 NAtoms=      7 NQM=        7 NQMF=       0 NMMI=      0 NMMIF=      0
                NMic=       0 NMicF=      0.
                    Isotopes and Nuclear Properties:
 (Nuclear quadrupole moments (NQMom) in fm**2, nuclear magnetic moments (NMagM)
  in nuclear magnetons)

  Atom         1           2           3           4           5           6           7
 IAtWgt=          23          23          23          23          23          23          23
 AtmWgt=  22.9897697  22.9897697  22.9897697  22.9897697  22.9897697  22.9897697  22.9897697
 NucSpn=           3           3           3           3           3           3           3
 AtZEff=  -0.0000000  -0.0000000  -0.0000000  -0.0000000  -0.0000000  -0.0000000  -0.0000000
 NQMom=   10.4000000  10.4000000  10.4000000  10.4000000  10.4000000  10.4000000  10.4000000
 NMagM=    2.2175200   2.2175200   2.2175200   2.2175200   2.2175200   2.2175200   2.2175200
 AtZNuc=  11.0000000  11.0000000  11.0000000  11.0000000  11.0000000  11.0000000  11.0000000
 Leave Link  101 at Wed Nov 29 00:40:39 2023, MaxMem=  1879048192 cpu:               2.4 elap:               0.2
 (Enter /home/sekinelabo/g16/l103.exe)

 GradGradGradGradGradGradGradGradGradGradGradGradGradGradGradGradGradGrad
 Berny optimization.
 Initialization pass.
 Trust Radius=3.00D-01 FncErr=1.00D-07 GrdErr=1.00D-07 EigMax=2.50D+02 EigMin=1.00D-04
 Number of steps in this run=      2 maximum allowed number of steps=      2.
 GradGradGradGradGradGradGradGradGradGradGradGradGradGradGradGradGradGrad

 Leave Link  103 at Wed Nov 29 00:40:39 2023, MaxMem=  1879048192 cpu:               0.2 elap:               0.0
 (Enter /home/sekinelabo/g16/l202.exe)
                          Input orientation:                          
 ---------------------------------------------------------------------
 Center     Atomic      Atomic             Coordinates (Angstroms)
 Number     Number       Type             X           Y           Z
 ---------------------------------------------------------------------
      1         11           0       17.399100   16.848000   14.028000
      2         11           0       14.065800   16.508300   13.206800
      3         11           0       12.610700   14.329600   15.103400
      4         11           0       15.115100   16.737700   16.306200
      5         11           0       14.621200   13.788000   17.553800
      6         11           0       15.736000   14.066300   14.437100
      7         11           0       17.877600   15.147600   16.790200
 ---------------------------------------------------------------------
                    Distance matrix (angstroms):
                    1          2          3          4          5
     1  Na   0.000000
     2  Na   3.449733   0.000000
     3  Na   5.516122   3.234369   0.000000
     4  Na   3.227850   3.280234   3.676642   0.000000
     5  Na   5.432457   5.157995   3.215572   3.240551   0.000000
     6  Na   3.266668   3.204149   3.206366   3.318950   3.321754
     7  Na   3.278730   5.405745   5.590586   3.223985   3.610504
                    6          7
     6  Na   0.000000
     7  Na   3.360467   0.000000
 Stoichiometry    Na7(2)
 Framework group  C1[X(Na7)]
 Deg. of freedom    15
 Full point group                 C1      NOp   1
 Largest Abelian subgroup         C1      NOp   1
 Largest concise Abelian subgroup C1      NOp   1
                         Standard orientation:                         
 ---------------------------------------------------------------------
 Center     Atomic      Atomic             Coordinates (Angstroms)
 Number     Number       Type             X           Y           Z
 ---------------------------------------------------------------------
      1         11           0       -2.383636   -1.585199   -0.107393
      2         11           0        0.902509   -2.591826    0.190277
      3         11           0        2.925083   -0.086877   -0.118864
      4         11           0       -0.276234    0.081581    1.681382
      5         11           0        1.118068    2.561305    0.129589
      6         11           0        0.088621   -0.072063   -1.613872
      7         11           0       -2.374411    1.693078   -0.161120
 ---------------------------------------------------------------------
 Rotational constants (GHZ):           0.9078967           0.7976142           0.5401038
 Leave Link  202 at Wed Nov 29 00:40:39 2023, MaxMem=  1879048192 cpu:               0.0 elap:               0.0
 (Enter /home/sekinelabo/g16/l301.exe)
 Standard basis: 6-311+G(d) (5D, 7F)
 Ernie: Thresh=  0.10000D-02 Tol=  0.10000D-05 Strict=F.
 There are   217 symmetry adapted cartesian basis functions of A   symmetry.
 There are   210 symmetry adapted basis functions of A   symmetry.
   210 basis functions,   350 primitive gaussians,   217 cartesian basis functions
    39 alpha electrons       38 beta electrons
       nuclear repulsion energy       368.2097465065 Hartrees.
 IExCor=  402 DFT=T Ex+Corr=B3LYP ExCW=0 ScaHFX=  0.200000
 ScaDFX=  0.800000  0.720000  1.000000  0.810000 ScalE2=  1.000000  1.000000
 IRadAn=      5 IRanWt=     -1 IRanGd=            0 ICorTp=0 IEmpDi=  4
 NAtoms=    7 NActive=    7 NUniq=    7 SFac= 1.00D+00 NAtFMM=   60 NAOKFM=F Big=F
 Integral buffers will be    131072 words long.
 Raffenetti 2 integral format.
 Two-electron integral symmetry is turned on.
 Leave Link  301 at Wed Nov 29 00:40:39 2023, MaxMem=  1879048192 cpu:               0.5 elap:               0.0
 (Enter /home/sekinelabo/g16/l302.exe)
 NPDir=0 NMtPBC=     1 NCelOv=     1 NCel=       1 NClECP=     1 NCelD=      1
         NCelK=      1 NCelE2=     1 NClLst=     1 CellRange=     0.0.
 One-electron integrals computed using PRISM.
 One-electron integral symmetry used in STVInt
 NBasis=   210 RedAO= T EigKep=  2.64D-06  NBF=   210
 NBsUse=   210 1.00D-06 EigRej= -1.00D+00 NBFU=   210
 Precomputing XC quadrature grid using
 IXCGrd= 4 IRadAn=           5 IRanWt=          -1 IRanGd=           0 AccXCQ= 0.00D+00.
 Generated NRdTot=       0 NPtTot=           0 NUsed=           0 NTot=          32
 NSgBfM=   211   211   211   211   211 MxSgAt=     7 MxSgA2=     7.
 Leave Link  302 at Wed Nov 29 00:40:39 2023, MaxMem=  1879048192 cpu:               2.0 elap:               0.1
 (Enter /home/sekinelabo/g16/l303.exe)
 DipDrv:  MaxL=1.
 Leave Link  303 at Wed Nov 29 00:40:39 2023, MaxMem=  1879048192 cpu:               0.5 elap:               0.0
 (Enter /home/sekinelabo/g16/l401.exe)
 ExpMin= 7.60D-03 ExpMax= 3.62D+04 ExpMxC= 1.21D+03 IAcc=3 IRadAn=         5 AccDes= 0.00D+00
 Harris functional with IExCor=  402 and IRadAn=       5 diagonalized for initial guess.
 HarFok:  IExCor=  402 AccDes= 0.00D+00 IRadAn=         5 IDoV= 1 UseB2=F ITyADJ=14
 ICtDFT=  3500011 ScaDFX=  1.000000  1.000000  1.000000  1.000000
 FoFCou: FMM=F IPFlag=           0 FMFlag=      100000 FMFlg1=           0
         NFxFlg=           0 DoJE=T BraDBF=F KetDBF=T FulRan=T
         wScrn=  0.000000 ICntrl=       500 IOpCl=  0 I1Cent=   200000004 NGrid=           0
         NMat0=    1 NMatS0=      1 NMatT0=    0 NMatD0=    1 NMtDS0=    0 NMtDT0=    0
 Petite list used in FoFCou.
 Harris En= -1135.90784315355    
 JPrj=0 DoOrth=F DoCkMO=F.
 Initial guess <Sx>= 0.0000 <Sy>= 0.0000 <Sz>= 0.5000 <S**2>= 0.7500 S= 0.5000
 Leave Link  401 at Wed Nov 29 00:40:40 2023, MaxMem=  1879048192 cpu:               4.5 elap:               0.3
 (Enter /home/sekinelabo/g16/l502.exe)
 Keep R1 and R2 ints in memory in canonical form, NReq=506573335.
 FoFCou: FMM=F IPFlag=           0 FMFlag=           0 FMFlg1=           0
         NFxFlg=           0 DoJE=F BraDBF=F KetDBF=F FulRan=T
         wScrn=  0.000000 ICntrl=       600 IOpCl=  0 I1Cent=           0 NGrid=           0
         NMat0=    1 NMatS0=  22155 NMatT0=    0 NMatD0=    1 NMtDS0=    0 NMtDT0=    0
 Symmetry not used in FoFCou.
 Two-electron integral symmetry not used.
 UHF open shell SCF:
 Using DIIS extrapolation, IDIIS=  1040.
 NGot=  1879048192 LenX=  1388082565 LenY=  1388035035
 Requested convergence on RMS density matrix=1.00D-08 within 128 cycles.
 Requested convergence on MAX density matrix=1.00D-06.
 Requested convergence on             energy=1.00D-06.
 No special actions if energy rises.

 Cycle   1  Pass 1  IDiag  1:
 E= -1136.09176192120    
 DIIS: error= 1.43D-02 at cycle   1 NSaved=   1.
 NSaved= 1 IEnMin= 1 EnMin= -1136.09176192120     IErMin= 1 ErrMin= 1.43D-02
 ErrMax= 1.43D-02  0.00D+00 EMaxC= 1.00D-01 BMatC= 2.00D-01 BMatP= 2.00D-01
 IDIUse=3 WtCom= 8.57D-01 WtEn= 1.43D-01
 Coeff-Com:  0.100D+01
 Coeff-En:   0.100D+01
 Coeff:      0.100D+01
 Gap=     0.042 Goal=   None    Shift=    0.000
 Gap=     0.057 Goal=   None    Shift=    0.000
 GapD=    0.042 DampG=0.250 DampE=0.500 DampFc=0.2500 IDamp=-1.
 Damping current iteration by 2.50D-01
 RMSDP=5.85D-02 MaxDP=3.63D+00              OVMax= 2.71D-01

 Cycle   2  Pass 1  IDiag  1:
 E= -1136.10754104348     Delta-E=       -0.015779122274 Rises=F Damp=T
 DIIS: error= 8.95D-03 at cycle   2 NSaved=   2.
 NSaved= 2 IEnMin= 2 EnMin= -1136.10754104348     IErMin= 2 ErrMin= 8.95D-03
 ErrMax= 8.95D-03  0.00D+00 EMaxC= 1.00D-01 BMatC= 7.53D-02 BMatP= 2.00D-01
 IDIUse=3 WtCom= 9.11D-01 WtEn= 8.95D-02
 Coeff-Com: -0.125D+01 0.225D+01
 Coeff-En:   0.000D+00 0.100D+01
 Coeff:     -0.114D+01 0.214D+01
 Gap=     0.057 Goal=   None    Shift=    0.000
 Gap=     0.058 Goal=   None    Shift=    0.000
 RMSDP=2.87D-02 MaxDP=1.92D+00 DE=-1.58D-02 OVMax= 1.77D-01

 Cycle   3  Pass 1  IDiag  1:
 E= -1136.13407843421     Delta-E=       -0.026537390734 Rises=F Damp=F
 DIIS: error= 3.44D-03 at cycle   3 NSaved=   3.
 NSaved= 3 IEnMin= 3 EnMin= -1136.13407843421     IErMin= 3 ErrMin= 3.44D-03
 ErrMax= 3.44D-03  0.00D+00 EMaxC= 1.00D-01 BMatC= 3.04D-03 BMatP= 7.53D-02
 IDIUse=3 WtCom= 9.66D-01 WtEn= 3.44D-02
 Coeff-Com: -0.206D+00 0.378D+00 0.828D+00
 Coeff-En:   0.000D+00 0.000D+00 0.100D+01
 Coeff:     -0.199D+00 0.365D+00 0.834D+00
 Gap=     0.051 Goal=   None    Shift=    0.000
 Gap=     0.057 Goal=   None    Shift=    0.000
 RMSDP=1.41D-02 MaxDP=1.85D+00 DE=-2.65D-02 OVMax= 5.53D-02

 Cycle   4  Pass 1  IDiag  1:
 E= -1136.13440815981     Delta-E=       -0.000329725597 Rises=F Damp=F
 DIIS: error= 3.12D-03 at cycle   4 NSaved=   4.
 NSaved= 4 IEnMin= 4 EnMin= -1136.13440815981     IErMin= 4 ErrMin= 3.12D-03
 ErrMax= 3.12D-03  0.00D+00 EMaxC= 1.00D-01 BMatC= 2.33D-03 BMatP= 3.04D-03
 IDIUse=3 WtCom= 9.69D-01 WtEn= 3.12D-02
 Coeff-Com:  0.676D-02-0.877D-02 0.467D+00 0.535D+00
 Coeff-En:   0.000D+00 0.000D+00 0.457D+00 0.543D+00
 Coeff:      0.654D-02-0.850D-02 0.467D+00 0.535D+00
 Gap=     0.054 Goal=   None    Shift=    0.000
 Gap=     0.057 Goal=   None    Shift=    0.000
 RMSDP=3.48D-03 MaxDP=3.80D-01 DE=-3.30D-04 OVMax= 2.96D-02

 Cycle   5  Pass 1  IDiag  1:
 E= -1136.13590112055     Delta-E=       -0.001492960744 Rises=F Damp=F
 DIIS: error= 3.66D-04 at cycle   5 NSaved=   5.
 NSaved= 5 IEnMin= 5 EnMin= -1136.13590112055     IErMin= 5 ErrMin= 3.66D-04
 ErrMax= 3.66D-04  0.00D+00 EMaxC= 1.00D-01 BMatC= 3.98D-05 BMatP= 2.33D-03
 IDIUse=3 WtCom= 9.96D-01 WtEn= 3.66D-03
 Coeff-Com:  0.311D-02-0.454D-02 0.276D+00 0.321D+00 0.404D+00
 Coeff-En:   0.000D+00 0.000D+00 0.000D+00 0.000D+00 0.100D+01
 Coeff:      0.310D-02-0.452D-02 0.275D+00 0.320D+00 0.406D+00
 Gap=     0.054 Goal=   None    Shift=    0.000
 Gap=     0.057 Goal=   None    Shift=    0.000
 RMSDP=4.38D-04 MaxDP=6.05D-02 DE=-1.49D-03 OVMax= 7.76D-03

 Cycle   6  Pass 1  IDiag  1:
 E= -1136.13594518663     Delta-E=       -0.000044066082 Rises=F Damp=F
 DIIS: error= 1.06D-04 at cycle   6 NSaved=   6.
 NSaved= 6 IEnMin= 6 EnMin= -1136.13594518663     IErMin= 6 ErrMin= 1.06D-04
 ErrMax= 1.06D-04  0.00D+00 EMaxC= 1.00D-01 BMatC= 3.04D-06 BMatP= 3.98D-05
 IDIUse=3 WtCom= 9.99D-01 WtEn= 1.06D-03
 Coeff-Com: -0.303D-02 0.379D-02-0.272D-01-0.316D-01 0.196D+00 0.863D+00
 Coeff-En:   0.000D+00 0.000D+00 0.000D+00 0.000D+00 0.612D-01 0.939D+00
 Coeff:     -0.302D-02 0.379D-02-0.272D-01-0.316D-01 0.195D+00 0.863D+00
 Gap=     0.054 Goal=   None    Shift=    0.000
 Gap=     0.057 Goal=   None    Shift=    0.000
 RMSDP=6.17D-04 MaxDP=9.06D-02 DE=-4.41D-05 OVMax= 1.95D-03

 Cycle   7  Pass 1  IDiag  1:
 E= -1136.13594879265     Delta-E=       -0.000003606014 Rises=F Damp=F
 DIIS: error= 3.06D-05 at cycle   7 NSaved=   7.
 NSaved= 7 IEnMin= 7 EnMin= -1136.13594879265     IErMin= 7 ErrMin= 3.06D-05
 ErrMax= 3.06D-05  0.00D+00 EMaxC= 1.00D-01 BMatC= 3.30D-07 BMatP= 3.04D-06
 IDIUse=1 WtCom= 1.00D+00 WtEn= 0.00D+00
 Coeff-Com: -0.161D-02 0.201D-02-0.241D-01-0.275D-01 0.901D-01 0.452D+00
 Coeff-Com:  0.509D+00
 Coeff:     -0.161D-02 0.201D-02-0.241D-01-0.275D-01 0.901D-01 0.452D+00
 Coeff:      0.509D+00
 Gap=     0.054 Goal=   None    Shift=    0.000
 Gap=     0.057 Goal=   None    Shift=    0.000
 RMSDP=1.13D-04 MaxDP=2.09D-02 DE=-3.61D-06 OVMax= 8.45D-04

 Cycle   8  Pass 1  IDiag  1:
 E= -1136.13594911135     Delta-E=       -0.000000318698 Rises=F Damp=F
 DIIS: error= 1.73D-05 at cycle   8 NSaved=   8.
 NSaved= 8 IEnMin= 8 EnMin= -1136.13594911135     IErMin= 8 ErrMin= 1.73D-05
 ErrMax= 1.73D-05  0.00D+00 EMaxC= 1.00D-01 BMatC= 8.71D-08 BMatP= 3.30D-07
 IDIUse=1 WtCom= 1.00D+00 WtEn= 0.00D+00
 Coeff-Com:  0.418D-03-0.557D-03-0.384D-02-0.367D-02-0.250D-01-0.793D-01
 Coeff-Com:  0.333D+00 0.779D+00
 Coeff:      0.418D-03-0.557D-03-0.384D-02-0.367D-02-0.250D-01-0.793D-01
 Coeff:      0.333D+00 0.779D+00
 Gap=     0.054 Goal=   None    Shift=    0.000
 Gap=     0.057 Goal=   None    Shift=    0.000
 RMSDP=1.00D-04 MaxDP=1.49D-02 DE=-3.19D-07 OVMax= 4.53D-04

 Cycle   9  Pass 1  IDiag  1:
 E= -1136.13594923709     Delta-E=       -0.000000125747 Rises=F Damp=F
 DIIS: error= 7.34D-06 at cycle   9 NSaved=   9.
 NSaved= 9 IEnMin= 9 EnMin= -1136.13594923709     IErMin= 9 ErrMin= 7.34D-06
 ErrMax= 7.34D-06  0.00D+00 EMaxC= 1.00D-01 BMatC= 1.25D-08 BMatP= 8.71D-08
 IDIUse=1 WtCom= 1.00D+00 WtEn= 0.00D+00
 Coeff-Com:  0.398D-03-0.517D-03-0.152D-03 0.167D-03-0.221D-01-0.807D-01
 Coeff-Com:  0.133D+00 0.421D+00 0.549D+00
 Coeff:      0.398D-03-0.517D-03-0.152D-03 0.167D-03-0.221D-01-0.807D-01
 Coeff:      0.133D+00 0.421D+00 0.549D+00
 Gap=     0.054 Goal=   None    Shift=    0.000
 Gap=     0.057 Goal=   None    Shift=    0.000
 RMSDP=2.06D-05 MaxDP=3.92D-03 DE=-1.26D-07 OVMax= 1.74D-04

 Cycle  10  Pass 1  IDiag  1:
 E= -1136.13594925505     Delta-E=       -0.000000017955 Rises=F Damp=F
 DIIS: error= 3.89D-06 at cycle  10 NSaved=  10.
 NSaved=10 IEnMin=10 EnMin= -1136.13594925505     IErMin=10 ErrMin= 3.89D-06
 ErrMax= 3.89D-06  0.00D+00 EMaxC= 1.00D-01 BMatC= 2.32D-09 BMatP= 1.25D-08
 IDIUse=1 WtCom= 1.00D+00 WtEn= 0.00D+00
 Coeff-Com:  0.480D-04-0.560D-04 0.108D-02 0.105D-02-0.165D-02-0.709D-02
 Coeff-Com: -0.541D-01-0.785D-01 0.259D+00 0.881D+00
 Coeff:      0.480D-04-0.560D-04 0.108D-02 0.105D-02-0.165D-02-0.709D-02
 Coeff:     -0.541D-01-0.785D-01 0.259D+00 0.881D+00
 Gap=     0.054 Goal=   None    Shift=    0.000
 Gap=     0.057 Goal=   None    Shift=    0.000
 RMSDP=1.44D-05 MaxDP=1.53D-03 DE=-1.80D-08 OVMax= 1.39D-04

 Cycle  11  Pass 1  IDiag  1:
 E= -1136.13594926211     Delta-E=       -0.000000007064 Rises=F Damp=F
 DIIS: error= 9.65D-07 at cycle  11 NSaved=  11.
 NSaved=11 IEnMin=11 EnMin= -1136.13594926211     IErMin=11 ErrMin= 9.65D-07
 ErrMax= 9.65D-07  0.00D+00 EMaxC= 1.00D-01 BMatC= 2.68D-10 BMatP= 2.32D-09
 IDIUse=1 WtCom= 1.00D+00 WtEn= 0.00D+00
 Coeff-Com: -0.917D-04 0.120D-03 0.147D-03 0.663D-04 0.479D-02 0.142D-01
 Coeff-Com: -0.279D-01-0.885D-01-0.113D+00 0.600D-02 0.120D+01
 Coeff:     -0.917D-04 0.120D-03 0.147D-03 0.663D-04 0.479D-02 0.142D-01
 Coeff:     -0.279D-01-0.885D-01-0.113D+00 0.600D-02 0.120D+01
 Gap=     0.054 Goal=   None    Shift=    0.000
 Gap=     0.057 Goal=   None    Shift=    0.000
 RMSDP=9.62D-06 MaxDP=6.47D-04 DE=-7.06D-09 OVMax= 1.03D-04

 Cycle  12  Pass 1  IDiag  1:
 E= -1136.13594926397     Delta-E=       -0.000000001855 Rises=F Damp=F
 DIIS: error= 3.80D-07 at cycle  12 NSaved=  12.
 NSaved=12 IEnMin=12 EnMin= -1136.13594926397     IErMin=12 ErrMin= 3.80D-07
 ErrMax= 3.80D-07  0.00D+00 EMaxC= 1.00D-01 BMatC= 5.13D-11 BMatP= 2.68D-10
 IDIUse=1 WtCom= 1.00D+00 WtEn= 0.00D+00
 Coeff-Com: -0.354D-04 0.452D-04-0.583D-04-0.691D-04 0.168D-02 0.556D-02
 Coeff-Com: -0.202D-02-0.167D-01-0.732D-01-0.134D+00 0.354D+00 0.865D+00
 Coeff:     -0.354D-04 0.452D-04-0.583D-04-0.691D-04 0.168D-02 0.556D-02
 Coeff:     -0.202D-02-0.167D-01-0.732D-01-0.134D+00 0.354D+00 0.865D+00
 Gap=     0.054 Goal=   None    Shift=    0.000
 Gap=     0.057 Goal=   None    Shift=    0.000
 RMSDP=3.19D-06 MaxDP=2.09D-04 DE=-1.86D-09 OVMax= 3.24D-05

 Cycle  13  Pass 1  IDiag  1:
 E= -1136.13594926416     Delta-E=       -0.000000000195 Rises=F Damp=F
 DIIS: error= 1.40D-07 at cycle  13 NSaved=  13.
 NSaved=13 IEnMin=13 EnMin= -1136.13594926416     IErMin=13 ErrMin= 1.40D-07
 ErrMax= 1.40D-07  0.00D+00 EMaxC= 1.00D-01 BMatC= 7.58D-12 BMatP= 5.13D-11
 IDIUse=1 WtCom= 1.00D+00 WtEn= 0.00D+00
 Coeff-Com:  0.494D-05-0.715D-05-0.403D-04-0.236D-04-0.257D-03-0.750D-03
 Coeff-Com:  0.484D-02 0.105D-01-0.847D-02-0.540D-01-0.719D-01 0.252D+00
 Coeff-Com:  0.868D+00
 Coeff:      0.494D-05-0.715D-05-0.403D-04-0.236D-04-0.257D-03-0.750D-03
 Coeff:      0.484D-02 0.105D-01-0.847D-02-0.540D-01-0.719D-01 0.252D+00
 Coeff:      0.868D+00
 Gap=     0.054 Goal=   None    Shift=    0.000
 Gap=     0.057 Goal=   None    Shift=    0.000
 RMSDP=1.07D-06 MaxDP=5.11D-05 DE=-1.95D-10 OVMax= 1.00D-05

 Cycle  14  Pass 1  IDiag  1:
 E= -1136.13594926420     Delta-E=       -0.000000000037 Rises=F Damp=F
 DIIS: error= 4.60D-08 at cycle  14 NSaved=  14.
 NSaved=14 IEnMin=14 EnMin= -1136.13594926420     IErMin=14 ErrMin= 4.60D-08
 ErrMax= 4.60D-08  0.00D+00 EMaxC= 1.00D-01 BMatC= 7.64D-13 BMatP= 7.58D-12
 IDIUse=1 WtCom= 1.00D+00 WtEn= 0.00D+00
 Coeff-Com:  0.373D-05-0.470D-05 0.189D-06 0.158D-05-0.169D-03-0.492D-03
 Coeff-Com: -0.324D-03 0.758D-03 0.108D-01 0.218D-01-0.412D-01-0.115D+00
 Coeff-Com: -0.121D+00 0.125D+01
 Coeff:      0.373D-05-0.470D-05 0.189D-06 0.158D-05-0.169D-03-0.492D-03
 Coeff:     -0.324D-03 0.758D-03 0.108D-01 0.218D-01-0.412D-01-0.115D+00
 Coeff:     -0.121D+00 0.125D+01
 Gap=     0.054 Goal=   None    Shift=    0.000
 Gap=     0.057 Goal=   None    Shift=    0.000
 RMSDP=4.09D-07 MaxDP=3.51D-05 DE=-3.68D-11 OVMax= 4.80D-06

 Cycle  15  Pass 1  IDiag  1:
 E= -1136.13594926419     Delta-E=        0.000000000003 Rises=F Damp=F
 DIIS: error= 2.04D-08 at cycle  15 NSaved=  15.
 NSaved=15 IEnMin=14 EnMin= -1136.13594926420     IErMin=15 ErrMin= 2.04D-08
 ErrMax= 2.04D-08  0.00D+00 EMaxC= 1.00D-01 BMatC= 1.24D-13 BMatP= 7.64D-13
 IDIUse=1 WtCom= 1.00D+00 WtEn= 0.00D+00
 Coeff-Com: -0.153D-05 0.211D-05 0.674D-05 0.385D-05 0.676D-04 0.149D-03
 Coeff-Com: -0.702D-03-0.169D-02-0.487D-03 0.545D-02 0.199D-01-0.297D-01
 Coeff-Com: -0.114D+00-0.208D+00 0.133D+01
 Coeff:     -0.153D-05 0.211D-05 0.674D-05 0.385D-05 0.676D-04 0.149D-03
 Coeff:     -0.702D-03-0.169D-02-0.487D-03 0.545D-02 0.199D-01-0.297D-01
 Coeff:     -0.114D+00-0.208D+00 0.133D+01
 Gap=     0.054 Goal=   None    Shift=    0.000
 Gap=     0.057 Goal=   None    Shift=    0.000
 RMSDP=1.93D-07 MaxDP=1.73D-05 DE= 3.18D-12 OVMax= 2.28D-06

 Cycle  16  Pass 1  IDiag  1:
 E= -1136.13594926420     Delta-E=       -0.000000000001 Rises=F Damp=F
 DIIS: error= 6.91D-09 at cycle  16 NSaved=  16.
 NSaved=16 IEnMin=14 EnMin= -1136.13594926420     IErMin=16 ErrMin= 6.91D-09
 ErrMax= 6.91D-09  0.00D+00 EMaxC= 1.00D-01 BMatC= 1.49D-14 BMatP= 1.24D-13
 IDIUse=1 WtCom= 1.00D+00 WtEn= 0.00D+00
 Coeff-Com: -0.459D-06 0.582D-06 0.115D-05 0.333D-06 0.215D-04 0.637D-04
 Coeff-Com:  0.296D-04-0.158D-03-0.127D-02-0.209D-02 0.465D-02 0.134D-01
 Coeff-Com:  0.117D-01-0.154D+00 0.369D-01 0.109D+01
 Coeff:     -0.459D-06 0.582D-06 0.115D-05 0.333D-06 0.215D-04 0.637D-04
 Coeff:      0.296D-04-0.158D-03-0.127D-02-0.209D-02 0.465D-02 0.134D-01
 Coeff:      0.117D-01-0.154D+00 0.369D-01 0.109D+01
 Gap=     0.054 Goal=   None    Shift=    0.000
 Gap=     0.057 Goal=   None    Shift=    0.000
 RMSDP=5.25D-08 MaxDP=6.32D-06 DE=-1.14D-12 OVMax= 6.18D-07

 Cycle  17  Pass 1  IDiag  1:
 E= -1136.13594926419     Delta-E=        0.000000000003 Rises=F Damp=F
 DIIS: error= 3.57D-09 at cycle  17 NSaved=  17.
 NSaved=17 IEnMin=14 EnMin= -1136.13594926420     IErMin=17 ErrMin= 3.57D-09
 ErrMax= 3.57D-09  0.00D+00 EMaxC= 1.00D-01 BMatC= 3.75D-15 BMatP= 1.49D-14
 IDIUse=1 WtCom= 1.00D+00 WtEn= 0.00D+00
 Large coefficients: NSaved= 17 BigCof=    0.00 CofMax=   10.00 Det=-8.46D-15
 Inversion failed.  Reducing to 16 matrices.
 Large coefficients: NSaved= 16 BigCof=    0.00 CofMax=   10.00 Det=-8.73D-15
 Inversion failed.  Reducing to 15 matrices.
 Coeff-Com: -0.891D-06-0.914D-06-0.215D-05 0.149D-04 0.818D-04 0.137D-03
 Coeff-Com: -0.283D-03-0.125D-02-0.113D-02 0.767D-02 0.158D-01-0.208D-02
 Coeff-Com: -0.194D+00 0.301D+00 0.874D+00
 Coeff:     -0.891D-06-0.914D-06-0.215D-05 0.149D-04 0.818D-04 0.137D-03
 Coeff:     -0.283D-03-0.125D-02-0.113D-02 0.767D-02 0.158D-01-0.208D-02
 Coeff:     -0.194D+00 0.301D+00 0.874D+00
 Gap=     0.054 Goal=   None    Shift=    0.000
 Gap=     0.057 Goal=   None    Shift=    0.000
 RMSDP=2.29D-08 MaxDP=3.96D-06 DE= 2.73D-12 OVMax= 2.46D-07

 Cycle  18  Pass 1  IDiag  1:
 E= -1136.13594926420     Delta-E=       -0.000000000011 Rises=F Damp=F
 DIIS: error= 1.51D-09 at cycle  18 NSaved=  16.
 NSaved=16 IEnMin=16 EnMin= -1136.13594926420     IErMin=16 ErrMin= 1.51D-09
 ErrMax= 1.51D-09  0.00D+00 EMaxC= 1.00D-01 BMatC= 4.90D-16 BMatP= 3.75D-15
 IDIUse=1 WtCom= 1.00D+00 WtEn= 0.00D+00
 Large coefficients: NSaved= 16 BigCof=    0.00 CofMax=   10.00 Det=-1.25D-15
 Inversion failed.  Reducing to 15 matrices.
 Coeff-Com:  0.187D-06 0.138D-05-0.253D-05-0.387D-04-0.617D-04 0.198D-03
 Coeff-Com:  0.665D-03-0.152D-03-0.386D-02-0.513D-02 0.228D-01 0.369D-01
 Coeff-Com: -0.262D+00-0.128D+00 0.134D+01
 Coeff:      0.187D-06 0.138D-05-0.253D-05-0.387D-04-0.617D-04 0.198D-03
 Coeff:      0.665D-03-0.152D-03-0.386D-02-0.513D-02 0.228D-01 0.369D-01
 Coeff:     -0.262D+00-0.128D+00 0.134D+01
 Gap=     0.054 Goal=   None    Shift=    0.000
 Gap=     0.057 Goal=   None    Shift=    0.000
 RMSDP=1.13D-08 MaxDP=1.65D-06 DE=-1.14D-11 OVMax= 1.46D-07

 Cycle  19  Pass 1  IDiag  1:
 E= -1136.13594926420     Delta-E=        0.000000000001 Rises=F Damp=F
 DIIS: error= 4.66D-10 at cycle  19 NSaved=  16.
 NSaved=16 IEnMin=15 EnMin= -1136.13594926420     IErMin=16 ErrMin= 4.66D-10
 ErrMax= 4.66D-10  0.00D+00 EMaxC= 1.00D-01 BMatC= 5.05D-17 BMatP= 4.90D-16
 IDIUse=1 WtCom= 1.00D+00 WtEn= 0.00D+00
 Large coefficients: NSaved= 16 BigCof=    0.00 CofMax=   10.00 Det=-9.41D-17
 Inversion failed.  Reducing to 15 matrices.
 Coeff-Com: -0.128D-05-0.422D-05-0.653D-05-0.780D-06 0.641D-04 0.188D-03
 Coeff-Com: -0.512D-04-0.110D-02-0.191D-02 0.279D-02 0.174D-01-0.291D-01
 Coeff-Com: -0.928D-01 0.185D-01 0.109D+01
 Coeff:     -0.128D-05-0.422D-05-0.653D-05-0.780D-06 0.641D-04 0.188D-03
 Coeff:     -0.512D-04-0.110D-02-0.191D-02 0.279D-02 0.174D-01-0.291D-01
 Coeff:     -0.928D-01 0.185D-01 0.109D+01
 Gap=     0.054 Goal=   None    Shift=    0.000
 Gap=     0.057 Goal=   None    Shift=    0.000
 RMSDP=6.14D-09 MaxDP=7.49D-07 DE= 6.82D-13 OVMax= 2.46D-08

 SCF Done:  E(UB3LYP) =  -1136.13594926     A.U. after   19 cycles
            NFock= 19  Conv=0.61D-08     -V/T= 2.0027
 <Sx>= 0.0000 <Sy>= 0.0000 <Sz>= 0.5000 <S**2>= 0.7576 S= 0.5038
 <L.S>= 0.000000000000E+00
 KE= 1.133099144014D+03 PE=-3.466236870802D+03 EE= 8.287920310171D+02
 Annihilation of the first spin contaminant:
 S**2 before annihilation     0.7576,   after     0.7500
 Leave Link  502 at Wed Nov 29 00:40:56 2023, MaxMem=  1879048192 cpu:             181.8 elap:              16.2
 (Enter /home/sekinelabo/g16/l601.exe)
 Copying SCF densities to generalized density rwf, IOpCl= 1 IROHF=0.

 **********************************************************************

            Population analysis using the SCF Density.

 **********************************************************************

 Orbital symmetries:
 Alpha Orbitals:
       Occupied  (A) (A) (A) (A) (A) (A) (A) (A) (A) (A) (A) (A)
                 (A) (A) (A) (A) (A) (A) (A) (A) (A) (A) (A) (A)
                 (A) (A) (A) (A) (A) (A) (A) (A) (A) (A) (A) (A)
                 (A) (A) (A)
       Virtual   (A) (A) (A) (A) (A) (A) (A) (A) (A) (A) (A) (A)
                 (A) (A) (A) (A) (A) (A) (A) (A) (A) (A) (A) (A)
                 (A) (A) (A) (A) (A) (A) (A) (A) (A) (A) (A) (A)
                 (A) (A) (A) (A) (A) (A) (A) (A) (A) (A) (A) (A)
                 (A) (A) (A) (A) (A) (A) (A) (A) (A) (A) (A) (A)
                 (A) (A) (A) (A) (A) (A) (A) (A) (A) (A) (A) (A)
                 (A) (A) (A) (A) (A) (A) (A) (A) (A) (A) (A) (A)
                 (A) (A) (A) (A) (A) (A) (A) (A) (A) (A) (A) (A)
                 (A) (A) (A) (A) (A) (A) (A) (A) (A) (A) (A) (A)
                 (A) (A) (A) (A) (A) (A) (A) (A) (A) (A) (A) (A)
                 (A) (A) (A) (A) (A) (A) (A) (A) (A) (A) (A) (A)
                 (A) (A) (A) (A) (A) (A) (A) (A) (A) (A) (A) (A)
                 (A) (A) (A) (A) (A) (A) (A) (A) (A) (A) (A) (A)
                 (A) (A) (A) (A) (A) (A) (A) (A) (A) (A) (A) (A)
                 (A) (A) (A)
 Beta  Orbitals:
       Occupied  (A) (A) (A) (A) (A) (A) (A) (A) (A) (A) (A) (A)
                 (A) (A) (A) (A) (A) (A) (A) (A) (A) (A) (A) (A)
                 (A) (A) (A) (A) (A) (A) (A) (A) (A) (A) (A) (A)
                 (A) (A)
       Virtual   (A) (A) (A) (A) (A) (A) (A) (A) (A) (A) (A) (A)
                 (A) (A) (A) (A) (A) (A) (A) (A) (A) (A) (A) (A)
                 (A) (A) (A) (A) (A) (A) (A) (A) (A) (A) (A) (A)
                 (A) (A) (A) (A) (A) (A) (A) (A) (A) (A) (A) (A)
                 (A) (A) (A) (A) (A) (A) (A) (A) (A) (A) (A) (A)
                 (A) (A) (A) (A) (A) (A) (A) (A) (A) (A) (A) (A)
                 (A) (A) (A) (A) (A) (A) (A) (A) (A) (A) (A) (A)
                 (A) (A) (A) (A) (A) (A) (A) (A) (A) (A) (A) (A)
                 (A) (A) (A) (A) (A) (A) (A) (A) (A) (A) (A) (A)
                 (A) (A) (A) (A) (A) (A) (A) (A) (A) (A) (A) (A)
                 (A) (A) (A) (A) (A) (A) (A) (A) (A) (A) (A) (A)
                 (A) (A) (A) (A) (A) (A) (A) (A) (A) (A) (A) (A)
                 (A) (A) (A) (A) (A) (A) (A) (A) (A) (A) (A) (A)
                 (A) (A) (A) (A) (A) (A) (A) (A) (A) (A) (A) (A)
                 (A) (A) (A) (A)
 The electronic state is 2-A.
 Alpha  occ. eigenvalues --  -38.43708 -38.43617 -38.43566 -38.43260 -38.43141
 Alpha  occ. eigenvalues --  -38.42914 -38.42886  -2.19626  -2.19522  -2.19491
 Alpha  occ. eigenvalues --   -2.19173  -2.19073  -2.18975  -2.18966  -1.13326
 Alpha  occ. eigenvalues --   -1.13288  -1.13276  -1.13251  -1.13193  -1.13178
 Alpha  occ. eigenvalues --   -1.13164  -1.13158  -1.13088  -1.12881  -1.12841
 Alpha  occ. eigenvalues --   -1.12805  -1.12796  -1.12747  -1.12698  -1.12678
 Alpha  occ. eigenvalues --   -1.12607  -1.12584  -1.12582  -1.12575  -1.12564
 Alpha  occ. eigenvalues --   -0.19686  -0.13423  -0.12770  -0.10708
 Alpha virt. eigenvalues --   -0.05334  -0.05127  -0.04579  -0.03157  -0.02801
 Alpha virt. eigenvalues --   -0.02158  -0.01383  -0.01065  -0.00084  -0.00024
 Alpha virt. eigenvalues --    0.00062   0.00369   0.00869   0.00944   0.00966
 Alpha virt. eigenvalues --    0.01038   0.01269   0.01313   0.01356   0.01384
 Alpha virt. eigenvalues --    0.01411   0.01578   0.01847   0.01904   0.02212
 Alpha virt. eigenvalues --    0.02358   0.02372   0.02690   0.02701   0.02895
 Alpha virt. eigenvalues --    0.03137   0.03144   0.03227   0.03265   0.03305
 Alpha virt. eigenvalues --    0.03317   0.03334   0.03432   0.03533   0.03561
 Alpha virt. eigenvalues --    0.04558   0.04616   0.04882   0.04925   0.04931
 Alpha virt. eigenvalues --    0.05140   0.05200   0.05321   0.05359   0.05414
 Alpha virt. eigenvalues --    0.06088   0.07428   0.07495   0.07703   0.07749
 Alpha virt. eigenvalues --    0.07965   0.08036   0.08264   0.08473   0.09453
 Alpha virt. eigenvalues --    0.09647   0.09979   0.11330   0.11411   0.11994
 Alpha virt. eigenvalues --    0.12226   0.12997   0.13518   0.13744   0.13843
 Alpha virt. eigenvalues --    0.14177   0.14464   0.14578   0.14954   0.15375
 Alpha virt. eigenvalues --    0.15826   0.15864   0.16211   0.16658   0.17564
 Alpha virt. eigenvalues --    0.25421   0.26680   0.26913   0.27167   0.27944
 Alpha virt. eigenvalues --    0.28721   0.29538   0.30951   0.31798   0.34684
 Alpha virt. eigenvalues --    0.35969   0.36791   0.37256   0.38107   0.38677
 Alpha virt. eigenvalues --    0.39952   0.40830   0.41732   0.42711   0.44281
 Alpha virt. eigenvalues --    0.44691   0.45290   0.45579   0.45718   0.45780
 Alpha virt. eigenvalues --    0.45983   0.46054   0.46416   0.47240   0.47776
 Alpha virt. eigenvalues --    0.48020   0.49024   0.49487   0.51082   0.51409
 Alpha virt. eigenvalues --    0.52414   0.53506   0.53776   0.54325   0.55026
 Alpha virt. eigenvalues --    0.55097   0.55245   0.56716   0.59331   0.60510
 Alpha virt. eigenvalues --    0.61341   0.62093   0.62708   0.63285   0.63692
 Alpha virt. eigenvalues --    0.64827   0.68063   0.69181   0.70398   0.71030
 Alpha virt. eigenvalues --    0.72398   2.07147   2.20147   2.21191   2.23725
 Alpha virt. eigenvalues --    2.24653   2.31647   2.33030   4.42660   4.43186
 Alpha virt. eigenvalues --    4.43413   4.43536   4.44758   4.45255   4.46225
 Alpha virt. eigenvalues --    4.46359   4.47294   4.48694   4.51438   4.51935
 Alpha virt. eigenvalues --    4.54028   4.54893   4.57479   4.59035   4.59797
 Alpha virt. eigenvalues --    4.61007   4.63020   4.68713   4.71325  96.26602
 Alpha virt. eigenvalues --   96.43297  96.44794  96.48114  96.49377  96.58053
 Alpha virt. eigenvalues --   96.59851
  Beta  occ. eigenvalues --  -38.43702 -38.43610 -38.43558 -38.43253 -38.43132
  Beta  occ. eigenvalues --  -38.42833 -38.42811  -2.19620  -2.19512  -2.19480
  Beta  occ. eigenvalues --   -2.19164  -2.19061  -2.18832  -2.18826  -1.13320
  Beta  occ. eigenvalues --   -1.13290  -1.13247  -1.13244  -1.13175  -1.13163
  Beta  occ. eigenvalues --   -1.13150  -1.13115  -1.13083  -1.12871  -1.12802
  Beta  occ. eigenvalues --   -1.12795  -1.12785  -1.12701  -1.12693  -1.12596
  Beta  occ. eigenvalues --   -1.12511  -1.12485  -1.12479  -1.12475  -1.12471
  Beta  occ. eigenvalues --   -0.18949  -0.13133  -0.12481
  Beta virt. eigenvalues --   -0.06739  -0.05316  -0.05129  -0.04583  -0.02310
  Beta virt. eigenvalues --   -0.01985  -0.01302  -0.01118  -0.01005  -0.00124
  Beta virt. eigenvalues --   -0.00076   0.00171   0.00398   0.00915   0.00945
  Beta virt. eigenvalues --    0.00962   0.01075   0.01406   0.01457   0.01482
  Beta virt. eigenvalues --    0.01492   0.01535   0.01696   0.01873   0.01915
  Beta virt. eigenvalues --    0.02318   0.02364   0.02412   0.02668   0.02698
  Beta virt. eigenvalues --    0.02909   0.03137   0.03153   0.03297   0.03322
  Beta virt. eigenvalues --    0.03359   0.03398   0.03456   0.03489   0.03592
  Beta virt. eigenvalues --    0.03800   0.04639   0.04705   0.04957   0.04992
  Beta virt. eigenvalues --    0.05094   0.05291   0.05328   0.05418   0.05512
  Beta virt. eigenvalues --    0.05643   0.06431   0.07398   0.07482   0.07693
  Beta virt. eigenvalues --    0.08010   0.08133   0.08180   0.08373   0.08563
  Beta virt. eigenvalues --    0.09812   0.09888   0.10269   0.11429   0.11552
  Beta virt. eigenvalues --    0.12190   0.12399   0.13351   0.13812   0.13981
  Beta virt. eigenvalues --    0.14114   0.14419   0.14650   0.14792   0.15182
  Beta virt. eigenvalues --    0.15585   0.15810   0.16244   0.16568   0.17052
  Beta virt. eigenvalues --    0.18094   0.25687   0.26841   0.27104   0.27213
  Beta virt. eigenvalues --    0.28006   0.29256   0.29581   0.31577   0.32434
  Beta virt. eigenvalues --    0.35048   0.36093   0.36976   0.37601   0.38357
  Beta virt. eigenvalues --    0.38909   0.40098   0.41325   0.41810   0.42819
  Beta virt. eigenvalues --    0.44587   0.44914   0.45246   0.45750   0.45840
  Beta virt. eigenvalues --    0.45902   0.46099   0.46237   0.46670   0.47322
  Beta virt. eigenvalues --    0.47831   0.48196   0.49096   0.49570   0.51056
  Beta virt. eigenvalues --    0.51479   0.52528   0.53545   0.54146   0.54591
  Beta virt. eigenvalues --    0.55190   0.55242   0.55413   0.56862   0.59625
  Beta virt. eigenvalues --    0.61009   0.61538   0.62276   0.63168   0.63659
  Beta virt. eigenvalues --    0.64199   0.64932   0.68368   0.69468   0.70538
  Beta virt. eigenvalues --    0.71011   0.72575   2.07212   2.20155   2.21200
  Beta virt. eigenvalues --    2.23733   2.24663   2.31972   2.33361   4.42657
  Beta virt. eigenvalues --    4.43258   4.43506   4.43563   4.44825   4.45324
  Beta virt. eigenvalues --    4.46246   4.46416   4.47344   4.48729   4.51463
  Beta virt. eigenvalues --    4.51952   4.54069   4.54932   4.57591   4.59111
  Beta virt. eigenvalues --    4.59858   4.61013   4.63107   4.68784   4.71387
  Beta virt. eigenvalues --   96.26629  96.43302  96.44800  96.48119  96.49383
  Beta virt. eigenvalues --   96.58152  96.59949
          Condensed to atoms (all electrons):
               1          2          3          4          5          6
     1  Na  12.244637   0.346150  -0.870031  -0.925760  -0.778157   0.275101
     2  Na   0.346150  11.552163   0.541139   0.170925  -0.276081  -0.786845
     3  Na  -0.870031   0.541139  11.635186  -0.044490   0.473666  -0.214798
     4  Na  -0.925760   0.170925  -0.044490  19.883227  -0.071144  -6.431372
     5  Na  -0.778157  -0.276081   0.473666  -0.071144  11.408526  -0.411133
     6  Na   0.275101  -0.786845  -0.214798  -6.431372  -0.411133  18.565356
     7  Na   0.458470  -0.786711  -0.712742  -1.071004   0.465510   0.535977
               7
     1  Na   0.458470
     2  Na  -0.786711
     3  Na  -0.712742
     4  Na  -1.071004
     5  Na   0.465510
     6  Na   0.535977
     7  Na  11.937563
          Atomic-Atomic Spin Densities.
               1          2          3          4          5          6
     1  Na  -0.359764  -0.085576   0.173386  -0.373178   0.131497   0.545957
     2  Na  -0.085576  -0.181973  -0.092117   0.343894   0.091616  -0.255393
     3  Na   0.173386  -0.092117  -0.232890  -0.057555  -0.090121   0.139127
     4  Na  -0.373178   0.343894  -0.057555   7.856886   0.213618  -6.828190
     5  Na   0.131497   0.091616  -0.090121   0.213618  -0.170069  -0.170721
     6  Na   0.545957  -0.255393   0.139127  -6.828190  -0.170721   6.596829
     7  Na  -0.082809   0.129780   0.136116  -0.468679  -0.092062   0.574636
               7
     1  Na  -0.082809
     2  Na   0.129780
     3  Na   0.136116
     4  Na  -0.468679
     5  Na  -0.092062
     6  Na   0.574636
     7  Na  -0.275469
 Mulliken charges and spin densities:
               1          2
     1  Na   0.249591  -0.050489
     2  Na   0.239261  -0.049769
     3  Na   0.192070  -0.024054
     4  Na  -0.510382   0.686798
     5  Na   0.188813  -0.086242
     6  Na  -0.532287   0.602245
     7  Na   0.172935  -0.078488
 Sum of Mulliken charges =  -0.00000   1.00000
 Mulliken charges and spin densities with hydrogens summed into heavy atoms:
               1          2
     1  Na   0.249591  -0.050489
     2  Na   0.239261  -0.049769
     3  Na   0.192070  -0.024054
     4  Na  -0.510382   0.686798
     5  Na   0.188813  -0.086242
     6  Na  -0.532287   0.602245
     7  Na   0.172935  -0.078488
 Electronic spatial extent (au):  <R**2>=           1959.5849
 Charge=             -0.0000 electrons
 Dipole moment (field-independent basis, Debye):
    X=             -0.0993    Y=              0.0669    Z=              0.0132  Tot=              0.1204
 Quadrupole moment (field-independent basis, Debye-Ang):
   XX=            -56.2811   YY=            -61.5662   ZZ=            -74.9036
   XY=             -0.1206   XZ=              0.7488   YZ=             -0.3624
 Traceless Quadrupole moment (field-independent basis, Debye-Ang):
   XX=              7.9692   YY=              2.6841   ZZ=            -10.6533
   XY=             -0.1206   XZ=              0.7488   YZ=             -0.3624
 Octapole moment (field-independent basis, Debye-Ang**2):
  XXX=              0.4743  YYY=              1.5784  ZZZ=              0.2760  XYY=             -3.2386
  XXY=              0.1500  XXZ=             -1.5132  XZZ=             -0.3570  YZZ=              0.2478
  YYZ=              1.0083  XYZ=              0.1683
 Hexadecapole moment (field-independent basis, Debye-Ang**3):
 XXXX=          -1285.9880 YYYY=          -1216.5117 ZZZZ=           -660.8304 XXXY=             -5.0221
 XXXZ=              7.8795 YYYX=              1.9186 YYYZ=             -7.3971 ZZZX=             -2.2633
 ZZZY=              0.5224 XXYY=           -406.7253 XXZZ=           -392.8001 YYZZ=           -366.4313
 XXYZ=             -2.2444 YYXZ=             13.5784 ZZXY=             -0.7477
 N-N= 3.682097465065D+02 E-N=-3.466236870717D+03  KE= 1.133099144014D+03
                          Isotropic Fermi Contact Couplings
        Atom                 a.u.       MegaHertz       Gauss      10(-4) cm-1
     1  Na(23)            -0.01463     -17.31236      -6.17748      -5.77478
     2  Na(23)            -0.01182     -13.98818      -4.99133      -4.66595
     3  Na(23)            -0.01684     -19.92109      -7.10834      -6.64496
     4  Na(23)             0.32221     381.18337     136.01571     127.14909
     5  Na(23)            -0.01503     -17.77963      -6.34421      -5.93065
     6  Na(23)             0.29102     344.28063     122.84789     114.83966
     7  Na(23)            -0.01334     -15.77640      -5.62941      -5.26244
 --------------------------------------------------------
       Center         ----  Spin Dipole Couplings  ----
                      3XX-RR        3YY-RR        3ZZ-RR
 --------------------------------------------------------
     1   Atom       -0.018035     -0.019748      0.037783
     2   Atom       -0.020502     -0.016083      0.036585
     3   Atom       -0.012309     -0.019972      0.032281
     4   Atom       -0.002808      0.005025     -0.002217
     5   Atom       -0.019124     -0.015100      0.034224
     6   Atom        0.003236     -0.004124      0.000888
     7   Atom       -0.016277     -0.017418      0.033694
 --------------------------------------------------------
                        XY            XZ            YZ
 --------------------------------------------------------
     1   Atom        0.002326      0.001487     -0.007146
     2   Atom       -0.002153     -0.004975      0.005293
     3   Atom       -0.000269      0.002681     -0.000336
     4   Atom        0.000182      0.001530     -0.001583
     5   Atom        0.002384     -0.003879     -0.002941
     6   Atom       -0.000314      0.002576     -0.000209
     7   Atom       -0.002444     -0.000170      0.007128
 --------------------------------------------------------


 ---------------------------------------------------------------------------------
              Anisotropic Spin Dipole Couplings in Principal Axis System
 ---------------------------------------------------------------------------------

       Atom             a.u.   MegaHertz   Gauss  10(-4) cm-1        Axes

              Baa    -0.0221    -3.127    -1.116    -1.043 -0.5206  0.8462  0.1138
     1 Na(23) Bbb    -0.0165    -2.336    -0.834    -0.779  0.8535  0.5191  0.0449
              Bcc     0.0387     5.462     1.949     1.822  0.0211 -0.1205  0.9925
 
              Baa    -0.0215    -3.038    -1.084    -1.013  0.9445  0.3245  0.0513
     2 Na(23) Bbb    -0.0161    -2.268    -0.809    -0.756 -0.3164  0.9404 -0.1244
              Bcc     0.0376     5.306     1.893     1.770 -0.0887  0.1013  0.9909
 
              Baa    -0.0200    -2.822    -1.007    -0.941  0.0334  0.9994  0.0047
     3 Na(23) Bbb    -0.0125    -1.760    -0.628    -0.587  0.9976 -0.0331 -0.0600
              Bcc     0.0324     4.582     1.635     1.528  0.0598 -0.0067  0.9982
 
              Baa    -0.0042    -0.596    -0.213    -0.199  0.7365 -0.1282 -0.6642
     4 Na(23) Bbb    -0.0011    -0.161    -0.057    -0.054  0.6763  0.1645  0.7181
              Bcc     0.0054     0.757     0.270     0.252 -0.0172  0.9780 -0.2078
 
              Baa    -0.0203    -2.871    -1.024    -0.958  0.9182 -0.3936  0.0441
     5 Na(23) Bbb    -0.0144    -2.029    -0.724    -0.677  0.3890  0.9172  0.0866
              Bcc     0.0347     4.900     1.748     1.634 -0.0745 -0.0623  0.9953
 
              Baa    -0.0041    -0.585    -0.209    -0.195  0.0342  0.9991  0.0240
     6 Na(23) Bbb    -0.0008    -0.109    -0.039    -0.036 -0.5411 -0.0016  0.8410
              Bcc     0.0049     0.693     0.247     0.231  0.8403 -0.0418  0.5406
 
              Baa    -0.0200    -2.818    -1.006    -0.940  0.5464  0.8305 -0.1086
     7 Na(23) Bbb    -0.0147    -2.078    -0.742    -0.693  0.8375 -0.5402  0.0825
              Bcc     0.0347     4.897     1.747     1.633 -0.0098  0.1360  0.9907
 

 ---------------------------------------------------------------------------------

 No NMR shielding tensors so no spin-rotation constants.
 Leave Link  601 at Wed Nov 29 00:40:56 2023, MaxMem=  1879048192 cpu:               2.3 elap:               0.2
 (Enter /home/sekinelabo/g16/l701.exe)
 ... and contract with generalized density number  0.
 Compute integral first derivatives.
 Leave Link  701 at Wed Nov 29 00:40:56 2023, MaxMem=  1879048192 cpu:               1.5 elap:               0.1
 (Enter /home/sekinelabo/g16/l702.exe)
 L702 exits ... SP integral derivatives will be done elsewhere.
 Leave Link  702 at Wed Nov 29 00:40:56 2023, MaxMem=  1879048192 cpu:               0.4 elap:               0.0
 (Enter /home/sekinelabo/g16/l703.exe)
 Integral derivatives from FoFJK, PRISM(SPDF).
 Compute integral first derivatives, UseDBF=F ICtDFT=           0.
 Calling FoFJK, ICntrl=      2127 FMM=F ISym2X=0 I1Cent= 0 IOpClX= 1 NMat=1 NMatS=1 NMatT=0.
 FoFJK:  IHMeth= 1 ICntrl=    2127 DoSepK=F KAlg= 0 I1Cent=           0 FoldK=F
 IRaf=         0 NMat=       1 IRICut=       1 DoRegI=T DoRafI=F ISym2E= 0 IDoP0=0 IntGTp=1.
 FoFCou: FMM=F IPFlag=           0 FMFlag=      100000 FMFlg1=         800
         NFxFlg=           0 DoJE=F BraDBF=F KetDBF=F FulRan=T
         wScrn=  0.000000 ICntrl=      2127 IOpCl=  1 I1Cent=           0 NGrid=           0
         NMat0=    1 NMatS0=      1 NMatT0=    0 NMatD0=    1 NMtDS0=    0 NMtDT0=    0
 Symmetry not used in FoFCou.
 Leave Link  703 at Wed Nov 29 00:40:59 2023, MaxMem=  1879048192 cpu:              35.0 elap:               2.4
 (Enter /home/sekinelabo/g16/l716.exe)
 Dipole        =-3.90504584D-02 2.63154717D-02 5.20724798D-03
 ***** Axes restored to original set *****
 -------------------------------------------------------------------
 Center     Atomic                   Forces (Hartrees/Bohr)
 Number     Number              X              Y              Z
 -------------------------------------------------------------------
      1       11           0.002589900    0.002935764   -0.003951350
      2       11          -0.001338707    0.004179617   -0.005198968
      3       11          -0.004729451   -0.000611357    0.000171740
      4       11          -0.004016325    0.005476136    0.003869398
      5       11           0.001627978   -0.002787349    0.004938326
      6       11           0.003457077   -0.006668383   -0.003100727
      7       11           0.002409527   -0.002524427    0.003271580
 -------------------------------------------------------------------
 Cartesian Forces:  Max     0.006668383 RMS     0.003682739
 Z-matrix is all fixed cartesians, so copy forces.
 Force constants in Cartesian coordinates: 
                1             2             3             4             5 
      1  0.100698D+00
      2  0.208306D-01  0.792410D-01
      3 -0.138608D-01 -0.217776D-01  0.857039D-01
      4 -0.285139D-01  0.784308D-02 -0.195141D-01  0.895686D-01
      5 -0.145731D-01 -0.110797D-01  0.342013D-02 -0.303893D-02  0.804171D-01
      6  0.121681D-01  0.123976D-01 -0.164528D-01  0.199224D-01 -0.273783D-01
      7 -0.277923D-02 -0.624503D-02  0.265743D-02 -0.258793D-01  0.494969D-02
      8 -0.600677D-02  0.584430D-02  0.131259D-02 -0.202505D-01 -0.200224D-01
      9  0.286221D-02  0.142923D-02  0.677793D-02  0.133216D-01  0.185999D-01
     10 -0.277734D-01  0.161205D-01  0.178534D-01 -0.187476D-01 -0.667122D-02
     11 -0.120482D-01 -0.228226D-01  0.934683D-02  0.635982D-02 -0.216938D-01
     12  0.636881D-02 -0.192756D-01 -0.321158D-01  0.580958D-02 -0.233889D-01
     13  0.388101D-02 -0.428394D-02  0.424518D-02  0.769827D-02  0.156179D-02
     14 -0.443099D-02  0.390258D-02  0.593900D-02  0.107157D-02  0.354449D-02
     15  0.463843D-02  0.619085D-02  0.162018D-02 -0.777089D-03  0.660260D-02
     16 -0.217094D-01 -0.202723D-01 -0.471322D-02 -0.246902D-01  0.151902D-01
     17  0.813360D-02 -0.401427D-01 -0.155705D-01  0.559606D-02 -0.384985D-01
     18  0.796688D-02  0.121917D-01 -0.194650D-01 -0.118814D-01  0.189591D-01
     19 -0.238025D-01 -0.139929D-01  0.133321D-01  0.564106D-03  0.258151D-02
     20  0.809478D-02 -0.149429D-01  0.173295D-01  0.241892D-02  0.733290D-02
     21 -0.201436D-01  0.884380D-02 -0.260684D-01 -0.688101D-02  0.318559D-02
                6             7             8             9            10 
      6  0.102520D+00
      7 -0.172426D-01  0.118075D+00
      8  0.658266D-02  0.190808D-01  0.699351D-01
      9 -0.241556D-01  0.694191D-02 -0.957329D-02  0.751927D-01
     10 -0.121185D-01 -0.172068D-01 -0.204259D-01 -0.121352D-01  0.135351D+00
     11  0.124182D-01  0.960493D-02 -0.232804D-01 -0.105625D-01 -0.152739D-01
     12 -0.388003D-01  0.737184D-02 -0.618696D-02 -0.142724D-01 -0.105237D-01
     13 -0.178606D-02 -0.282663D-01  0.481901D-02 -0.248723D-01 -0.188511D-01
     14  0.776049D-02 -0.142229D-01 -0.148676D-01  0.296823D-02 -0.619539D-02
     15 -0.331902D-02  0.921601D-02  0.163229D-01 -0.282167D-01  0.208811D-03
     16  0.618421D-02 -0.391336D-01  0.241558D-01  0.182149D-01 -0.205769D-01
     17 -0.148715D-01 -0.112527D-01 -0.249577D-01 -0.286293D-02  0.673856D-02
     18 -0.213896D-01 -0.431170D-02 -0.853142D-02 -0.225176D-01  0.469231D-02
     19 -0.712765D-02 -0.480953D-02 -0.137241D-02 -0.433301D-02 -0.321952D-01
     20  0.309094D-02 -0.191483D-02  0.734871D-02  0.144361D-05  0.257073D-01
     21  0.159692D-02 -0.463291D-02  0.735132D-04  0.719158D-02  0.120229D-01
               11            12            13            14            15 
     11  0.178150D+00
     12  0.318112D-01  0.153963D+00
     13  0.757585D-02  0.507790D-03  0.782673D-01
     14 -0.420030D-01  0.230783D-01  0.112830D-01  0.787180D-01
     15 -0.169487D-01 -0.220774D-01 -0.234971D-02 -0.284637D-01  0.104380D+00
     16  0.534492D-02  0.360265D-02 -0.190487D-01  0.725336D-02  0.497924D-02
     17 -0.373911D-01 -0.130788D-01 -0.572088D-02 -0.205906D-01  0.136614D-01
     18 -0.137152D-01 -0.267141D-01  0.901570D-02 -0.223618D-01 -0.365578D-01
     19 -0.156350D-02 -0.131370D-01 -0.236804D-01  0.524133D-02 -0.159157D-01
     20 -0.309588D-01  0.704068D-02 -0.152349D-01 -0.870392D-02  0.263466D-02
     21 -0.123498D-01 -0.199829D-01  0.152394D-01  0.110795D-01 -0.158295D-01
               16            17            18            19            20 
     16  0.147285D+00
     17 -0.147398D-01  0.184555D+00
     18 -0.106702D-01  0.321874D-01  0.156274D+00
     19 -0.221264D-01  0.112451D-01  0.518836D-02  0.106050D+00
     20 -0.169322D-01 -0.229742D-01 -0.187298D-01 -0.213913D-02  0.628982D-01
     21 -0.175976D-01  0.534912D-03 -0.296304D-01  0.219928D-01 -0.113675D-01
               21 
     21  0.827227D-01
 Leave Link  716 at Wed Nov 29 00:40:59 2023, MaxMem=  1879048192 cpu:               0.4 elap:               0.0
 (Enter /home/sekinelabo/g16/l103.exe)

 GradGradGradGradGradGradGradGradGradGradGradGradGradGradGradGradGradGrad
 Berny optimization.
 Search for a local minimum.
 Step number   1 out of a maximum of    2
 All quantities printed in internal units (Hartrees-Bohrs-Radians)
 Second derivative matrix not updated -- first step.
 ITU=  0
     Eigenvalues ---    0.07005   0.07215   0.08348   0.10582   0.11620
     Eigenvalues ---    0.11782   0.11926   0.16920   0.17630   0.17886
     Eigenvalues ---    0.18329   0.18479   0.19008   0.22336   0.26297
 Angle between quadratic step and forces=  21.81 degrees.
 Linear search not attempted -- first point.
 B after Tr=     0.000000    0.000000    0.000000
         Rot=    1.000000   -0.000000   -0.000000    0.000000 Ang=   0.00 deg.
 Variable       Old X    -DE/DX   Delta X   Delta X   Delta X     New X
                                 (Linear)    (Quad)   (Total)
    X1       32.87953   0.00259   0.00000   0.03681   0.03681  32.91635
    Y1       31.83811   0.00294   0.00000   0.03540   0.03540  31.87350
    Z1       26.50908  -0.00395   0.00000  -0.03745  -0.03745  26.47163
    X2       26.58051  -0.00134   0.00000  -0.02004  -0.02004  26.56047
    Y2       31.19617   0.00418   0.00000   0.03695   0.03695  31.23312
    Z2       24.95723  -0.00520   0.00000  -0.06128  -0.06128  24.89595
    X3       23.83077  -0.00473   0.00000  -0.05934  -0.05934  23.77143
    Y3       27.07902  -0.00061   0.00000  -0.01419  -0.01419  27.06483
    Z3       28.54129   0.00017   0.00000  -0.00024  -0.00024  28.54105
    X4       28.56340  -0.00402   0.00000  -0.01940  -0.01940  28.54399
    Y4       31.62967   0.00548   0.00000   0.03199   0.03199  31.66166
    Z4       30.81425   0.00387   0.00000   0.02193   0.02193  30.83618
    X5       27.63006   0.00163   0.00000   0.00607   0.00607  27.63614
    Y5       26.05554  -0.00279   0.00000  -0.03828  -0.03828  26.01727
    Z5       33.17187   0.00494   0.00000   0.05657   0.05657  33.22844
    X6       29.73673   0.00346   0.00000   0.01516   0.01516  29.75189
    Y6       26.58145  -0.00667   0.00000  -0.03508  -0.03508  26.54637
    Z6       27.28217  -0.00310   0.00000  -0.01896  -0.01896  27.26321
    X7       33.78377   0.00241   0.00000   0.04074   0.04074  33.82450
    Y7       28.62482  -0.00252   0.00000  -0.01679  -0.01679  28.60803
    Z7       31.72888   0.00327   0.00000   0.03943   0.03943  31.76831
         Item               Value     Threshold  Converged?
 Maximum Force            0.006668     0.000450     NO 
 RMS     Force            0.003683     0.000300     NO 
 Maximum Displacement     0.061282     0.001800     NO 
 RMS     Displacement     0.034610     0.001200     NO 
 Predicted change in Energy=-1.242500D-03
 GradGradGradGradGradGradGradGradGradGradGradGradGradGradGradGradGradGrad

 Leave Link  103 at Wed Nov 29 00:40:59 2023, MaxMem=  1879048192 cpu:               0.2 elap:               0.0
 (Enter /home/sekinelabo/g16/l9999.exe)
 1\1\GINC-SEKINELABO-XA7R-R37\Force\UB3LYP\6-311+G(d)\Na7(2)\SEKINELABO
 \29-Nov-2023\0\\#P B3LYP/6-311+g(d) force\\DPGEN\\0,2\Na,17.3991,16.84
 8,14.028\Na,14.0658,16.5083,13.2068\Na,12.6107,14.3296,15.1034\Na,15.1
 151,16.7377,16.3062\Na,14.6212,13.788,17.5538\Na,15.736,14.0663,14.437
 1\Na,17.8776,15.1476,16.7902\\Version=ES64L-G16RevB.01\State=2-A\HF=-1
 136.1359493\S2=0.757643\S2-1=0.\S2A=0.75004\RMSD=6.135e-09\RMSF=3.683e
 -03\Dipole=0.039054,0.0037679,0.0265546\Quadrupole=4.9634717,-3.991226
 9,-0.9722448,3.1193759,1.5425123,-4.2936528\PG=C01 [X(Na7)]\\@


 ON A TOMBSTONE, "HERE LIES LESTER MOORE,
 FOUR SLUGS FROM A 44, NO LES, NO MORE".
 Job cpu time:       0 days  0 hours  3 minutes 52.8 seconds.
 Elapsed time:       0 days  0 hours  0 minutes 19.6 seconds.
 File lengths (MBytes):  RWF=     32 Int=      0 D2E=      0 Chk=      4 Scr=      1
 Normal termination of Gaussian 16 at Wed Nov 29 00:40:59 2023.
