 Set GAUSS_MDEF to "14GB".
 Entering Gaussian System, Link 0=g16
 Initial command:
 /home/sekinelabo/g16/l1.exe "/home/sekinelabo/g16temp/Gau-1299912.inp" -scrdir="/home/sekinelabo/g16temp/"
 Entering Link 1 = /home/sekinelabo/g16/l1.exe PID=   1299914.
  
 Copyright (c) 1988-2017, Gaussian, Inc.  All Rights Reserved.
  
 This is part of the Gaussian(R) 16 program.  It is based on
 the Gaussian(R) 09 system (copyright 2009, Gaussian, Inc.),
 the Gaussian(R) 03 system (copyright 2003, Gaussian, Inc.),
 the Gaussian(R) 98 system (copyright 1998, Gaussian, Inc.),
 the Gaussian(R) 94 system (copyright 1995, Gaussian, Inc.),
 the Gaussian 92(TM) system (copyright 1992, Gaussian, Inc.),
 the Gaussian 90(TM) system (copyright 1990, Gaussian, Inc.),
 the Gaussian 88(TM) system (copyright 1988, Gaussian, Inc.),
 the Gaussian 86(TM) system (copyright 1986, Carnegie Mellon
 University), and the Gaussian 82(TM) system (copyright 1983,
 Carnegie Mellon University). Gaussian is a federally registered
 trademark of Gaussian, Inc.
  
 This software contains proprietary and confidential information,
 including trade secrets, belonging to Gaussian, Inc.
  
 This software is provided under written license and may be
 used, copied, transmitted, or stored only in accord with that
 written license.
  
 The following legend is applicable only to US Government
 contracts under FAR:
  
                    RESTRICTED RIGHTS LEGEND
  
 Use, reproduction and disclosure by the US Government is
 subject to restrictions as set forth in subparagraphs (a)
 and (c) of the Commercial Computer Software - Restricted
 Rights clause in FAR 52.227-19.
  
 Gaussian, Inc.
 340 Quinnipiac St., Bldg. 40, Wallingford CT 06492
  
  
 ---------------------------------------------------------------
 Warning -- This program may not be used in any manner that
 competes with the business of Gaussian, Inc. or will provide
 assistance to any competitor of Gaussian, Inc.  The licensee
 of this program is prohibited from giving any competitor of
 Gaussian, Inc. access to this program.  By using this program,
 the user acknowledges that Gaussian, Inc. is engaged in the
 business of creating and licensing software in the field of
 computational chemistry and represents and warrants to the
 licensee that it is not a competitor of Gaussian, Inc. and that
 it will not use this program in any manner prohibited above.
 ---------------------------------------------------------------
  

 Cite this work as:
 Gaussian 16, Revision B.01,
 M. J. Frisch, G. W. Trucks, H. B. Schlegel, G. E. Scuseria, 
 M. A. Robb, J. R. Cheeseman, G. Scalmani, V. Barone, 
 G. A. Petersson, H. Nakatsuji, X. Li, M. Caricato, A. V. Marenich, 
 J. Bloino, B. G. Janesko, R. Gomperts, B. Mennucci, H. P. Hratchian, 
 J. V. Ortiz, A. F. Izmaylov, J. L. Sonnenberg, D. Williams-Young, 
 F. Ding, F. Lipparini, F. Egidi, J. Goings, B. Peng, A. Petrone, 
 T. Henderson, D. Ranasinghe, V. G. Zakrzewski, J. Gao, N. Rega, 
 G. Zheng, W. Liang, M. Hada, M. Ehara, K. Toyota, R. Fukuda, 
 J. Hasegawa, M. Ishida, T. Nakajima, Y. Honda, O. Kitao, H. Nakai, 
 T. Vreven, K. Throssell, J. A. Montgomery, Jr., J. E. Peralta, 
 F. Ogliaro, M. J. Bearpark, J. J. Heyd, E. N. Brothers, K. N. Kudin, 
 V. N. Staroverov, T. A. Keith, R. Kobayashi, J. Normand, 
 K. Raghavachari, A. P. Rendell, J. C. Burant, S. S. Iyengar, 
 J. Tomasi, M. Cossi, J. M. Millam, M. Klene, C. Adamo, R. Cammi, 
 J. W. Ochterski, R. L. Martin, K. Morokuma, O. Farkas, 
 J. B. Foresman, and D. J. Fox, Gaussian, Inc., Wallingford CT, 2016.
 
 ******************************************
 Gaussian 16:  ES64L-G16RevB.01 20-Dec-2017
                 4-Dec-2023 
 ******************************************
 %nproc=15
 Will use up to   15 processors via shared memory.
 -------------------------
 #P B3LYP/6-311+g(d) force
 -------------------------
 1/10=7,30=1,38=1/1,3;
 2/12=2,17=6,18=5,40=1/2;
 3/5=4,6=6,7=11,11=2,25=1,30=1,71=1,74=-5/1,2,3;
 4//1;
 5/5=2,38=5/2;
 6/7=2,8=2,9=2,10=2,28=1/1;
 7/29=1/1,2,3,16;
 1/10=7,30=1/3;
 99//99;
 Leave Link    1 at Mon Dec  4 03:21:13 2023, MaxMem=           0 cpu:               0.3 elap:               0.0
 (Enter /home/sekinelabo/g16/l101.exe)
 -----
 DPGEN
 -----
 Symbolic Z-matrix:
 Charge =  0 Multiplicity = 2
 Na                    10.6685   12.22     9.24357 
 Na                    14.3005   8.8337    12.8883 
 Na                    14.991    11.5764   13.9755 
 Na                    12.617    14.1175   16.211 
 Na                    11.0619   16.0617   14.2774 
 Na                    11.5647   9.37152   10.1715 
 Na                    11.8914   14.9141   10.3277 
 
 ITRead=  0  0  0  0  0  0  0
 MicOpt= -1 -1 -1 -1 -1 -1 -1
 NAtoms=      7 NQM=        7 NQMF=       0 NMMI=      0 NMMIF=      0
                NMic=       0 NMicF=      0.
                    Isotopes and Nuclear Properties:
 (Nuclear quadrupole moments (NQMom) in fm**2, nuclear magnetic moments (NMagM)
  in nuclear magnetons)

  Atom         1           2           3           4           5           6           7
 IAtWgt=          23          23          23          23          23          23          23
 AtmWgt=  22.9897697  22.9897697  22.9897697  22.9897697  22.9897697  22.9897697  22.9897697
 NucSpn=           3           3           3           3           3           3           3
 AtZEff=  -0.0000000  -0.0000000  -0.0000000  -0.0000000  -0.0000000  -0.0000000  -0.0000000
 NQMom=   10.4000000  10.4000000  10.4000000  10.4000000  10.4000000  10.4000000  10.4000000
 NMagM=    2.2175200   2.2175200   2.2175200   2.2175200   2.2175200   2.2175200   2.2175200
 AtZNuc=  11.0000000  11.0000000  11.0000000  11.0000000  11.0000000  11.0000000  11.0000000
 Leave Link  101 at Mon Dec  4 03:21:13 2023, MaxMem=  1879048192 cpu:               2.5 elap:               0.2
 (Enter /home/sekinelabo/g16/l103.exe)

 GradGradGradGradGradGradGradGradGradGradGradGradGradGradGradGradGradGrad
 Berny optimization.
 Initialization pass.
 Trust Radius=3.00D-01 FncErr=1.00D-07 GrdErr=1.00D-07 EigMax=2.50D+02 EigMin=1.00D-04
 Number of steps in this run=      2 maximum allowed number of steps=      2.
 GradGradGradGradGradGradGradGradGradGradGradGradGradGradGradGradGradGrad

 Leave Link  103 at Mon Dec  4 03:21:13 2023, MaxMem=  1879048192 cpu:               0.2 elap:               0.0
 (Enter /home/sekinelabo/g16/l202.exe)
                          Input orientation:                          
 ---------------------------------------------------------------------
 Center     Atomic      Atomic             Coordinates (Angstroms)
 Number     Number       Type             X           Y           Z
 ---------------------------------------------------------------------
      1         11           0       10.668500   12.220000    9.243570
      2         11           0       14.300500    8.833700   12.888300
      3         11           0       14.991000   11.576400   13.975500
      4         11           0       12.617000   14.117500   16.211000
      5         11           0       11.061900   16.061700   14.277400
      6         11           0       11.564700    9.371520   10.171500
      7         11           0       11.891400   14.914100   10.327700
 ---------------------------------------------------------------------
                    Distance matrix (angstroms):
                    1          2          3          4          5
     1  Na   0.000000
     2  Na   6.159749   0.000000
     3  Na   6.441226   3.030049   0.000000
     4  Na   7.479454   6.464754   4.134069   0.000000
     5  Na   6.344515   8.041276   5.970501   3.152310   0.000000
     6  Na   3.126990   3.892924   5.574176   7.752885   7.865731
     7  Na   3.151031   7.023653   5.835598   5.981161   4.195853
                    6          7
     6  Na   0.000000
     7  Na   5.554397   0.000000
 Stoichiometry    Na7(2)
 Framework group  C1[X(Na7)]
 Deg. of freedom    15
 Full point group                 C1      NOp   1
 Largest Abelian subgroup         C1      NOp   1
 Largest concise Abelian subgroup C1      NOp   1
                         Standard orientation:                         
 ---------------------------------------------------------------------
 Center     Atomic      Atomic             Coordinates (Angstroms)
 Number     Number       Type             X           Y           Z
 ---------------------------------------------------------------------
      1         11           0       -1.965291   -3.082910   -0.243497
      2         11           0       -2.746502    3.021552    0.016829
      3         11           0        0.052564    2.869211    1.167144
      4         11           0        3.573007    1.915371   -0.778927
      5         11           0        4.081554   -1.187413   -0.552717
      6         11           0       -3.753646   -0.614628   -0.941665
      7         11           0        0.758314   -2.921183    1.332833
 ---------------------------------------------------------------------
 Rotational constants (GHZ):           0.4794148           0.3633759           0.2281438
 Leave Link  202 at Mon Dec  4 03:21:13 2023, MaxMem=  1879048192 cpu:               0.0 elap:               0.0
 (Enter /home/sekinelabo/g16/l301.exe)
 Standard basis: 6-311+G(d) (5D, 7F)
 Ernie: Thresh=  0.10000D-02 Tol=  0.10000D-05 Strict=F.
 There are   217 symmetry adapted cartesian basis functions of A   symmetry.
 There are   210 symmetry adapted basis functions of A   symmetry.
   210 basis functions,   350 primitive gaussians,   217 cartesian basis functions
    39 alpha electrons       38 beta electrons
       nuclear repulsion energy       267.2268975606 Hartrees.
 IExCor=  402 DFT=T Ex+Corr=B3LYP ExCW=0 ScaHFX=  0.200000
 ScaDFX=  0.800000  0.720000  1.000000  0.810000 ScalE2=  1.000000  1.000000
 IRadAn=      5 IRanWt=     -1 IRanGd=            0 ICorTp=0 IEmpDi=  4
 NAtoms=    7 NActive=    7 NUniq=    7 SFac= 1.00D+00 NAtFMM=   60 NAOKFM=F Big=F
 Integral buffers will be    131072 words long.
 Raffenetti 2 integral format.
 Two-electron integral symmetry is turned on.
 Leave Link  301 at Mon Dec  4 03:21:13 2023, MaxMem=  1879048192 cpu:               0.5 elap:               0.0
 (Enter /home/sekinelabo/g16/l302.exe)
 NPDir=0 NMtPBC=     1 NCelOv=     1 NCel=       1 NClECP=     1 NCelD=      1
         NCelK=      1 NCelE2=     1 NClLst=     1 CellRange=     0.0.
 One-electron integrals computed using PRISM.
 One-electron integral symmetry used in STVInt
 NBasis=   210 RedAO= T EigKep=  1.18D-05  NBF=   210
 NBsUse=   210 1.00D-06 EigRej= -1.00D+00 NBFU=   210
 Precomputing XC quadrature grid using
 IXCGrd= 4 IRadAn=           5 IRanWt=          -1 IRanGd=           0 AccXCQ= 0.00D+00.
 Generated NRdTot=       0 NPtTot=           0 NUsed=           0 NTot=          32
 NSgBfM=   201   201   201   201   201 MxSgAt=     7 MxSgA2=     7.
 Leave Link  302 at Mon Dec  4 03:21:13 2023, MaxMem=  1879048192 cpu:               2.0 elap:               0.1
 (Enter /home/sekinelabo/g16/l303.exe)
 DipDrv:  MaxL=1.
 Leave Link  303 at Mon Dec  4 03:21:13 2023, MaxMem=  1879048192 cpu:               0.5 elap:               0.0
 (Enter /home/sekinelabo/g16/l401.exe)
 ExpMin= 7.60D-03 ExpMax= 3.62D+04 ExpMxC= 1.21D+03 IAcc=3 IRadAn=         5 AccDes= 0.00D+00
 Harris functional with IExCor=  402 and IRadAn=       5 diagonalized for initial guess.
 HarFok:  IExCor=  402 AccDes= 0.00D+00 IRadAn=         5 IDoV= 1 UseB2=F ITyADJ=14
 ICtDFT=  3500011 ScaDFX=  1.000000  1.000000  1.000000  1.000000
 FoFCou: FMM=F IPFlag=           0 FMFlag=      100000 FMFlg1=           0
         NFxFlg=           0 DoJE=T BraDBF=F KetDBF=T FulRan=T
         wScrn=  0.000000 ICntrl=       500 IOpCl=  0 I1Cent=   200000004 NGrid=           0
         NMat0=    1 NMatS0=      1 NMatT0=    0 NMatD0=    1 NMtDS0=    0 NMtDT0=    0
 Petite list used in FoFCou.
 Harris En= -1135.87772338413    
 JPrj=0 DoOrth=F DoCkMO=F.
 Initial guess <Sx>= 0.0000 <Sy>= 0.0000 <Sz>= 0.5000 <S**2>= 0.7500 S= 0.5000
 Leave Link  401 at Mon Dec  4 03:21:14 2023, MaxMem=  1879048192 cpu:               4.3 elap:               0.3
 (Enter /home/sekinelabo/g16/l502.exe)
 Keep R1 and R2 ints in memory in canonical form, NReq=506573279.
 FoFCou: FMM=F IPFlag=           0 FMFlag=           0 FMFlg1=           0
         NFxFlg=           0 DoJE=F BraDBF=F KetDBF=F FulRan=T
         wScrn=  0.000000 ICntrl=       600 IOpCl=  0 I1Cent=           0 NGrid=           0
         NMat0=    1 NMatS0=  22155 NMatT0=    0 NMatD0=    1 NMtDS0=    0 NMtDT0=    0
 Symmetry not used in FoFCou.
 Two-electron integral symmetry not used.
 UHF open shell SCF:
 Using DIIS extrapolation, IDIIS=  1040.
 NGot=  1879048192 LenX=  1388082621 LenY=  1388035091
 Requested convergence on RMS density matrix=1.00D-08 within 128 cycles.
 Requested convergence on MAX density matrix=1.00D-06.
 Requested convergence on             energy=1.00D-06.
 No special actions if energy rises.

 Cycle   1  Pass 1  IDiag  1:
 E= -1136.08257129480    
 DIIS: error= 1.25D-02 at cycle   1 NSaved=   1.
 NSaved= 1 IEnMin= 1 EnMin= -1136.08257129480     IErMin= 1 ErrMin= 1.25D-02
 ErrMax= 1.25D-02  0.00D+00 EMaxC= 1.00D-01 BMatC= 1.82D-01 BMatP= 1.82D-01
 IDIUse=3 WtCom= 8.75D-01 WtEn= 1.25D-01
 Coeff-Com:  0.100D+01
 Coeff-En:   0.100D+01
 Coeff:      0.100D+01
 Gap=     0.029 Goal=   None    Shift=    0.000
 Gap=     0.051 Goal=   None    Shift=    0.000
 GapD=    0.029 DampG=0.250 DampE=0.500 DampFc=0.2500 IDamp=-1.
 Damping current iteration by 2.50D-01
 RMSDP=3.64D-03 MaxDP=1.87D-01              OVMax= 1.40D-01

 Cycle   2  Pass 1  IDiag  1:
 E= -1136.09036482869     Delta-E=       -0.007793533894 Rises=F Damp=T
 DIIS: error= 8.77D-03 at cycle   2 NSaved=   2.
 NSaved= 2 IEnMin= 2 EnMin= -1136.09036482869     IErMin= 2 ErrMin= 8.77D-03
 ErrMax= 8.77D-03  0.00D+00 EMaxC= 1.00D-01 BMatC= 7.07D-02 BMatP= 1.82D-01
 IDIUse=3 WtCom= 9.12D-01 WtEn= 8.77D-02
 Coeff-Com: -0.131D+01 0.231D+01
 Coeff-En:   0.000D+00 0.100D+01
 Coeff:     -0.120D+01 0.220D+01
 Gap=     0.037 Goal=   None    Shift=    0.000
 Gap=     0.052 Goal=   None    Shift=    0.000
 RMSDP=3.34D-03 MaxDP=2.06D-01 DE=-7.79D-03 OVMax= 8.98D-02

 Cycle   3  Pass 1  IDiag  1:
 E= -1136.10612178048     Delta-E=       -0.015756951792 Rises=F Damp=F
 DIIS: error= 1.19D-03 at cycle   3 NSaved=   3.
 NSaved= 3 IEnMin= 3 EnMin= -1136.10612178048     IErMin= 3 ErrMin= 1.19D-03
 ErrMax= 1.19D-03  0.00D+00 EMaxC= 1.00D-01 BMatC= 3.67D-04 BMatP= 7.07D-02
 IDIUse=3 WtCom= 9.88D-01 WtEn= 1.19D-02
 Coeff-Com: -0.586D-02 0.235D-01 0.982D+00
 Coeff-En:   0.000D+00 0.000D+00 0.100D+01
 Coeff:     -0.579D-02 0.232D-01 0.983D+00
 Gap=     0.035 Goal=   None    Shift=    0.000
 Gap=     0.052 Goal=   None    Shift=    0.000
 RMSDP=9.04D-04 MaxDP=3.39D-02 DE=-1.58D-02 OVMax= 7.84D-02

 Cycle   4  Pass 1  IDiag  1:
 E= -1136.10532613168     Delta-E=        0.000795648804 Rises=F Damp=F
 DIIS: error= 2.11D-03 at cycle   4 NSaved=   4.
 NSaved= 4 IEnMin= 3 EnMin= -1136.10612178048     IErMin= 3 ErrMin= 1.19D-03
 ErrMax= 2.11D-03  0.00D+00 EMaxC= 1.00D-01 BMatC= 8.83D-04 BMatP= 3.67D-04
 IDIUse=3 WtCom= 1.79D-01 WtEn= 8.21D-01
 Coeff-Com:  0.188D-01-0.250D-01 0.619D+00 0.387D+00
 Coeff-En:   0.000D+00 0.000D+00 0.687D+00 0.313D+00
 Coeff:      0.337D-02-0.446D-02 0.675D+00 0.326D+00
 Gap=     0.036 Goal=   None    Shift=    0.000
 Gap=     0.051 Goal=   None    Shift=    0.000
 RMSDP=4.52D-04 MaxDP=2.16D-02 DE= 7.96D-04 OVMax= 4.27D-02

 Cycle   5  Pass 1  IDiag  1:
 E= -1136.10666427146     Delta-E=       -0.001338139777 Rises=F Damp=F
 DIIS: error= 2.64D-04 at cycle   5 NSaved=   5.
 NSaved= 5 IEnMin= 5 EnMin= -1136.10666427146     IErMin= 5 ErrMin= 2.64D-04
 ErrMax= 2.64D-04  0.00D+00 EMaxC= 1.00D-01 BMatC= 2.20D-05 BMatP= 3.67D-04
 IDIUse=3 WtCom= 9.97D-01 WtEn= 2.64D-03
 Coeff-Com: -0.582D-02 0.705D-02 0.178D+00 0.115D-01 0.810D+00
 Coeff-En:   0.000D+00 0.000D+00 0.000D+00 0.000D+00 0.100D+01
 Coeff:     -0.580D-02 0.703D-02 0.177D+00 0.114D-01 0.810D+00
 Gap=     0.036 Goal=   None    Shift=    0.000
 Gap=     0.051 Goal=   None    Shift=    0.000
 RMSDP=1.13D-04 MaxDP=6.13D-03 DE=-1.34D-03 OVMax= 8.79D-03

 Cycle   6  Pass 1  IDiag  1:
 E= -1136.10669532046     Delta-E=       -0.000031049000 Rises=F Damp=F
 DIIS: error= 7.59D-05 at cycle   6 NSaved=   6.
 NSaved= 6 IEnMin= 6 EnMin= -1136.10669532046     IErMin= 6 ErrMin= 7.59D-05
 ErrMax= 7.59D-05  0.00D+00 EMaxC= 1.00D-01 BMatC= 3.04D-06 BMatP= 2.20D-05
 IDIUse=1 WtCom= 1.00D+00 WtEn= 0.00D+00
 Coeff-Com: -0.771D-02 0.989D-02-0.678D-01-0.821D-01 0.337D+00 0.810D+00
 Coeff:     -0.771D-02 0.989D-02-0.678D-01-0.821D-01 0.337D+00 0.810D+00
 Gap=     0.036 Goal=   None    Shift=    0.000
 Gap=     0.051 Goal=   None    Shift=    0.000
 RMSDP=6.83D-05 MaxDP=3.31D-03 DE=-3.10D-05 OVMax= 5.11D-03

 Cycle   7  Pass 1  IDiag  1:
 E= -1136.10670345156     Delta-E=       -0.000008131105 Rises=F Damp=F
 DIIS: error= 5.74D-05 at cycle   7 NSaved=   7.
 NSaved= 7 IEnMin= 7 EnMin= -1136.10670345156     IErMin= 7 ErrMin= 5.74D-05
 ErrMax= 5.74D-05  0.00D+00 EMaxC= 1.00D-01 BMatC= 8.07D-07 BMatP= 3.04D-06
 IDIUse=1 WtCom= 1.00D+00 WtEn= 0.00D+00
 Coeff-Com: -0.209D-02 0.278D-02-0.744D-01-0.394D-01-0.424D-01 0.362D+00
 Coeff-Com:  0.793D+00
 Coeff:     -0.209D-02 0.278D-02-0.744D-01-0.394D-01-0.424D-01 0.362D+00
 Coeff:      0.793D+00
 Gap=     0.036 Goal=   None    Shift=    0.000
 Gap=     0.051 Goal=   None    Shift=    0.000
 RMSDP=4.53D-05 MaxDP=2.28D-03 DE=-8.13D-06 OVMax= 3.16D-03

 Cycle   8  Pass 1  IDiag  1:
 E= -1136.10670634610     Delta-E=       -0.000002894538 Rises=F Damp=F
 DIIS: error= 2.70D-05 at cycle   8 NSaved=   8.
 NSaved= 8 IEnMin= 8 EnMin= -1136.10670634610     IErMin= 8 ErrMin= 2.70D-05
 ErrMax= 2.70D-05  0.00D+00 EMaxC= 1.00D-01 BMatC= 2.74D-07 BMatP= 8.07D-07
 IDIUse=1 WtCom= 1.00D+00 WtEn= 0.00D+00
 Coeff-Com:  0.900D-03-0.111D-02-0.274D-01-0.431D-02-0.990D-01 0.177D-01
 Coeff-Com:  0.430D+00 0.683D+00
 Coeff:      0.900D-03-0.111D-02-0.274D-01-0.431D-02-0.990D-01 0.177D-01
 Coeff:      0.430D+00 0.683D+00
 Gap=     0.036 Goal=   None    Shift=    0.000
 Gap=     0.051 Goal=   None    Shift=    0.000
 RMSDP=2.34D-05 MaxDP=1.13D-03 DE=-2.89D-06 OVMax= 1.85D-03

 Cycle   9  Pass 1  IDiag  1:
 E= -1136.10670725217     Delta-E=       -0.000000906065 Rises=F Damp=F
 DIIS: error= 1.35D-05 at cycle   9 NSaved=   9.
 NSaved= 9 IEnMin= 9 EnMin= -1136.10670725217     IErMin= 9 ErrMin= 1.35D-05
 ErrMax= 1.35D-05  0.00D+00 EMaxC= 1.00D-01 BMatC= 4.26D-08 BMatP= 2.74D-07
 IDIUse=1 WtCom= 1.00D+00 WtEn= 0.00D+00
 Coeff-Com:  0.108D-02-0.140D-02 0.908D-02 0.844D-02-0.232D-01-0.837D-01
 Coeff-Com: -0.661D-01 0.191D+00 0.965D+00
 Coeff:      0.108D-02-0.140D-02 0.908D-02 0.844D-02-0.232D-01-0.837D-01
 Coeff:     -0.661D-01 0.191D+00 0.965D+00
 Gap=     0.036 Goal=   None    Shift=    0.000
 Gap=     0.051 Goal=   None    Shift=    0.000
 RMSDP=1.67D-05 MaxDP=7.36D-04 DE=-9.06D-07 OVMax= 1.42D-03

 Cycle  10  Pass 1  IDiag  1:
 E= -1136.10670757933     Delta-E=       -0.000000327160 Rises=F Damp=F
 DIIS: error= 6.25D-06 at cycle  10 NSaved=  10.
 NSaved=10 IEnMin=10 EnMin= -1136.10670757933     IErMin=10 ErrMin= 6.25D-06
 ErrMax= 6.25D-06  0.00D+00 EMaxC= 1.00D-01 BMatC= 1.01D-08 BMatP= 4.26D-08
 IDIUse=1 WtCom= 1.00D+00 WtEn= 0.00D+00
 Coeff-Com: -0.731D-03 0.953D-03 0.405D-02-0.953D-03 0.305D-01 0.218D-01
 Coeff-Com: -0.893D-01-0.235D+00-0.273D+00 0.154D+01
 Coeff:     -0.731D-03 0.953D-03 0.405D-02-0.953D-03 0.305D-01 0.218D-01
 Coeff:     -0.893D-01-0.235D+00-0.273D+00 0.154D+01
 Gap=     0.036 Goal=   None    Shift=    0.000
 Gap=     0.051 Goal=   None    Shift=    0.000
 RMSDP=1.38D-05 MaxDP=6.09D-04 DE=-3.27D-07 OVMax= 1.13D-03

 Cycle  11  Pass 1  IDiag  1:
 E= -1136.10670771281     Delta-E=       -0.000000133483 Rises=F Damp=F
 DIIS: error= 2.98D-06 at cycle  11 NSaved=  11.
 NSaved=11 IEnMin=11 EnMin= -1136.10670771281     IErMin=11 ErrMin= 2.98D-06
 ErrMax= 2.98D-06  0.00D+00 EMaxC= 1.00D-01 BMatC= 2.76D-09 BMatP= 1.01D-08
 IDIUse=1 WtCom= 1.00D+00 WtEn= 0.00D+00
 Coeff-Com: -0.531D-03 0.688D-03 0.114D-04-0.247D-02 0.190D-01 0.260D-01
 Coeff-Com: -0.283D-01-0.141D+00-0.301D+00 0.618D+00 0.809D+00
 Coeff:     -0.531D-03 0.688D-03 0.114D-04-0.247D-02 0.190D-01 0.260D-01
 Coeff:     -0.283D-01-0.141D+00-0.301D+00 0.618D+00 0.809D+00
 Gap=     0.036 Goal=   None    Shift=    0.000
 Gap=     0.051 Goal=   None    Shift=    0.000
 RMSDP=4.57D-06 MaxDP=2.03D-04 DE=-1.33D-07 OVMax= 4.16D-04

 Cycle  12  Pass 1  IDiag  1:
 E= -1136.10670772906     Delta-E=       -0.000000016248 Rises=F Damp=F
 DIIS: error= 9.30D-07 at cycle  12 NSaved=  12.
 NSaved=12 IEnMin=12 EnMin= -1136.10670772906     IErMin=12 ErrMin= 9.30D-07
 ErrMax= 9.30D-07  0.00D+00 EMaxC= 1.00D-01 BMatC= 2.80D-10 BMatP= 2.76D-09
 IDIUse=1 WtCom= 1.00D+00 WtEn= 0.00D+00
 Coeff-Com:  0.146D-03-0.193D-03-0.849D-03 0.110D-03-0.630D-02-0.296D-02
 Coeff-Com:  0.235D-01 0.399D-01 0.139D-01-0.255D+00 0.839D-02 0.118D+01
 Coeff:      0.146D-03-0.193D-03-0.849D-03 0.110D-03-0.630D-02-0.296D-02
 Coeff:      0.235D-01 0.399D-01 0.139D-01-0.255D+00 0.839D-02 0.118D+01
 Gap=     0.036 Goal=   None    Shift=    0.000
 Gap=     0.051 Goal=   None    Shift=    0.000
 RMSDP=1.84D-06 MaxDP=8.79D-05 DE=-1.62D-08 OVMax= 1.46D-04

 Cycle  13  Pass 1  IDiag  1:
 E= -1136.10670773149     Delta-E=       -0.000000002430 Rises=F Damp=F
 DIIS: error= 4.73D-07 at cycle  13 NSaved=  13.
 NSaved=13 IEnMin=13 EnMin= -1136.10670773149     IErMin=13 ErrMin= 4.73D-07
 ErrMax= 4.73D-07  0.00D+00 EMaxC= 1.00D-01 BMatC= 3.78D-11 BMatP= 2.80D-10
 IDIUse=1 WtCom= 1.00D+00 WtEn= 0.00D+00
 Coeff-Com:  0.687D-04-0.893D-04 0.283D-04 0.341D-03-0.237D-02-0.329D-02
 Coeff-Com:  0.417D-02 0.152D-01 0.323D-01-0.636D-01-0.948D-01-0.430D-02
 Coeff-Com:  0.112D+01
 Coeff:      0.687D-04-0.893D-04 0.283D-04 0.341D-03-0.237D-02-0.329D-02
 Coeff:      0.417D-02 0.152D-01 0.323D-01-0.636D-01-0.948D-01-0.430D-02
 Coeff:      0.112D+01
 Gap=     0.036 Goal=   None    Shift=    0.000
 Gap=     0.051 Goal=   None    Shift=    0.000
 RMSDP=4.42D-07 MaxDP=1.61D-05 DE=-2.43D-09 OVMax= 4.06D-05

 Cycle  14  Pass 1  IDiag  1:
 E= -1136.10670773176     Delta-E=       -0.000000000278 Rises=F Damp=F
 DIIS: error= 1.88D-07 at cycle  14 NSaved=  14.
 NSaved=14 IEnMin=14 EnMin= -1136.10670773176     IErMin=14 ErrMin= 1.88D-07
 ErrMax= 1.88D-07  0.00D+00 EMaxC= 1.00D-01 BMatC= 1.08D-11 BMatP= 3.78D-11
 IDIUse=1 WtCom= 1.00D+00 WtEn= 0.00D+00
 Coeff-Com: -0.106D-04 0.145D-04 0.182D-03 0.712D-04 0.552D-03-0.440D-03
 Coeff-Com: -0.309D-02-0.304D-02 0.653D-02 0.288D-01-0.207D-01-0.228D+00
 Coeff-Com:  0.286D+00 0.934D+00
 Coeff:     -0.106D-04 0.145D-04 0.182D-03 0.712D-04 0.552D-03-0.440D-03
 Coeff:     -0.309D-02-0.304D-02 0.653D-02 0.288D-01-0.207D-01-0.228D+00
 Coeff:      0.286D+00 0.934D+00
 Gap=     0.036 Goal=   None    Shift=    0.000
 Gap=     0.051 Goal=   None    Shift=    0.000
 RMSDP=1.85D-07 MaxDP=6.93D-06 DE=-2.78D-10 OVMax= 1.86D-05

 Cycle  15  Pass 1  IDiag  1:
 E= -1136.10670773183     Delta-E=       -0.000000000061 Rises=F Damp=F
 DIIS: error= 1.15D-07 at cycle  15 NSaved=  15.
 NSaved=15 IEnMin=15 EnMin= -1136.10670773183     IErMin=15 ErrMin= 1.15D-07
 ErrMax= 1.15D-07  0.00D+00 EMaxC= 1.00D-01 BMatC= 2.96D-12 BMatP= 1.08D-11
 IDIUse=1 WtCom= 1.00D+00 WtEn= 0.00D+00
 Coeff-Com: -0.250D-04 0.328D-04 0.380D-04-0.900D-04 0.875D-03 0.737D-03
 Coeff-Com: -0.182D-02-0.502D-02-0.783D-02 0.246D-01 0.227D-01-0.506D-01
 Coeff-Com: -0.250D+00 0.259D+00 0.101D+01
 Coeff:     -0.250D-04 0.328D-04 0.380D-04-0.900D-04 0.875D-03 0.737D-03
 Coeff:     -0.182D-02-0.502D-02-0.783D-02 0.246D-01 0.227D-01-0.506D-01
 Coeff:     -0.250D+00 0.259D+00 0.101D+01
 Gap=     0.036 Goal=   None    Shift=    0.000
 Gap=     0.051 Goal=   None    Shift=    0.000
 RMSDP=1.02D-07 MaxDP=3.59D-06 DE=-6.14D-11 OVMax= 1.14D-05

 Cycle  16  Pass 1  IDiag  1:
 E= -1136.10670773185     Delta-E=       -0.000000000025 Rises=F Damp=F
 DIIS: error= 3.87D-08 at cycle  16 NSaved=  16.
 NSaved=16 IEnMin=16 EnMin= -1136.10670773185     IErMin=16 ErrMin= 3.87D-08
 ErrMax= 3.87D-08  0.00D+00 EMaxC= 1.00D-01 BMatC= 5.55D-13 BMatP= 2.96D-12
 IDIUse=1 WtCom= 1.00D+00 WtEn= 0.00D+00
 Coeff-Com:  0.483D-05-0.649D-05-0.262D-04-0.353D-05-0.135D-03-0.104D-03
 Coeff-Com:  0.522D-03 0.111D-02 0.460D-03-0.798D-02-0.278D-03 0.469D-01
 Coeff-Com: -0.511D-01-0.182D+00 0.266D-01 0.117D+01
 Coeff:      0.483D-05-0.649D-05-0.262D-04-0.353D-05-0.135D-03-0.104D-03
 Coeff:      0.522D-03 0.111D-02 0.460D-03-0.798D-02-0.278D-03 0.469D-01
 Coeff:     -0.511D-01-0.182D+00 0.266D-01 0.117D+01
 Gap=     0.036 Goal=   None    Shift=    0.000
 Gap=     0.051 Goal=   None    Shift=    0.000
 RMSDP=5.94D-08 MaxDP=1.89D-06 DE=-2.46D-11 OVMax= 5.34D-06

 Cycle  17  Pass 1  IDiag  1:
 E= -1136.10670773185     Delta-E=        0.000000000005 Rises=F Damp=F
 DIIS: error= 2.06D-08 at cycle  17 NSaved=  17.
 NSaved=17 IEnMin=16 EnMin= -1136.10670773185     IErMin=17 ErrMin= 2.06D-08
 ErrMax= 2.06D-08  0.00D+00 EMaxC= 1.00D-01 BMatC= 1.48D-13 BMatP= 5.55D-13
 IDIUse=1 WtCom= 1.00D+00 WtEn= 0.00D+00
 Coeff-Com:  0.840D-05-0.111D-04-0.164D-04 0.254D-04-0.282D-03-0.224D-03
 Coeff-Com:  0.617D-03 0.165D-02 0.239D-02-0.907D-02-0.541D-02 0.239D-01
 Coeff-Com:  0.625D-01-0.120D+00-0.261D+00 0.207D+00 0.110D+01
 Coeff:      0.840D-05-0.111D-04-0.164D-04 0.254D-04-0.282D-03-0.224D-03
 Coeff:      0.617D-03 0.165D-02 0.239D-02-0.907D-02-0.541D-02 0.239D-01
 Coeff:      0.625D-01-0.120D+00-0.261D+00 0.207D+00 0.110D+01
 Gap=     0.036 Goal=   None    Shift=    0.000
 Gap=     0.051 Goal=   None    Shift=    0.000
 RMSDP=3.34D-08 MaxDP=1.24D-06 DE= 4.77D-12 OVMax= 2.91D-06

 Cycle  18  Pass 1  IDiag  1:
 E= -1136.10670773185     Delta-E=       -0.000000000003 Rises=F Damp=F
 DIIS: error= 8.49D-09 at cycle  18 NSaved=  18.
 NSaved=18 IEnMin=16 EnMin= -1136.10670773185     IErMin=18 ErrMin= 8.49D-09
 ErrMax= 8.49D-09  0.00D+00 EMaxC= 1.00D-01 BMatC= 2.33D-14 BMatP= 1.48D-13
 IDIUse=1 WtCom= 1.00D+00 WtEn= 0.00D+00
 Coeff-Com: -0.144D-05 0.192D-05 0.624D-05-0.289D-06 0.397D-04 0.227D-04
 Coeff-Com: -0.139D-03-0.241D-03-0.156D-03 0.191D-02 0.447D-03-0.113D-01
 Coeff-Com:  0.104D-01 0.461D-01-0.225D-01-0.232D+00-0.432D-01 0.125D+01
 Coeff:     -0.144D-05 0.192D-05 0.624D-05-0.289D-06 0.397D-04 0.227D-04
 Coeff:     -0.139D-03-0.241D-03-0.156D-03 0.191D-02 0.447D-03-0.113D-01
 Coeff:      0.104D-01 0.461D-01-0.225D-01-0.232D+00-0.432D-01 0.125D+01
 Gap=     0.036 Goal=   None    Shift=    0.000
 Gap=     0.051 Goal=   None    Shift=    0.000
 RMSDP=1.58D-08 MaxDP=5.56D-07 DE=-3.41D-12 OVMax= 1.39D-06

 Cycle  19  Pass 1  IDiag  1:
 E= -1136.10670773185     Delta-E=       -0.000000000001 Rises=F Damp=F
 DIIS: error= 3.05D-09 at cycle  19 NSaved=  19.
 NSaved=19 IEnMin=16 EnMin= -1136.10670773185     IErMin=19 ErrMin= 3.05D-09
 ErrMax= 3.05D-09  0.00D+00 EMaxC= 1.00D-01 BMatC= 3.48D-15 BMatP= 2.33D-14
 IDIUse=1 WtCom= 1.00D+00 WtEn= 0.00D+00
 Large coefficients: NSaved= 19 BigCof=    0.00 CofMax=   10.00 Det=-5.83D-15
 Inversion failed.  Reducing to 18 matrices.
 Large coefficients: NSaved= 18 BigCof=    0.00 CofMax=   10.00 Det=-6.28D-15
 Inversion failed.  Reducing to 17 matrices.
 Large coefficients: NSaved= 17 BigCof=    0.00 CofMax=   10.00 Det=-6.29D-15
 Inversion failed.  Reducing to 16 matrices.
 Large coefficients: NSaved= 16 BigCof=    0.00 CofMax=   10.00 Det=-6.96D-15
 Inversion failed.  Reducing to 15 matrices.
 Coeff-Com: -0.159D-05-0.150D-05-0.357D-05 0.242D-04 0.104D-03-0.787D-04
 Coeff-Com: -0.231D-03-0.326D-03-0.172D-02 0.821D-02 0.135D-01-0.229D-01
 Coeff-Com: -0.959D-01 0.305D-01 0.107D+01
 Coeff:     -0.159D-05-0.150D-05-0.357D-05 0.242D-04 0.104D-03-0.787D-04
 Coeff:     -0.231D-03-0.326D-03-0.172D-02 0.821D-02 0.135D-01-0.229D-01
 Coeff:     -0.959D-01 0.305D-01 0.107D+01
 Gap=     0.036 Goal=   None    Shift=    0.000
 Gap=     0.051 Goal=   None    Shift=    0.000
 RMSDP=4.84D-09 MaxDP=1.72D-07 DE=-1.14D-12 OVMax= 3.49D-07

 SCF Done:  E(UB3LYP) =  -1136.10670773     A.U. after   19 cycles
            NFock= 19  Conv=0.48D-08     -V/T= 2.0029
 <Sx>= 0.0000 <Sy>= 0.0000 <Sz>= 0.5000 <S**2>= 0.7765 S= 0.5132
 <L.S>= 0.000000000000E+00
 KE= 1.132869821180D+03 PE=-3.263395226138D+03 EE= 7.271917996657D+02
 Annihilation of the first spin contaminant:
 S**2 before annihilation     0.7765,   after     0.7505
 Leave Link  502 at Mon Dec  4 03:21:29 2023, MaxMem=  1879048192 cpu:             175.3 elap:              15.7
 (Enter /home/sekinelabo/g16/l601.exe)
 Copying SCF densities to generalized density rwf, IOpCl= 1 IROHF=0.

 **********************************************************************

            Population analysis using the SCF Density.

 **********************************************************************

 Orbital symmetries:
 Alpha Orbitals:
       Occupied  (A) (A) (A) (A) (A) (A) (A) (A) (A) (A) (A) (A)
                 (A) (A) (A) (A) (A) (A) (A) (A) (A) (A) (A) (A)
                 (A) (A) (A) (A) (A) (A) (A) (A) (A) (A) (A) (A)
                 (A) (A) (A)
       Virtual   (A) (A) (A) (A) (A) (A) (A) (A) (A) (A) (A) (A)
                 (A) (A) (A) (A) (A) (A) (A) (A) (A) (A) (A) (A)
                 (A) (A) (A) (A) (A) (A) (A) (A) (A) (A) (A) (A)
                 (A) (A) (A) (A) (A) (A) (A) (A) (A) (A) (A) (A)
                 (A) (A) (A) (A) (A) (A) (A) (A) (A) (A) (A) (A)
                 (A) (A) (A) (A) (A) (A) (A) (A) (A) (A) (A) (A)
                 (A) (A) (A) (A) (A) (A) (A) (A) (A) (A) (A) (A)
                 (A) (A) (A) (A) (A) (A) (A) (A) (A) (A) (A) (A)
                 (A) (A) (A) (A) (A) (A) (A) (A) (A) (A) (A) (A)
                 (A) (A) (A) (A) (A) (A) (A) (A) (A) (A) (A) (A)
                 (A) (A) (A) (A) (A) (A) (A) (A) (A) (A) (A) (A)
                 (A) (A) (A) (A) (A) (A) (A) (A) (A) (A) (A) (A)
                 (A) (A) (A) (A) (A) (A) (A) (A) (A) (A) (A) (A)
                 (A) (A) (A) (A) (A) (A) (A) (A) (A) (A) (A) (A)
                 (A) (A) (A)
 Beta  Orbitals:
       Occupied  (A) (A) (A) (A) (A) (A) (A) (A) (A) (A) (A) (A)
                 (A) (A) (A) (A) (A) (A) (A) (A) (A) (A) (A) (A)
                 (A) (A) (A) (A) (A) (A) (A) (A) (A) (A) (A) (A)
                 (A) (A)
       Virtual   (A) (A) (A) (A) (A) (A) (A) (A) (A) (A) (A) (A)
                 (A) (A) (A) (A) (A) (A) (A) (A) (A) (A) (A) (A)
                 (A) (A) (A) (A) (A) (A) (A) (A) (A) (A) (A) (A)
                 (A) (A) (A) (A) (A) (A) (A) (A) (A) (A) (A) (A)
                 (A) (A) (A) (A) (A) (A) (A) (A) (A) (A) (A) (A)
                 (A) (A) (A) (A) (A) (A) (A) (A) (A) (A) (A) (A)
                 (A) (A) (A) (A) (A) (A) (A) (A) (A) (A) (A) (A)
                 (A) (A) (A) (A) (A) (A) (A) (A) (A) (A) (A) (A)
                 (A) (A) (A) (A) (A) (A) (A) (A) (A) (A) (A) (A)
                 (A) (A) (A) (A) (A) (A) (A) (A) (A) (A) (A) (A)
                 (A) (A) (A) (A) (A) (A) (A) (A) (A) (A) (A) (A)
                 (A) (A) (A) (A) (A) (A) (A) (A) (A) (A) (A) (A)
                 (A) (A) (A) (A) (A) (A) (A) (A) (A) (A) (A) (A)
                 (A) (A) (A) (A) (A) (A) (A) (A) (A) (A) (A) (A)
                 (A) (A) (A) (A)
 The electronic state is 2-A.
 Alpha  occ. eigenvalues --  -38.45019 -38.44688 -38.44579 -38.44413 -38.44254
 Alpha  occ. eigenvalues --  -38.44236 -38.43873  -2.20794  -2.20479  -2.20383
 Alpha  occ. eigenvalues --   -2.20213  -2.20077  -2.20049  -2.19708  -1.14479
 Alpha  occ. eigenvalues --   -1.14460  -1.14439  -1.14136  -1.14123  -1.14116
 Alpha  occ. eigenvalues --   -1.14113  -1.14034  -1.14020  -1.13870  -1.13855
 Alpha  occ. eigenvalues --   -1.13835  -1.13761  -1.13719  -1.13718  -1.13690
 Alpha  occ. eigenvalues --   -1.13688  -1.13672  -1.13369  -1.13367  -1.13362
 Alpha  occ. eigenvalues --   -0.15638  -0.13840  -0.13426  -0.10910
 Alpha virt. eigenvalues --   -0.07277  -0.04778  -0.04653  -0.03726  -0.03442
 Alpha virt. eigenvalues --   -0.02099  -0.01879  -0.01689  -0.01349  -0.01202
 Alpha virt. eigenvalues --   -0.00762  -0.00126   0.00008   0.00407   0.00756
 Alpha virt. eigenvalues --    0.00892   0.00947   0.00957   0.01167   0.01302
 Alpha virt. eigenvalues --    0.01431   0.01495   0.01537   0.01566   0.01736
 Alpha virt. eigenvalues --    0.01860   0.01979   0.02053   0.02171   0.02300
 Alpha virt. eigenvalues --    0.02485   0.02509   0.02656   0.02755   0.02815
 Alpha virt. eigenvalues --    0.03107   0.03139   0.03216   0.03282   0.03364
 Alpha virt. eigenvalues --    0.03562   0.03608   0.03723   0.04046   0.04160
 Alpha virt. eigenvalues --    0.04599   0.04774   0.05009   0.05585   0.05676
 Alpha virt. eigenvalues --    0.05843   0.06570   0.06890   0.07033   0.07129
 Alpha virt. eigenvalues --    0.07397   0.07583   0.07596   0.07685   0.07791
 Alpha virt. eigenvalues --    0.08189   0.08443   0.08880   0.09081   0.09566
 Alpha virt. eigenvalues --    0.09670   0.09673   0.10732   0.11065   0.11671
 Alpha virt. eigenvalues --    0.11953   0.12443   0.12822   0.13255   0.13484
 Alpha virt. eigenvalues --    0.13842   0.14918   0.15600   0.16277   0.17277
 Alpha virt. eigenvalues --    0.27726   0.28458   0.28475   0.28878   0.29364
 Alpha virt. eigenvalues --    0.30534   0.31210   0.31456   0.31663   0.31906
 Alpha virt. eigenvalues --    0.32149   0.33369   0.33717   0.34225   0.34928
 Alpha virt. eigenvalues --    0.35207   0.36023   0.36539   0.37412   0.38155
 Alpha virt. eigenvalues --    0.39635   0.40468   0.40823   0.42496   0.42914
 Alpha virt. eigenvalues --    0.43172   0.43583   0.43720   0.43781   0.44218
 Alpha virt. eigenvalues --    0.44345   0.44619   0.44879   0.45077   0.45234
 Alpha virt. eigenvalues --    0.45584   0.46418   0.46575   0.47072   0.47574
 Alpha virt. eigenvalues --    0.47757   0.48181   0.48948   0.49434   0.50166
 Alpha virt. eigenvalues --    0.50731   0.50953   0.51322   0.51740   0.52475
 Alpha virt. eigenvalues --    0.52921   0.54810   0.65028   0.66973   0.69848
 Alpha virt. eigenvalues --    0.71347   2.03503   2.06124   2.07464   2.10704
 Alpha virt. eigenvalues --    2.13852   2.15344   2.18975   4.40634   4.41426
 Alpha virt. eigenvalues --    4.41603   4.42459   4.43440   4.43840   4.44217
 Alpha virt. eigenvalues --    4.44687   4.45102   4.45576   4.45778   4.46160
 Alpha virt. eigenvalues --    4.46437   4.47450   4.47797   4.48455   4.50713
 Alpha virt. eigenvalues --    4.55936   4.59415   4.64076   4.64797  96.22952
 Alpha virt. eigenvalues --   96.26208  96.27857  96.32275  96.36160  96.37958
 Alpha virt. eigenvalues --   96.42361
  Beta  occ. eigenvalues --  -38.45011 -38.44661 -38.44546 -38.44415 -38.44170
  Beta  occ. eigenvalues --  -38.44157 -38.43875  -2.20783  -2.20431  -2.20322
  Beta  occ. eigenvalues --   -2.20220  -2.19920  -2.19902  -2.19719  -1.14464
  Beta  occ. eigenvalues --   -1.14455  -1.14420  -1.14104  -1.14093  -1.14081
  Beta  occ. eigenvalues --   -1.14072  -1.13993  -1.13978  -1.13878  -1.13860
  Beta  occ. eigenvalues --   -1.13812  -1.13663  -1.13628  -1.13612  -1.13587
  Beta  occ. eigenvalues --   -1.13584  -1.13572  -1.13382  -1.13379  -1.13306
  Beta  occ. eigenvalues --   -0.15083  -0.13184  -0.12833
  Beta virt. eigenvalues --   -0.07698  -0.07298  -0.04355  -0.04146  -0.03535
  Beta virt. eigenvalues --   -0.03062  -0.01952  -0.01753  -0.01512  -0.01116
  Beta virt. eigenvalues --   -0.00862  -0.00518   0.00108   0.00248   0.00415
  Beta virt. eigenvalues --    0.00844   0.00953   0.00975   0.01057   0.01242
  Beta virt. eigenvalues --    0.01371   0.01521   0.01579   0.01620   0.01663
  Beta virt. eigenvalues --    0.01832   0.01914   0.02035   0.02166   0.02223
  Beta virt. eigenvalues --    0.02455   0.02566   0.02656   0.02705   0.02798
  Beta virt. eigenvalues --    0.02862   0.03160   0.03180   0.03287   0.03414
  Beta virt. eigenvalues --    0.03471   0.03630   0.03702   0.03770   0.04072
  Beta virt. eigenvalues --    0.04259   0.04678   0.04862   0.05107   0.05660
  Beta virt. eigenvalues --    0.05758   0.05930   0.06625   0.06968   0.07090
  Beta virt. eigenvalues --    0.07251   0.07502   0.07666   0.07732   0.07772
  Beta virt. eigenvalues --    0.07854   0.08424   0.08673   0.08936   0.09389
  Beta virt. eigenvalues --    0.09639   0.09789   0.09906   0.10893   0.11208
  Beta virt. eigenvalues --    0.11800   0.12114   0.12566   0.13046   0.13362
  Beta virt. eigenvalues --    0.13669   0.14027   0.14998   0.15734   0.16472
  Beta virt. eigenvalues --    0.17534   0.28105   0.28730   0.28936   0.29273
  Beta virt. eigenvalues --    0.29569   0.30869   0.31443   0.31678   0.31850
  Beta virt. eigenvalues --    0.32193   0.32386   0.33624   0.34090   0.34445
  Beta virt. eigenvalues --    0.35140   0.35502   0.36590   0.37038   0.37967
  Beta virt. eigenvalues --    0.38317   0.39897   0.40679   0.40939   0.42597
  Beta virt. eigenvalues --    0.43055   0.43265   0.43709   0.43759   0.43900
  Beta virt. eigenvalues --    0.44282   0.44356   0.44677   0.44924   0.45318
  Beta virt. eigenvalues --    0.45429   0.45711   0.46461   0.46751   0.47171
  Beta virt. eigenvalues --    0.47621   0.47874   0.48272   0.49103   0.49614
  Beta virt. eigenvalues --    0.50271   0.50811   0.51161   0.51545   0.51929
  Beta virt. eigenvalues --    0.52654   0.53121   0.55128   0.65282   0.67055
  Beta virt. eigenvalues --    0.69997   0.71433   2.03608   2.06254   2.07564
  Beta virt. eigenvalues --    2.11054   2.13891   2.15416   2.19073   4.40681
  Beta virt. eigenvalues --    4.41469   4.41698   4.42507   4.43469   4.43866
  Beta virt. eigenvalues --    4.44250   4.44723   4.45162   4.45619   4.45862
  Beta virt. eigenvalues --    4.46184   4.46471   4.47522   4.47847   4.48530
  Beta virt. eigenvalues --    4.50770   4.55995   4.59454   4.64120   4.64871
  Beta virt. eigenvalues --   96.22989  96.26251  96.27892  96.32387  96.36180
  Beta virt. eigenvalues --   96.37985  96.42397
          Condensed to atoms (all electrons):
               1          2          3          4          5          6
     1  Na  11.028678   0.032161  -0.163844  -0.102772  -0.160810  -0.148764
     2  Na   0.032161  10.849283   0.251773  -0.175127  -0.063433  -0.106858
     3  Na  -0.163844   0.251773  11.621004  -0.005214   0.031973   0.064807
     4  Na  -0.102772  -0.175127  -0.005214  10.713963   0.343139   0.066765
     5  Na  -0.160810  -0.063433   0.031973   0.343139  10.748447  -0.041476
     6  Na  -0.148764  -0.106858   0.064807   0.066765  -0.041476  11.320974
     7  Na   0.460679  -0.094533  -0.313329  -0.056152   0.087507  -0.313299
               7
     1  Na   0.460679
     2  Na  -0.094533
     3  Na  -0.313329
     4  Na  -0.056152
     5  Na   0.087507
     6  Na  -0.313299
     7  Na  11.531264
          Atomic-Atomic Spin Densities.
               1          2          3          4          5          6
     1  Na   0.006035   0.131899   0.018714  -0.060941  -0.003922  -0.194933
     2  Na   0.131899   0.141777  -0.002812  -0.096729  -0.012429  -0.241142
     3  Na   0.018714  -0.002812   0.261128  -0.048883   0.000549   0.001827
     4  Na  -0.060941  -0.096729  -0.048883   0.187946   0.054097   0.090606
     5  Na  -0.003922  -0.012429   0.000549   0.054097  -0.024060   0.006563
     6  Na  -0.194933  -0.241142   0.001827   0.090606   0.006563   0.871225
     7  Na   0.059369   0.035695  -0.058220  -0.018017  -0.002085  -0.126999
               7
     1  Na   0.059369
     2  Na   0.035695
     3  Na  -0.058220
     4  Na  -0.018017
     5  Na  -0.002085
     6  Na  -0.126999
     7  Na   0.491534
 Mulliken charges and spin densities:
               1          2
     1  Na   0.054672  -0.043779
     2  Na   0.306734  -0.043740
     3  Na  -0.487170   0.172302
     4  Na   0.215398   0.108079
     5  Na   0.054653   0.018713
     6  Na   0.157850   0.407147
     7  Na  -0.302137   0.381278
 Sum of Mulliken charges =  -0.00000   1.00000
 Mulliken charges and spin densities with hydrogens summed into heavy atoms:
               1          2
     1  Na   0.054672  -0.043779
     2  Na   0.306734  -0.043740
     3  Na  -0.487170   0.172302
     4  Na   0.215398   0.108079
     5  Na   0.054653   0.018713
     6  Na   0.157850   0.407147
     7  Na  -0.302137   0.381278
 Electronic spatial extent (au):  <R**2>=           4131.3234
 Charge=             -0.0000 electrons
 Dipole moment (field-independent basis, Debye):
    X=              0.8074    Y=              0.6126    Z=             -0.1393  Tot=              1.0231
 Quadrupole moment (field-independent basis, Debye-Ang):
   XX=            -63.7638   YY=            -66.6091   ZZ=            -71.4340
   XY=             -4.4265   XZ=              1.7808   YZ=             -0.6054
 Traceless Quadrupole moment (field-independent basis, Debye-Ang):
   XX=              3.5052   YY=              0.6599   ZZ=             -4.1651
   XY=             -4.4265   XZ=              1.7808   YZ=             -0.6054
 Octapole moment (field-independent basis, Debye-Ang**2):
  XXX=             -8.4434  YYY=              7.4736  ZZZ=              4.2304  XYY=             16.9335
  XXY=              7.5410  XXZ=            -11.5375  XZZ=              5.6593  YZZ=              2.0526
  YYZ=            -12.1121  XYZ=              3.7572
 Hexadecapole moment (field-independent basis, Debye-Ang**3):
 XXXX=          -3637.9479 YYYY=          -2850.8847 ZZZZ=           -589.6833 XXXY=           -221.7796
 XXXZ=             -7.2869 YYYX=             30.0761 YYYZ=             -4.9482 ZZZX=             12.6337
 ZZZY=             -4.0339 XXYY=           -884.0305 XXZZ=           -735.1562 YYZZ=           -555.3730
 XXYZ=            -15.6507 YYXZ=              7.2796 ZZXY=             -4.2832
 N-N= 2.672268975606D+02 E-N=-3.263395225842D+03  KE= 1.132869821180D+03
                          Isotropic Fermi Contact Couplings
        Atom                 a.u.       MegaHertz       Gauss      10(-4) cm-1
     1  Na(23)            -0.09663    -114.31699     -40.79114     -38.13204
     2  Na(23)            -0.04368     -51.66952     -18.43697     -17.23510
     3  Na(23)             0.14173     167.67450      59.83043      55.93019
     4  Na(23)             0.10432     123.41414      44.03723      41.16653
     5  Na(23)             0.00205       2.42890       0.86669       0.81019
     6  Na(23)             0.36824     435.64187     155.44785     145.31449
     7  Na(23)             0.34713     410.65883     146.53328     136.98104
 --------------------------------------------------------
       Center         ----  Spin Dipole Couplings  ----
                      3XX-RR        3YY-RR        3ZZ-RR
 --------------------------------------------------------
     1   Atom        0.032986     -0.016902     -0.016084
     2   Atom        0.009517     -0.003538     -0.005979
     3   Atom        0.001677      0.000665     -0.002342
     4   Atom        0.002218      0.002106     -0.004323
     5   Atom       -0.006218      0.014458     -0.008240
     6   Atom       -0.000504     -0.001404      0.001908
     7   Atom       -0.004940      0.004287      0.000653
 --------------------------------------------------------
                        XY            XZ            YZ
 --------------------------------------------------------
     1   Atom       -0.033218      0.035674     -0.017341
     2   Atom        0.014124      0.013997      0.008469
     3   Atom       -0.003258     -0.001531     -0.000293
     4   Atom       -0.008257     -0.002197      0.003820
     5   Atom        0.012440     -0.004964     -0.011062
     6   Atom        0.003988     -0.001306      0.002001
     7   Atom        0.000171     -0.003101      0.000809
 --------------------------------------------------------


 ---------------------------------------------------------------------------------
              Anisotropic Spin Dipole Couplings in Principal Axis System
 ---------------------------------------------------------------------------------

       Atom             a.u.   MegaHertz   Gauss  10(-4) cm-1        Axes

              Baa    -0.0349    -4.922    -1.756    -1.642 -0.4893 -0.0654  0.8696
     1 Na(23) Bbb    -0.0334    -4.715    -1.682    -1.573  0.3225  0.9129  0.2501
              Bcc     0.0682     9.636     3.438     3.214  0.8103 -0.4028  0.4256
 
              Baa    -0.0142    -2.010    -0.717    -0.671 -0.4822 -0.0556  0.8743
     2 Na(23) Bbb    -0.0125    -1.764    -0.629    -0.588 -0.4427  0.8766 -0.1884
              Bcc     0.0267     3.774     1.347     1.259  0.7560  0.4780  0.4473
 
              Baa    -0.0035    -0.498    -0.178    -0.166  0.4952  0.4376  0.7505
     3 Na(23) Bbb    -0.0011    -0.153    -0.055    -0.051  0.4058  0.6473 -0.6452
              Bcc     0.0046     0.651     0.232     0.217  0.7682 -0.6240 -0.1430
 
              Baa    -0.0069    -0.981    -0.350    -0.327  0.4608  0.6672 -0.5853
     4 Na(23) Bbb    -0.0046    -0.652    -0.232    -0.217  0.5785  0.2743  0.7682
              Bcc     0.0116     1.633     0.583     0.545 -0.6730  0.6926  0.2596
 
              Baa    -0.0127    -1.800    -0.642    -0.601 -0.1012  0.4141  0.9046
     5 Na(23) Bbb    -0.0120    -1.695    -0.605    -0.565  0.9122 -0.3242  0.2505
              Bcc     0.0247     3.495     1.247     1.166  0.3970  0.8506 -0.3449
 
              Baa    -0.0057    -0.805    -0.287    -0.269 -0.6271  0.7201 -0.2969
     6 Na(23) Bbb     0.0024     0.346     0.123     0.115 -0.5415 -0.1290  0.8307
              Bcc     0.0033     0.459     0.164     0.153  0.5599  0.6817  0.4709
 
              Baa    -0.0063    -0.896    -0.320    -0.299  0.9113 -0.0458  0.4093
     7 Na(23) Bbb     0.0019     0.261     0.093     0.087 -0.4063 -0.2619  0.8754
              Bcc     0.0045     0.634     0.226     0.212 -0.0671  0.9640  0.2573
 

 ---------------------------------------------------------------------------------

 No NMR shielding tensors so no spin-rotation constants.
 Leave Link  601 at Mon Dec  4 03:21:30 2023, MaxMem=  1879048192 cpu:               2.3 elap:               0.2
 (Enter /home/sekinelabo/g16/l701.exe)
 ... and contract with generalized density number  0.
 Compute integral first derivatives.
 Leave Link  701 at Mon Dec  4 03:21:30 2023, MaxMem=  1879048192 cpu:               1.6 elap:               0.1
 (Enter /home/sekinelabo/g16/l702.exe)
 L702 exits ... SP integral derivatives will be done elsewhere.
 Leave Link  702 at Mon Dec  4 03:21:30 2023, MaxMem=  1879048192 cpu:               0.4 elap:               0.0
 (Enter /home/sekinelabo/g16/l703.exe)
 Integral derivatives from FoFJK, PRISM(SPDF).
 Compute integral first derivatives, UseDBF=F ICtDFT=           0.
 Calling FoFJK, ICntrl=      2127 FMM=F ISym2X=0 I1Cent= 0 IOpClX= 1 NMat=1 NMatS=1 NMatT=0.
 FoFJK:  IHMeth= 1 ICntrl=    2127 DoSepK=F KAlg= 0 I1Cent=           0 FoldK=F
 IRaf=         0 NMat=       1 IRICut=       1 DoRegI=T DoRafI=F ISym2E= 0 IDoP0=0 IntGTp=1.
 FoFCou: FMM=F IPFlag=           0 FMFlag=      100000 FMFlg1=         800
         NFxFlg=           0 DoJE=F BraDBF=F KetDBF=F FulRan=T
         wScrn=  0.000000 ICntrl=      2127 IOpCl=  1 I1Cent=           0 NGrid=           0
         NMat0=    1 NMatS0=      1 NMatT0=    0 NMatD0=    1 NMtDS0=    0 NMtDT0=    0
 Symmetry not used in FoFCou.
 Leave Link  703 at Mon Dec  4 03:21:32 2023, MaxMem=  1879048192 cpu:              28.4 elap:               1.9
 (Enter /home/sekinelabo/g16/l716.exe)
 Dipole        = 3.17671825D-01 2.41033035D-01-5.48117325D-02
 ***** Axes restored to original set *****
 -------------------------------------------------------------------
 Center     Atomic                   Forces (Hartrees/Bohr)
 Number     Number              X              Y              Z
 -------------------------------------------------------------------
      1       11          -0.001449658    0.000857831   -0.001190613
      2       11          -0.001364148   -0.001730774   -0.001517260
      3       11          -0.000687649    0.002900623    0.000912803
      4       11           0.000342597   -0.000420785   -0.000760112
      5       11           0.000843236   -0.001188122   -0.001380135
      6       11           0.001817330   -0.002040346    0.001811370
      7       11           0.000498292    0.001621573    0.002123947
 -------------------------------------------------------------------
 Cartesian Forces:  Max     0.002900623 RMS     0.001450263
 Z-matrix is all fixed cartesians, so copy forces.
 Force constants in Cartesian coordinates: 
                1             2             3             4             5 
      1  0.218922D-01
      2  0.279283D-02  0.482720D-01
      3  0.203321D-01  0.142063D-02  0.198839D-01
      4  0.541087D-03  0.246560D-03  0.234285D-03  0.173417D-01
      5  0.370904D-02  0.234893D-02  0.362834D-02  0.390698D-03  0.444857D-01
      6  0.189373D-03  0.216712D-03  0.482345D-03  0.812434D-02  0.647806D-02
      7 -0.419698D-04  0.000000D+00  0.423825D-04 -0.152900D-01 -0.531417D-03
      8 -0.573663D-05  0.000000D+00  0.579304D-05 -0.821075D-02 -0.325915D-01
      9  0.411277D-04  0.000000D+00 -0.415321D-04 -0.320221D-02 -0.599690D-02
     10  0.000000D+00  0.000000D+00  0.000000D+00  0.375248D-02 -0.266534D-03
     11  0.000000D+00  0.000000D+00  0.000000D+00  0.338380D-02 -0.203749D-03
     12  0.000000D+00  0.000000D+00  0.000000D+00  0.138583D-03 -0.514445D-04
     13  0.000000D+00  0.000000D+00  0.000000D+00  0.234785D-04 -0.287476D-04
     14  0.000000D+00  0.000000D+00  0.000000D+00  0.204537D-04 -0.250440D-04
     15  0.000000D+00  0.000000D+00  0.000000D+00  0.168326D-05 -0.206103D-05
     16 -0.122846D-01  0.631226D-02 -0.114810D-01 -0.633228D-02 -0.327356D-02
     17 -0.139707D-02 -0.286538D-01 -0.825748D-03  0.416817D-02 -0.140143D-01
     18 -0.113182D-01  0.662135D-02 -0.115946D-01 -0.533514D-02 -0.405545D-02
     19 -0.101067D-01 -0.935225D-02 -0.912780D-02 -0.364407D-04  0.000000D+00
     20 -0.509906D-02 -0.219672D-01 -0.422901D-02  0.106405D-05  0.000000D+00
     21 -0.924435D-02 -0.825810D-02 -0.873010D-02  0.384610D-04  0.000000D+00
                6             7             8             9            10 
      6  0.137694D-01
      7 -0.893085D-03  0.248920D-01
      8 -0.849657D-02  0.603277D-02  0.360288D-01
      9 -0.842263D-02  0.108951D-03  0.965397D-02  0.145838D-01
     10 -0.171088D-02 -0.872492D-02  0.997923D-03  0.533867D-02  0.127595D-01
     11 -0.163511D-02 -0.233878D-02 -0.488229D-02 -0.190280D-02 -0.102511D-01
     12  0.417635D-04  0.940402D-04  0.318056D-03 -0.918626D-02  0.425130D-02
     13  0.576105D-04 -0.776106D-03  0.107616D-02 -0.204747D-02 -0.780006D-02
     14  0.501885D-04  0.730959D-03 -0.979990D-03  0.189020D-02  0.951792D-02
     15  0.413033D-05  0.135915D-02 -0.185087D-02  0.354724D-02 -0.786640D-02
     16 -0.580416D-02 -0.590345D-04  0.109631D-03 -0.239075D-03  0.129553D-04
     17  0.338779D-02 -0.389414D-02  0.242481D-02 -0.364389D-02  0.177080D-05
     18 -0.583612D-02 -0.711439D-03  0.369620D-03 -0.480601D-03 -0.126954D-04
     19  0.367991D-04  0.000000D+00  0.000000D+00  0.000000D+00  0.000000D+00
     20 -0.107451D-05  0.000000D+00  0.000000D+00  0.000000D+00  0.000000D+00
     21 -0.388392D-04  0.000000D+00  0.000000D+00  0.000000D+00  0.000000D+00
               11            12            13            14            15 
     11  0.166627D-01
     12 -0.706500D-02  0.281931D-01
     13  0.922191D-02 -0.451571D-02  0.855269D-02
     14 -0.115745D-01  0.679404D-02 -0.102693D-01  0.125796D-01
     15  0.105874D-01 -0.190174D-01  0.650557D-02 -0.873443D-02  0.154660D-01
     16 -0.158628D-04  0.317893D-04  0.000000D+00  0.000000D+00  0.000000D+00
     17 -0.216821D-05  0.434512D-05  0.000000D+00  0.000000D+00  0.000000D+00
     18  0.155445D-04 -0.311514D-04  0.000000D+00  0.000000D+00  0.000000D+00
     19  0.000000D+00  0.000000D+00  0.000000D+00  0.000000D+00  0.000000D+00
     20  0.000000D+00  0.000000D+00  0.000000D+00  0.000000D+00  0.000000D+00
     21  0.000000D+00  0.000000D+00  0.000000D+00  0.000000D+00  0.000000D+00
               16            17            18            19            20 
     16  0.156683D-01
     17 -0.673607D-03  0.417627D-01
     18  0.147601D-01 -0.668315D-03  0.152223D-01
     19  0.299470D-02  0.179487D-02  0.261745D-02  0.714846D-02
     20 -0.245886D-02 -0.151726D-02 -0.228276D-02  0.755686D-02  0.234845D-01
     21  0.273234D-02  0.174581D-02  0.272024D-02  0.647355D-02  0.651284D-02
               21 
     21  0.604870D-02
 Leave Link  716 at Mon Dec  4 03:21:32 2023, MaxMem=  1879048192 cpu:               0.4 elap:               0.0
 (Enter /home/sekinelabo/g16/l103.exe)

 GradGradGradGradGradGradGradGradGradGradGradGradGradGradGradGradGradGrad
 Berny optimization.
 Search for a local minimum.
 Step number   1 out of a maximum of    2
 All quantities printed in internal units (Hartrees-Bohrs-Radians)
 Second derivative matrix not updated -- first step.
 ITU=  0
     Eigenvalues ---    0.00002   0.00012   0.00016   0.00130   0.00207
     Eigenvalues ---    0.00803   0.00992   0.02038   0.02881   0.03484
     Eigenvalues ---    0.04391   0.06215   0.06544   0.07787   0.08967
 Eigenvalue     1 is   1.96D-05 Eigenvector:
                          Z7        Z5        X7        X5        Z4
   1                    0.62317  -0.46831  -0.34468   0.26964  -0.25196
                          X6        X4        Z1        Y3        Y5
   1                    0.16013  -0.15636   0.14607  -0.12559   0.12414
 Quadratic step=1.946D+01 exceeds max=3.000D-01 adjusted using Lamda=-7.839D-03.
 Angle between NR and scaled steps=  31.09 degrees.
 Angle between quadratic step and forces=  49.21 degrees.
 Linear search not attempted -- first point.
 B after Tr=     0.000000   -0.000000   -0.000000
         Rot=    1.000000   -0.000000   -0.000000   -0.000000 Ang=   0.00 deg.
 Variable       Old X    -DE/DX   Delta X   Delta X   Delta X     New X
                                 (Linear)    (Quad)   (Total)
    X1       20.16054  -0.00145   0.00000   0.00914   0.00914  20.16968
    Y1       23.09245   0.00086   0.00000   0.03659   0.03659  23.12905
    Z1       17.46782  -0.00119   0.00000   0.03642   0.03642  17.50424
    X2       27.02403  -0.00136   0.00000  -0.03456  -0.03456  26.98947
    Y2       16.69327  -0.00173   0.00000  -0.01032  -0.01032  16.68295
    Z2       24.35536  -0.00152   0.00000  -0.01321  -0.01321  24.34215
    X3       28.32888  -0.00069   0.00000  -0.03724  -0.03724  28.29164
    Y3       21.87623   0.00290   0.00000   0.04315   0.04315  21.91938
    Z3       26.40987   0.00091   0.00000   0.00451   0.00451  26.41438
    X4       23.84267   0.00034   0.00000   0.00792   0.00792  23.85059
    Y4       26.67821  -0.00042   0.00000  -0.01926  -0.01926  26.65895
    Z4       30.63435  -0.00076   0.00000  -0.08598  -0.08598  30.54837
    X5       20.90396   0.00084   0.00000   0.04759   0.04759  20.95155
    Y5       30.35221  -0.00119   0.00000  -0.08480  -0.08480  30.26742
    Z5       26.98038  -0.00138   0.00000  -0.15775  -0.15775  26.82263
    X6       21.85412   0.00182   0.00000   0.04139   0.04139  21.89550
    Y6       17.70961  -0.00204   0.00000  -0.02509  -0.02509  17.68451
    Z6       19.22135   0.00181   0.00000   0.03745   0.03745  19.25880
    X7       22.47149   0.00050   0.00000  -0.03424  -0.03424  22.43725
    Y7       28.18356   0.00162   0.00000   0.05972   0.05972  28.24329
    Z7       19.51652   0.00212   0.00000   0.17855   0.17855  19.69507
         Item               Value     Threshold  Converged?
 Maximum Force            0.002901     0.000450     NO 
 RMS     Force            0.001450     0.000300     NO 
 Maximum Displacement     0.178549     0.001800     NO 
 RMS     Displacement     0.065474     0.001200     NO 
 Predicted change in Energy=-1.006262D-03
 GradGradGradGradGradGradGradGradGradGradGradGradGradGradGradGradGradGrad

 Leave Link  103 at Mon Dec  4 03:21:32 2023, MaxMem=  1879048192 cpu:               0.2 elap:               0.0
 (Enter /home/sekinelabo/g16/l9999.exe)
 1\1\GINC-SEKINELABO-XA7R-R37\Force\UB3LYP\6-311+G(d)\Na7(2)\SEKINELABO
 \04-Dec-2023\0\\#P B3LYP/6-311+g(d) force\\DPGEN\\0,2\Na,10.6685,12.22
 ,9.24357\Na,14.3005,8.8337,12.8883\Na,14.991,11.5764,13.9755\Na,12.617
 ,14.1175,16.211\Na,11.0619,16.0617,14.2774\Na,11.5647,9.37152,10.1715\
 Na,11.8914,14.9141,10.3277\\Version=ES64L-G16RevB.01\State=2-A\HF=-113
 6.1067077\S2=0.776532\S2-1=0.\S2A=0.750454\RMSD=4.845e-09\RMSF=1.450e-
 03\Dipole=0.0665486,0.1212271,0.3780105\Quadrupole=-2.3025594,4.766022
 3,-2.4634629,-1.8439224,0.7475995,0.3087089\PG=C01 [X(Na7)]\\@


 I WISH TO HAVE NO CONNECTION WITH ANY SHIP THAT DOES NOT SAIL FAST,
 FOR I INTEND TO GO IN HARM'S WAY.
     -- JOHN PAUL JONES, USN 1747-1792
 Job cpu time:       0 days  0 hours  3 minutes 39.7 seconds.
 Elapsed time:       0 days  0 hours  0 minutes 18.6 seconds.
 File lengths (MBytes):  RWF=     32 Int=      0 D2E=      0 Chk=      4 Scr=      1
 Normal termination of Gaussian 16 at Mon Dec  4 03:21:32 2023.
