 Set GAUSS_MDEF to "14GB".
 Entering Gaussian System, Link 0=g16
 Initial command:
 /home/sekinelabo/g16/l1.exe "/home/sekinelabo/g16temp/Gau-599869.inp" -scrdir="/home/sekinelabo/g16temp/"
 Entering Link 1 = /home/sekinelabo/g16/l1.exe PID=    599871.
  
 Copyright (c) 1988-2017, Gaussian, Inc.  All Rights Reserved.
  
 This is part of the Gaussian(R) 16 program.  It is based on
 the Gaussian(R) 09 system (copyright 2009, Gaussian, Inc.),
 the Gaussian(R) 03 system (copyright 2003, Gaussian, Inc.),
 the Gaussian(R) 98 system (copyright 1998, Gaussian, Inc.),
 the Gaussian(R) 94 system (copyright 1995, Gaussian, Inc.),
 the Gaussian 92(TM) system (copyright 1992, Gaussian, Inc.),
 the Gaussian 90(TM) system (copyright 1990, Gaussian, Inc.),
 the Gaussian 88(TM) system (copyright 1988, Gaussian, Inc.),
 the Gaussian 86(TM) system (copyright 1986, Carnegie Mellon
 University), and the Gaussian 82(TM) system (copyright 1983,
 Carnegie Mellon University). Gaussian is a federally registered
 trademark of Gaussian, Inc.
  
 This software contains proprietary and confidential information,
 including trade secrets, belonging to Gaussian, Inc.
  
 This software is provided under written license and may be
 used, copied, transmitted, or stored only in accord with that
 written license.
  
 The following legend is applicable only to US Government
 contracts under FAR:
  
                    RESTRICTED RIGHTS LEGEND
  
 Use, reproduction and disclosure by the US Government is
 subject to restrictions as set forth in subparagraphs (a)
 and (c) of the Commercial Computer Software - Restricted
 Rights clause in FAR 52.227-19.
  
 Gaussian, Inc.
 340 Quinnipiac St., Bldg. 40, Wallingford CT 06492
  
  
 ---------------------------------------------------------------
 Warning -- This program may not be used in any manner that
 competes with the business of Gaussian, Inc. or will provide
 assistance to any competitor of Gaussian, Inc.  The licensee
 of this program is prohibited from giving any competitor of
 Gaussian, Inc. access to this program.  By using this program,
 the user acknowledges that Gaussian, Inc. is engaged in the
 business of creating and licensing software in the field of
 computational chemistry and represents and warrants to the
 licensee that it is not a competitor of Gaussian, Inc. and that
 it will not use this program in any manner prohibited above.
 ---------------------------------------------------------------
  

 Cite this work as:
 Gaussian 16, Revision B.01,
 M. J. Frisch, G. W. Trucks, H. B. Schlegel, G. E. Scuseria, 
 M. A. Robb, J. R. Cheeseman, G. Scalmani, V. Barone, 
 G. A. Petersson, H. Nakatsuji, X. Li, M. Caricato, A. V. Marenich, 
 J. Bloino, B. G. Janesko, R. Gomperts, B. Mennucci, H. P. Hratchian, 
 J. V. Ortiz, A. F. Izmaylov, J. L. Sonnenberg, D. Williams-Young, 
 F. Ding, F. Lipparini, F. Egidi, J. Goings, B. Peng, A. Petrone, 
 T. Henderson, D. Ranasinghe, V. G. Zakrzewski, J. Gao, N. Rega, 
 G. Zheng, W. Liang, M. Hada, M. Ehara, K. Toyota, R. Fukuda, 
 J. Hasegawa, M. Ishida, T. Nakajima, Y. Honda, O. Kitao, H. Nakai, 
 T. Vreven, K. Throssell, J. A. Montgomery, Jr., J. E. Peralta, 
 F. Ogliaro, M. J. Bearpark, J. J. Heyd, E. N. Brothers, K. N. Kudin, 
 V. N. Staroverov, T. A. Keith, R. Kobayashi, J. Normand, 
 K. Raghavachari, A. P. Rendell, J. C. Burant, S. S. Iyengar, 
 J. Tomasi, M. Cossi, J. M. Millam, M. Klene, C. Adamo, R. Cammi, 
 J. W. Ochterski, R. L. Martin, K. Morokuma, O. Farkas, 
 J. B. Foresman, and D. J. Fox, Gaussian, Inc., Wallingford CT, 2016.
 
 ******************************************
 Gaussian 16:  ES64L-G16RevB.01 20-Dec-2017
                 3-Dec-2023 
 ******************************************
 %nproc=15
 Will use up to   15 processors via shared memory.
 -------------------------
 #P B3LYP/6-311+g(d) force
 -------------------------
 1/10=7,30=1,38=1/1,3;
 2/12=2,17=6,18=5,40=1/2;
 3/5=4,6=6,7=11,11=2,25=1,30=1,71=1,74=-5/1,2,3;
 4//1;
 5/5=2,38=5/2;
 6/7=2,8=2,9=2,10=2,28=1/1;
 7/29=1/1,2,3,16;
 1/10=7,30=1/3;
 99//99;
 Leave Link    1 at Sun Dec  3 17:33:54 2023, MaxMem=           0 cpu:               0.3 elap:               0.0
 (Enter /home/sekinelabo/g16/l101.exe)
 -----
 DPGEN
 -----
 Symbolic Z-matrix:
 Charge =  0 Multiplicity = 2
 Na                    12.6953   14.4033   15.2658 
 Na                    15.0033   11.3202   11.2945 
 Na                    11.6857   9.35517   12.2822 
 Na                    15.0327   15.7153   14.3529 
 Na                    8.22824   10.9982   12.5608 
 Na                    10.2092   13.1036   12.5916 
 Na                    16.3637   14.3222   10.8702 
 
 ITRead=  0  0  0  0  0  0  0
 MicOpt= -1 -1 -1 -1 -1 -1 -1
 NAtoms=      7 NQM=        7 NQMF=       0 NMMI=      0 NMMIF=      0
                NMic=       0 NMicF=      0.
                    Isotopes and Nuclear Properties:
 (Nuclear quadrupole moments (NQMom) in fm**2, nuclear magnetic moments (NMagM)
  in nuclear magnetons)

  Atom         1           2           3           4           5           6           7
 IAtWgt=          23          23          23          23          23          23          23
 AtmWgt=  22.9897697  22.9897697  22.9897697  22.9897697  22.9897697  22.9897697  22.9897697
 NucSpn=           3           3           3           3           3           3           3
 AtZEff=  -0.0000000  -0.0000000  -0.0000000  -0.0000000  -0.0000000  -0.0000000  -0.0000000
 NQMom=   10.4000000  10.4000000  10.4000000  10.4000000  10.4000000  10.4000000  10.4000000
 NMagM=    2.2175200   2.2175200   2.2175200   2.2175200   2.2175200   2.2175200   2.2175200
 AtZNuc=  11.0000000  11.0000000  11.0000000  11.0000000  11.0000000  11.0000000  11.0000000
 Leave Link  101 at Sun Dec  3 17:33:54 2023, MaxMem=  1879048192 cpu:               2.5 elap:               0.2
 (Enter /home/sekinelabo/g16/l103.exe)

 GradGradGradGradGradGradGradGradGradGradGradGradGradGradGradGradGradGrad
 Berny optimization.
 Initialization pass.
 Trust Radius=3.00D-01 FncErr=1.00D-07 GrdErr=1.00D-07 EigMax=2.50D+02 EigMin=1.00D-04
 Number of steps in this run=      2 maximum allowed number of steps=      2.
 GradGradGradGradGradGradGradGradGradGradGradGradGradGradGradGradGradGrad

 Leave Link  103 at Sun Dec  3 17:33:54 2023, MaxMem=  1879048192 cpu:               0.2 elap:               0.0
 (Enter /home/sekinelabo/g16/l202.exe)
                          Input orientation:                          
 ---------------------------------------------------------------------
 Center     Atomic      Atomic             Coordinates (Angstroms)
 Number     Number       Type             X           Y           Z
 ---------------------------------------------------------------------
      1         11           0       12.695300   14.403300   15.265800
      2         11           0       15.003300   11.320200   11.294500
      3         11           0       11.685700    9.355170   12.282200
      4         11           0       15.032700   15.715300   14.352900
      5         11           0        8.228240   10.998200   12.560800
      6         11           0       10.209200   13.103600   12.591600
      7         11           0       16.363700   14.322200   10.870200
 ---------------------------------------------------------------------
                    Distance matrix (angstroms):
                    1          2          3          4          5
     1  Na   0.000000
     2  Na   5.532051   0.000000
     3  Na   5.950191   3.980372   0.000000
     4  Na   2.831637   5.354585   7.479402   0.000000
     5  Na   6.234289   6.899901   3.838124   8.471324   0.000000
     6  Na   3.875727   5.276967   4.040607   5.761016   2.890996
     7  Na   5.725822   3.323059   6.967698   3.980137   8.949459
                    6          7
     6  Na   0.000000
     7  Na   6.505849   0.000000
 Stoichiometry    Na7(2)
 Framework group  C1[X(Na7)]
 Deg. of freedom    15
 Full point group                 C1      NOp   1
 Largest Abelian subgroup         C1      NOp   1
 Largest concise Abelian subgroup C1      NOp   1
                         Standard orientation:                         
 ---------------------------------------------------------------------
 Center     Atomic      Atomic             Coordinates (Angstroms)
 Number     Number       Type             X           Y           Z
 ---------------------------------------------------------------------
      1         11           0        0.881150   -2.707819   -0.997312
      2         11           0        1.145579    2.785748   -0.402003
      3         11           0       -2.686611    2.050304   -1.187369
      4         11           0        3.538322   -2.003746   -0.317687
      5         11           0       -4.766723   -0.621482    0.619809
      6         11           0       -1.977012   -1.182667    1.130146
      7         11           0        3.865295    1.679661    1.154416
 ---------------------------------------------------------------------
 Rotational constants (GHZ):           0.6546644           0.3183225           0.2407364
 Leave Link  202 at Sun Dec  3 17:33:54 2023, MaxMem=  1879048192 cpu:               0.0 elap:               0.0
 (Enter /home/sekinelabo/g16/l301.exe)
 Standard basis: 6-311+G(d) (5D, 7F)
 Ernie: Thresh=  0.10000D-02 Tol=  0.10000D-05 Strict=F.
 There are   217 symmetry adapted cartesian basis functions of A   symmetry.
 There are   210 symmetry adapted basis functions of A   symmetry.
   210 basis functions,   350 primitive gaussians,   217 cartesian basis functions
    39 alpha electrons       38 beta electrons
       nuclear repulsion energy       275.8346509409 Hartrees.
 IExCor=  402 DFT=T Ex+Corr=B3LYP ExCW=0 ScaHFX=  0.200000
 ScaDFX=  0.800000  0.720000  1.000000  0.810000 ScalE2=  1.000000  1.000000
 IRadAn=      5 IRanWt=     -1 IRanGd=            0 ICorTp=0 IEmpDi=  4
 NAtoms=    7 NActive=    7 NUniq=    7 SFac= 1.00D+00 NAtFMM=   60 NAOKFM=F Big=F
 Integral buffers will be    131072 words long.
 Raffenetti 2 integral format.
 Two-electron integral symmetry is turned on.
 Leave Link  301 at Sun Dec  3 17:33:54 2023, MaxMem=  1879048192 cpu:               0.5 elap:               0.0
 (Enter /home/sekinelabo/g16/l302.exe)
 NPDir=0 NMtPBC=     1 NCelOv=     1 NCel=       1 NClECP=     1 NCelD=      1
         NCelK=      1 NCelE2=     1 NClLst=     1 CellRange=     0.0.
 One-electron integrals computed using PRISM.
 One-electron integral symmetry used in STVInt
 NBasis=   210 RedAO= T EigKep=  7.53D-06  NBF=   210
 NBsUse=   210 1.00D-06 EigRej= -1.00D+00 NBFU=   210
 Precomputing XC quadrature grid using
 IXCGrd= 4 IRadAn=           5 IRanWt=          -1 IRanGd=           0 AccXCQ= 0.00D+00.
 Generated NRdTot=       0 NPtTot=           0 NUsed=           0 NTot=          32
 NSgBfM=   203   203   203   203   203 MxSgAt=     7 MxSgA2=     7.
 Leave Link  302 at Sun Dec  3 17:33:54 2023, MaxMem=  1879048192 cpu:               2.0 elap:               0.1
 (Enter /home/sekinelabo/g16/l303.exe)
 DipDrv:  MaxL=1.
 Leave Link  303 at Sun Dec  3 17:33:54 2023, MaxMem=  1879048192 cpu:               0.5 elap:               0.0
 (Enter /home/sekinelabo/g16/l401.exe)
 ExpMin= 7.60D-03 ExpMax= 3.62D+04 ExpMxC= 1.21D+03 IAcc=3 IRadAn=         5 AccDes= 0.00D+00
 Harris functional with IExCor=  402 and IRadAn=       5 diagonalized for initial guess.
 HarFok:  IExCor=  402 AccDes= 0.00D+00 IRadAn=         5 IDoV= 1 UseB2=F ITyADJ=14
 ICtDFT=  3500011 ScaDFX=  1.000000  1.000000  1.000000  1.000000
 FoFCou: FMM=F IPFlag=           0 FMFlag=      100000 FMFlg1=           0
         NFxFlg=           0 DoJE=T BraDBF=F KetDBF=T FulRan=T
         wScrn=  0.000000 ICntrl=       500 IOpCl=  0 I1Cent=   200000004 NGrid=           0
         NMat0=    1 NMatS0=      1 NMatT0=    0 NMatD0=    1 NMtDS0=    0 NMtDT0=    0
 Petite list used in FoFCou.
 Harris En= -1135.87529072311    
 JPrj=0 DoOrth=F DoCkMO=F.
 Initial guess <Sx>= 0.0000 <Sy>= 0.0000 <Sz>= 0.5000 <S**2>= 0.7500 S= 0.5000
 Leave Link  401 at Sun Dec  3 17:33:54 2023, MaxMem=  1879048192 cpu:               4.2 elap:               0.3
 (Enter /home/sekinelabo/g16/l502.exe)
 Keep R1 and R2 ints in memory in canonical form, NReq=506573265.
 FoFCou: FMM=F IPFlag=           0 FMFlag=           0 FMFlg1=           0
         NFxFlg=           0 DoJE=F BraDBF=F KetDBF=F FulRan=T
         wScrn=  0.000000 ICntrl=       600 IOpCl=  0 I1Cent=           0 NGrid=           0
         NMat0=    1 NMatS0=  22155 NMatT0=    0 NMatD0=    1 NMtDS0=    0 NMtDT0=    0
 Symmetry not used in FoFCou.
 Two-electron integral symmetry not used.
 UHF open shell SCF:
 Using DIIS extrapolation, IDIIS=  1040.
 NGot=  1879048192 LenX=  1388082635 LenY=  1388035105
 Requested convergence on RMS density matrix=1.00D-08 within 128 cycles.
 Requested convergence on MAX density matrix=1.00D-06.
 Requested convergence on             energy=1.00D-06.
 No special actions if energy rises.

 Cycle   1  Pass 1  IDiag  1:
 E= -1136.07971488279    
 DIIS: error= 1.14D-02 at cycle   1 NSaved=   1.
 NSaved= 1 IEnMin= 1 EnMin= -1136.07971488279     IErMin= 1 ErrMin= 1.14D-02
 ErrMax= 1.14D-02  0.00D+00 EMaxC= 1.00D-01 BMatC= 1.84D-01 BMatP= 1.84D-01
 IDIUse=3 WtCom= 8.86D-01 WtEn= 1.14D-01
 Coeff-Com:  0.100D+01
 Coeff-En:   0.100D+01
 Coeff:      0.100D+01
 Gap=     0.032 Goal=   None    Shift=    0.000
 Gap=     0.033 Goal=   None    Shift=    0.000
 GapD=    0.032 DampG=0.250 DampE=0.500 DampFc=0.2500 IDamp=-1.
 Damping current iteration by 2.50D-01
 RMSDP=5.58D-03 MaxDP=4.64D-01              OVMax= 2.10D-01

 Cycle   2  Pass 1  IDiag  1:
 E= -1136.08802936856     Delta-E=       -0.008314485771 Rises=F Damp=T
 DIIS: error= 8.03D-03 at cycle   2 NSaved=   2.
 NSaved= 2 IEnMin= 2 EnMin= -1136.08802936856     IErMin= 2 ErrMin= 8.03D-03
 ErrMax= 8.03D-03  0.00D+00 EMaxC= 1.00D-01 BMatC= 7.10D-02 BMatP= 1.84D-01
 IDIUse=3 WtCom= 9.20D-01 WtEn= 8.03D-02
 Coeff-Com: -0.129D+01 0.229D+01
 Coeff-En:   0.000D+00 0.100D+01
 Coeff:     -0.119D+01 0.219D+01
 Gap=     0.041 Goal=   None    Shift=    0.000
 Gap=     0.048 Goal=   None    Shift=    0.000
 RMSDP=5.72D-03 MaxDP=5.75D-01 DE=-8.31D-03 OVMax= 1.97D-01

 Cycle   3  Pass 1  IDiag  1:
 E= -1136.10319459038     Delta-E=       -0.015165221819 Rises=F Damp=F
 DIIS: error= 2.79D-03 at cycle   3 NSaved=   3.
 NSaved= 3 IEnMin= 3 EnMin= -1136.10319459038     IErMin= 3 ErrMin= 2.79D-03
 ErrMax= 2.79D-03  0.00D+00 EMaxC= 1.00D-01 BMatC= 1.50D-03 BMatP= 7.10D-02
 IDIUse=3 WtCom= 9.72D-01 WtEn= 2.79D-02
 Coeff-Com: -0.130D+00 0.229D+00 0.901D+00
 Coeff-En:   0.000D+00 0.000D+00 0.100D+01
 Coeff:     -0.126D+00 0.222D+00 0.904D+00
 Gap=     0.037 Goal=   None    Shift=    0.000
 Gap=     0.040 Goal=   None    Shift=    0.000
 RMSDP=1.92D-03 MaxDP=1.05D-01 DE=-1.52D-02 OVMax= 1.48D-01

 Cycle   4  Pass 1  IDiag  1:
 E= -1136.10007715332     Delta-E=        0.003117437060 Rises=F Damp=F
 DIIS: error= 4.22D-03 at cycle   4 NSaved=   4.
 NSaved= 4 IEnMin= 3 EnMin= -1136.10319459038     IErMin= 3 ErrMin= 2.79D-03
 ErrMax= 4.22D-03  0.00D+00 EMaxC= 1.00D-01 BMatC= 3.48D-03 BMatP= 1.50D-03
 IDIUse=3 WtCom= 1.33D-01 WtEn= 8.67D-01
 Coeff-Com:  0.549D-03 0.499D-03 0.607D+00 0.392D+00
 Coeff-En:   0.000D+00 0.000D+00 0.670D+00 0.330D+00
 Coeff:      0.732D-04 0.666D-04 0.662D+00 0.338D+00
 Gap=     0.036 Goal=   None    Shift=    0.000
 Gap=     0.043 Goal=   None    Shift=    0.000
 RMSDP=9.77D-04 MaxDP=4.79D-02 DE= 3.12D-03 OVMax= 1.03D-01

 Cycle   5  Pass 1  IDiag  1:
 E= -1136.10542725638     Delta-E=       -0.005350103054 Rises=F Damp=F
 DIIS: error= 4.39D-04 at cycle   5 NSaved=   5.
 NSaved= 5 IEnMin= 5 EnMin= -1136.10542725638     IErMin= 5 ErrMin= 4.39D-04
 ErrMax= 4.39D-04  0.00D+00 EMaxC= 1.00D-01 BMatC= 9.99D-05 BMatP= 1.50D-03
 IDIUse=3 WtCom= 9.96D-01 WtEn= 4.39D-03
 Coeff-Com:  0.289D-02-0.495D-02 0.282D+00 0.102D+00 0.618D+00
 Coeff-En:   0.000D+00 0.000D+00 0.000D+00 0.000D+00 0.100D+01
 Coeff:      0.288D-02-0.493D-02 0.281D+00 0.102D+00 0.620D+00
 Gap=     0.035 Goal=   None    Shift=    0.000
 Gap=     0.044 Goal=   None    Shift=    0.000
 RMSDP=2.95D-04 MaxDP=1.82D-02 DE=-5.35D-03 OVMax= 1.89D-02

 Cycle   6  Pass 1  IDiag  1:
 E= -1136.10556014467     Delta-E=       -0.000132888298 Rises=F Damp=F
 DIIS: error= 1.88D-04 at cycle   6 NSaved=   6.
 NSaved= 6 IEnMin= 6 EnMin= -1136.10556014467     IErMin= 6 ErrMin= 1.88D-04
 ErrMax= 1.88D-04  0.00D+00 EMaxC= 1.00D-01 BMatC= 9.54D-06 BMatP= 9.99D-05
 IDIUse=3 WtCom= 9.98D-01 WtEn= 1.88D-03
 Coeff-Com: -0.135D-02 0.112D-02-0.617D-01-0.715D-01 0.228D+00 0.906D+00
 Coeff-En:   0.000D+00 0.000D+00 0.000D+00 0.000D+00 0.000D+00 0.100D+01
 Coeff:     -0.135D-02 0.112D-02-0.616D-01-0.714D-01 0.227D+00 0.906D+00
 Gap=     0.035 Goal=   None    Shift=    0.000
 Gap=     0.045 Goal=   None    Shift=    0.000
 RMSDP=1.42D-04 MaxDP=8.28D-03 DE=-1.33D-04 OVMax= 1.28D-02

 Cycle   7  Pass 1  IDiag  1:
 E= -1136.10559564030     Delta-E=       -0.000035495625 Rises=F Damp=F
 DIIS: error= 8.05D-05 at cycle   7 NSaved=   7.
 NSaved= 7 IEnMin= 7 EnMin= -1136.10559564030     IErMin= 7 ErrMin= 8.05D-05
 ErrMax= 8.05D-05  0.00D+00 EMaxC= 1.00D-01 BMatC= 1.62D-06 BMatP= 9.54D-06
 IDIUse=1 WtCom= 1.00D+00 WtEn= 0.00D+00
 Coeff-Com: -0.126D-02 0.177D-02-0.619D-01-0.214D-01-0.102D+00 0.904D-01
 Coeff-Com:  0.109D+01
 Coeff:     -0.126D-02 0.177D-02-0.619D-01-0.214D-01-0.102D+00 0.904D-01
 Coeff:      0.109D+01
 Gap=     0.035 Goal=   None    Shift=    0.000
 Gap=     0.045 Goal=   None    Shift=    0.000
 RMSDP=1.01D-04 MaxDP=4.20D-03 DE=-3.55D-05 OVMax= 9.19D-03

 Cycle   8  Pass 1  IDiag  1:
 E= -1136.10560827544     Delta-E=       -0.000012635139 Rises=F Damp=F
 DIIS: error= 4.25D-05 at cycle   8 NSaved=   8.
 NSaved= 8 IEnMin= 8 EnMin= -1136.10560827544     IErMin= 8 ErrMin= 4.25D-05
 ErrMax= 4.25D-05  0.00D+00 EMaxC= 1.00D-01 BMatC= 5.45D-07 BMatP= 1.62D-06
 IDIUse=1 WtCom= 1.00D+00 WtEn= 0.00D+00
 Coeff-Com:  0.377D-03-0.339D-03-0.141D-01 0.615D-02-0.894D-01-0.127D+00
 Coeff-Com:  0.363D+00 0.861D+00
 Coeff:      0.377D-03-0.339D-03-0.141D-01 0.615D-02-0.894D-01-0.127D+00
 Coeff:      0.363D+00 0.861D+00
 Gap=     0.035 Goal=   None    Shift=    0.000
 Gap=     0.045 Goal=   None    Shift=    0.000
 RMSDP=5.75D-05 MaxDP=2.84D-03 DE=-1.26D-05 OVMax= 4.44D-03

 Cycle   9  Pass 1  IDiag  1:
 E= -1136.10561206824     Delta-E=       -0.000003792804 Rises=F Damp=F
 DIIS: error= 3.11D-05 at cycle   9 NSaved=   9.
 NSaved= 9 IEnMin= 9 EnMin= -1136.10561206824     IErMin= 9 ErrMin= 3.11D-05
 ErrMax= 3.11D-05  0.00D+00 EMaxC= 1.00D-01 BMatC= 2.48D-07 BMatP= 5.45D-07
 IDIUse=1 WtCom= 1.00D+00 WtEn= 0.00D+00
 Coeff-Com:  0.860D-03-0.110D-02 0.124D-01 0.101D-01-0.146D-01-0.847D-01
 Coeff-Com: -0.193D+00 0.439D+00 0.832D+00
 Coeff:      0.860D-03-0.110D-02 0.124D-01 0.101D-01-0.146D-01-0.847D-01
 Coeff:     -0.193D+00 0.439D+00 0.832D+00
 Gap=     0.035 Goal=   None    Shift=    0.000
 Gap=     0.045 Goal=   None    Shift=    0.000
 RMSDP=4.08D-05 MaxDP=1.40D-03 DE=-3.79D-06 OVMax= 3.61D-03

 Cycle  10  Pass 1  IDiag  1:
 E= -1136.10561388773     Delta-E=       -0.000001819486 Rises=F Damp=F
 DIIS: error= 1.31D-05 at cycle  10 NSaved=  10.
 NSaved=10 IEnMin=10 EnMin= -1136.10561388773     IErMin=10 ErrMin= 1.31D-05
 ErrMax= 1.31D-05  0.00D+00 EMaxC= 1.00D-01 BMatC= 6.10D-08 BMatP= 2.48D-07
 IDIUse=1 WtCom= 1.00D+00 WtEn= 0.00D+00
 Coeff-Com: -0.654D-03 0.814D-03 0.312D-02-0.548D-02 0.416D-01 0.779D-01
 Coeff-Com: -0.118D+00-0.415D+00-0.160D+00 0.158D+01
 Coeff:     -0.654D-03 0.814D-03 0.312D-02-0.548D-02 0.416D-01 0.779D-01
 Coeff:     -0.118D+00-0.415D+00-0.160D+00 0.158D+01
 Gap=     0.035 Goal=   None    Shift=    0.000
 Gap=     0.046 Goal=   None    Shift=    0.000
 RMSDP=4.12D-05 MaxDP=1.67D-03 DE=-1.82D-06 OVMax= 3.24D-03

 Cycle  11  Pass 1  IDiag  1:
 E= -1136.10561495549     Delta-E=       -0.000001067762 Rises=F Damp=F
 DIIS: error= 7.97D-06 at cycle  11 NSaved=  11.
 NSaved=11 IEnMin=11 EnMin= -1136.10561495549     IErMin=11 ErrMin= 7.97D-06
 ErrMax= 7.97D-06  0.00D+00 EMaxC= 1.00D-01 BMatC= 1.70D-08 BMatP= 6.10D-08
 IDIUse=1 WtCom= 1.00D+00 WtEn= 0.00D+00
 Coeff-Com: -0.164D-03 0.194D-03-0.306D-02-0.319D-02 0.733D-02 0.228D-01
 Coeff-Com:  0.287D-01-0.113D+00-0.185D+00 0.296D-01 0.122D+01
 Coeff:     -0.164D-03 0.194D-03-0.306D-02-0.319D-02 0.733D-02 0.228D-01
 Coeff:      0.287D-01-0.113D+00-0.185D+00 0.296D-01 0.122D+01
 Gap=     0.035 Goal=   None    Shift=    0.000
 Gap=     0.046 Goal=   None    Shift=    0.000
 RMSDP=2.02D-05 MaxDP=7.67D-04 DE=-1.07D-06 OVMax= 1.57D-03

 Cycle  12  Pass 1  IDiag  1:
 E= -1136.10561523440     Delta-E=       -0.000000278912 Rises=F Damp=F
 DIIS: error= 5.15D-06 at cycle  12 NSaved=  12.
 NSaved=12 IEnMin=12 EnMin= -1136.10561523440     IErMin=12 ErrMin= 5.15D-06
 ErrMax= 5.15D-06  0.00D+00 EMaxC= 1.00D-01 BMatC= 6.51D-09 BMatP= 1.70D-08
 IDIUse=1 WtCom= 1.00D+00 WtEn= 0.00D+00
 Coeff-Com:  0.161D-03-0.203D-03-0.256D-02 0.486D-03-0.119D-01-0.175D-01
 Coeff-Com:  0.519D-01 0.958D-01-0.302D-01-0.472D+00 0.360D+00 0.103D+01
 Coeff:      0.161D-03-0.203D-03-0.256D-02 0.486D-03-0.119D-01-0.175D-01
 Coeff:      0.519D-01 0.958D-01-0.302D-01-0.472D+00 0.360D+00 0.103D+01
 Gap=     0.035 Goal=   None    Shift=    0.000
 Gap=     0.046 Goal=   None    Shift=    0.000
 RMSDP=1.17D-05 MaxDP=4.43D-04 DE=-2.79D-07 OVMax= 9.96D-04

 Cycle  13  Pass 1  IDiag  1:
 E= -1136.10561532601     Delta-E=       -0.000000091605 Rises=F Damp=F
 DIIS: error= 3.07D-06 at cycle  13 NSaved=  13.
 NSaved=13 IEnMin=13 EnMin= -1136.10561532601     IErMin=13 ErrMin= 3.07D-06
 ErrMax= 3.07D-06  0.00D+00 EMaxC= 1.00D-01 BMatC= 2.06D-09 BMatP= 6.51D-09
 IDIUse=1 WtCom= 1.00D+00 WtEn= 0.00D+00
 Coeff-Com:  0.127D-03-0.158D-03 0.422D-03 0.990D-03-0.371D-02-0.954D-02
 Coeff-Com: -0.102D-01 0.677D-01 0.806D-01-0.134D+00-0.342D+00 0.118D+00
 Coeff-Com:  0.123D+01
 Coeff:      0.127D-03-0.158D-03 0.422D-03 0.990D-03-0.371D-02-0.954D-02
 Coeff:     -0.102D-01 0.677D-01 0.806D-01-0.134D+00-0.342D+00 0.118D+00
 Coeff:      0.123D+01
 Gap=     0.035 Goal=   None    Shift=    0.000
 Gap=     0.046 Goal=   None    Shift=    0.000
 RMSDP=7.21D-06 MaxDP=2.99D-04 DE=-9.16D-08 OVMax= 7.14D-04

 Cycle  14  Pass 1  IDiag  1:
 E= -1136.10561535761     Delta-E=       -0.000000031598 Rises=F Damp=F
 DIIS: error= 1.35D-06 at cycle  14 NSaved=  14.
 NSaved=14 IEnMin=14 EnMin= -1136.10561535761     IErMin=14 ErrMin= 1.35D-06
 ErrMax= 1.35D-06  0.00D+00 EMaxC= 1.00D-01 BMatC= 6.20D-10 BMatP= 2.06D-09
 IDIUse=1 WtCom= 1.00D+00 WtEn= 0.00D+00
 Coeff-Com: -0.489D-04 0.654D-04 0.935D-03-0.647D-04 0.395D-02 0.518D-02
 Coeff-Com: -0.225D-01-0.175D-01 0.364D-01 0.130D+00-0.234D+00-0.316D+00
 Coeff-Com:  0.375D+00 0.104D+01
 Coeff:     -0.489D-04 0.654D-04 0.935D-03-0.647D-04 0.395D-02 0.518D-02
 Coeff:     -0.225D-01-0.175D-01 0.364D-01 0.130D+00-0.234D+00-0.316D+00
 Coeff:      0.375D+00 0.104D+01
 Gap=     0.035 Goal=   None    Shift=    0.000
 Gap=     0.046 Goal=   None    Shift=    0.000
 RMSDP=3.49D-06 MaxDP=1.54D-04 DE=-3.16D-08 OVMax= 3.69D-04

 Cycle  15  Pass 1  IDiag  1:
 E= -1136.10561536449     Delta-E=       -0.000000006882 Rises=F Damp=F
 DIIS: error= 4.67D-07 at cycle  15 NSaved=  15.
 NSaved=15 IEnMin=15 EnMin= -1136.10561536449     IErMin=15 ErrMin= 4.67D-07
 ErrMax= 4.67D-07  0.00D+00 EMaxC= 1.00D-01 BMatC= 1.08D-10 BMatP= 6.20D-10
 IDIUse=1 WtCom= 1.00D+00 WtEn= 0.00D+00
 Coeff-Com: -0.530D-04 0.682D-04 0.117D-03-0.252D-03 0.189D-02 0.373D-02
 Coeff-Com: -0.285D-02-0.197D-01-0.142D-01 0.625D-01 0.372D-01-0.115D+00
 Coeff-Com: -0.202D+00 0.249D+00 0.100D+01
 Coeff:     -0.530D-04 0.682D-04 0.117D-03-0.252D-03 0.189D-02 0.373D-02
 Coeff:     -0.285D-02-0.197D-01-0.142D-01 0.625D-01 0.372D-01-0.115D+00
 Coeff:     -0.202D+00 0.249D+00 0.100D+01
 Gap=     0.035 Goal=   None    Shift=    0.000
 Gap=     0.046 Goal=   None    Shift=    0.000
 RMSDP=1.23D-06 MaxDP=5.47D-05 DE=-6.88D-09 OVMax= 1.24D-04

 Cycle  16  Pass 1  IDiag  1:
 E= -1136.10561536539     Delta-E=       -0.000000000906 Rises=F Damp=F
 DIIS: error= 1.77D-07 at cycle  16 NSaved=  16.
 NSaved=16 IEnMin=16 EnMin= -1136.10561536539     IErMin=16 ErrMin= 1.77D-07
 ErrMax= 1.77D-07  0.00D+00 EMaxC= 1.00D-01 BMatC= 1.83D-11 BMatP= 1.08D-10
 IDIUse=1 WtCom= 1.00D+00 WtEn= 0.00D+00
 Coeff-Com:  0.912D-05-0.124D-04-0.189D-03 0.199D-04-0.740D-03-0.822D-03
 Coeff-Com:  0.381D-02 0.277D-02-0.915D-02-0.197D-01 0.486D-01 0.550D-01
 Coeff-Com: -0.840D-01-0.179D+00 0.552D-01 0.113D+01
 Coeff:      0.912D-05-0.124D-04-0.189D-03 0.199D-04-0.740D-03-0.822D-03
 Coeff:      0.381D-02 0.277D-02-0.915D-02-0.197D-01 0.486D-01 0.550D-01
 Coeff:     -0.840D-01-0.179D+00 0.552D-01 0.113D+01
 Gap=     0.035 Goal=   None    Shift=    0.000
 Gap=     0.046 Goal=   None    Shift=    0.000
 RMSDP=3.84D-07 MaxDP=1.87D-05 DE=-9.06D-10 OVMax= 2.95D-05

 Cycle  17  Pass 1  IDiag  1:
 E= -1136.10561536552     Delta-E=       -0.000000000127 Rises=F Damp=F
 DIIS: error= 5.78D-08 at cycle  17 NSaved=  17.
 NSaved=17 IEnMin=17 EnMin= -1136.10561536552     IErMin=17 ErrMin= 5.78D-08
 ErrMax= 5.78D-08  0.00D+00 EMaxC= 1.00D-01 BMatC= 1.98D-12 BMatP= 1.83D-11
 IDIUse=1 WtCom= 1.00D+00 WtEn= 0.00D+00
 Coeff-Com:  0.805D-05-0.105D-04-0.373D-04 0.274D-04-0.286D-03-0.380D-03
 Coeff-Com:  0.649D-03 0.219D-02 0.170D-02-0.761D-02-0.672D-02 0.158D-01
 Coeff-Com:  0.318D-01-0.405D-01-0.162D+00 0.234D-01 0.114D+01
 Coeff:      0.805D-05-0.105D-04-0.373D-04 0.274D-04-0.286D-03-0.380D-03
 Coeff:      0.649D-03 0.219D-02 0.170D-02-0.761D-02-0.672D-02 0.158D-01
 Coeff:      0.318D-01-0.405D-01-0.162D+00 0.234D-01 0.114D+01
 Gap=     0.035 Goal=   None    Shift=    0.000
 Gap=     0.046 Goal=   None    Shift=    0.000
 RMSDP=1.44D-07 MaxDP=7.55D-06 DE=-1.27D-10 OVMax= 1.10D-05

 Cycle  18  Pass 1  IDiag  1:
 E= -1136.10561536551     Delta-E=        0.000000000011 Rises=F Damp=F
 DIIS: error= 2.63D-08 at cycle  18 NSaved=  18.
 NSaved=18 IEnMin=17 EnMin= -1136.10561536552     IErMin=18 ErrMin= 2.63D-08
 ErrMax= 2.63D-08  0.00D+00 EMaxC= 1.00D-01 BMatC= 3.12D-13 BMatP= 1.98D-12
 IDIUse=1 WtCom= 1.00D+00 WtEn= 0.00D+00
 Coeff-Com:  0.250D-06-0.259D-06 0.120D-04 0.466D-05-0.243D-05-0.236D-05
 Coeff-Com: -0.175D-03 0.278D-03 0.737D-03 0.167D-03-0.402D-02-0.242D-02
 Coeff-Com:  0.108D-01 0.101D-01-0.226D-01-0.118D+00 0.148D+00 0.977D+00
 Coeff:      0.250D-06-0.259D-06 0.120D-04 0.466D-05-0.243D-05-0.236D-05
 Coeff:     -0.175D-03 0.278D-03 0.737D-03 0.167D-03-0.402D-02-0.242D-02
 Coeff:      0.108D-01 0.101D-01-0.226D-01-0.118D+00 0.148D+00 0.977D+00
 Gap=     0.035 Goal=   None    Shift=    0.000
 Gap=     0.046 Goal=   None    Shift=    0.000
 RMSDP=4.47D-08 MaxDP=2.33D-06 DE= 1.14D-11 OVMax= 3.06D-06

 Cycle  19  Pass 1  IDiag  1:
 E= -1136.10561536553     Delta-E=       -0.000000000019 Rises=F Damp=F
 DIIS: error= 9.61D-09 at cycle  19 NSaved=  19.
 NSaved=19 IEnMin=19 EnMin= -1136.10561536553     IErMin=19 ErrMin= 9.61D-09
 ErrMax= 9.61D-09  0.00D+00 EMaxC= 1.00D-01 BMatC= 5.78D-14 BMatP= 3.12D-13
 IDIUse=1 WtCom= 1.00D+00 WtEn= 0.00D+00
 Coeff-Com: -0.199D-05 0.260D-05 0.975D-05-0.566D-05 0.707D-04 0.104D-03
 Coeff-Com: -0.173D-03-0.540D-03-0.238D-03 0.214D-02 0.104D-03-0.463D-02
 Coeff-Com: -0.277D-02 0.128D-01 0.207D-01-0.325D-01-0.154D+00 0.160D+00
 Coeff-Com:  0.999D+00
 Coeff:     -0.199D-05 0.260D-05 0.975D-05-0.566D-05 0.707D-04 0.104D-03
 Coeff:     -0.173D-03-0.540D-03-0.238D-03 0.214D-02 0.104D-03-0.463D-02
 Coeff:     -0.277D-02 0.128D-01 0.207D-01-0.325D-01-0.154D+00 0.160D+00
 Coeff:      0.999D+00
 Gap=     0.035 Goal=   None    Shift=    0.000
 Gap=     0.046 Goal=   None    Shift=    0.000
 RMSDP=2.40D-08 MaxDP=9.80D-07 DE=-1.91D-11 OVMax= 1.55D-06

 Cycle  20  Pass 1  IDiag  1:
 E= -1136.10561536551     Delta-E=        0.000000000017 Rises=F Damp=F
 DIIS: error= 3.26D-09 at cycle  20 NSaved=  20.
 NSaved=20 IEnMin=19 EnMin= -1136.10561536553     IErMin=20 ErrMin= 3.26D-09
 ErrMax= 3.26D-09  0.00D+00 EMaxC= 1.00D-01 BMatC= 9.38D-15 BMatP= 5.78D-14
 IDIUse=1 WtCom= 1.00D+00 WtEn= 0.00D+00
 Coeff-Com: -0.836D-07 0.100D-06-0.137D-05-0.394D-06 0.212D-05 0.422D-05
 Coeff-Com:  0.137D-04-0.470D-04-0.934D-04 0.664D-04 0.401D-03 0.143D-03
 Coeff-Com: -0.143D-02-0.924D-03 0.518D-02 0.106D-01-0.113D-01-0.174D+00
 Coeff-Com:  0.877D-01 0.108D+01
 Coeff:     -0.836D-07 0.100D-06-0.137D-05-0.394D-06 0.212D-05 0.422D-05
 Coeff:      0.137D-04-0.470D-04-0.934D-04 0.664D-04 0.401D-03 0.143D-03
 Coeff:     -0.143D-02-0.924D-03 0.518D-02 0.106D-01-0.113D-01-0.174D+00
 Coeff:      0.877D-01 0.108D+01
 Gap=     0.035 Goal=   None    Shift=    0.000
 Gap=     0.046 Goal=   None    Shift=    0.000
 RMSDP=8.69D-09 MaxDP=3.95D-07 DE= 1.68D-11 OVMax= 5.85D-07

 SCF Done:  E(UB3LYP) =  -1136.10561537     A.U. after   20 cycles
            NFock= 20  Conv=0.87D-08     -V/T= 2.0029
 <Sx>= 0.0000 <Sy>= 0.0000 <Sz>= 0.5000 <S**2>= 0.7964 S= 0.5229
 <L.S>= 0.000000000000E+00
 KE= 1.132874592984D+03 PE=-3.280585604184D+03 EE= 7.357707448938D+02
 Annihilation of the first spin contaminant:
 S**2 before annihilation     0.7964,   after     0.7510
 Leave Link  502 at Sun Dec  3 17:34:11 2023, MaxMem=  1879048192 cpu:             177.2 elap:              16.1
 (Enter /home/sekinelabo/g16/l601.exe)
 Copying SCF densities to generalized density rwf, IOpCl= 1 IROHF=0.

 **********************************************************************

            Population analysis using the SCF Density.

 **********************************************************************

 Orbital symmetries:
 Alpha Orbitals:
       Occupied  (A) (A) (A) (A) (A) (A) (A) (A) (A) (A) (A) (A)
                 (A) (A) (A) (A) (A) (A) (A) (A) (A) (A) (A) (A)
                 (A) (A) (A) (A) (A) (A) (A) (A) (A) (A) (A) (A)
                 (A) (A) (A)
       Virtual   (A) (A) (A) (A) (A) (A) (A) (A) (A) (A) (A) (A)
                 (A) (A) (A) (A) (A) (A) (A) (A) (A) (A) (A) (A)
                 (A) (A) (A) (A) (A) (A) (A) (A) (A) (A) (A) (A)
                 (A) (A) (A) (A) (A) (A) (A) (A) (A) (A) (A) (A)
                 (A) (A) (A) (A) (A) (A) (A) (A) (A) (A) (A) (A)
                 (A) (A) (A) (A) (A) (A) (A) (A) (A) (A) (A) (A)
                 (A) (A) (A) (A) (A) (A) (A) (A) (A) (A) (A) (A)
                 (A) (A) (A) (A) (A) (A) (A) (A) (A) (A) (A) (A)
                 (A) (A) (A) (A) (A) (A) (A) (A) (A) (A) (A) (A)
                 (A) (A) (A) (A) (A) (A) (A) (A) (A) (A) (A) (A)
                 (A) (A) (A) (A) (A) (A) (A) (A) (A) (A) (A) (A)
                 (A) (A) (A) (A) (A) (A) (A) (A) (A) (A) (A) (A)
                 (A) (A) (A) (A) (A) (A) (A) (A) (A) (A) (A) (A)
                 (A) (A) (A) (A) (A) (A) (A) (A) (A) (A) (A) (A)
                 (A) (A) (A)
 Beta  Orbitals:
       Occupied  (A) (A) (A) (A) (A) (A) (A) (A) (A) (A) (A) (A)
                 (A) (A) (A) (A) (A) (A) (A) (A) (A) (A) (A) (A)
                 (A) (A) (A) (A) (A) (A) (A) (A) (A) (A) (A) (A)
                 (A) (A)
       Virtual   (A) (A) (A) (A) (A) (A) (A) (A) (A) (A) (A) (A)
                 (A) (A) (A) (A) (A) (A) (A) (A) (A) (A) (A) (A)
                 (A) (A) (A) (A) (A) (A) (A) (A) (A) (A) (A) (A)
                 (A) (A) (A) (A) (A) (A) (A) (A) (A) (A) (A) (A)
                 (A) (A) (A) (A) (A) (A) (A) (A) (A) (A) (A) (A)
                 (A) (A) (A) (A) (A) (A) (A) (A) (A) (A) (A) (A)
                 (A) (A) (A) (A) (A) (A) (A) (A) (A) (A) (A) (A)
                 (A) (A) (A) (A) (A) (A) (A) (A) (A) (A) (A) (A)
                 (A) (A) (A) (A) (A) (A) (A) (A) (A) (A) (A) (A)
                 (A) (A) (A) (A) (A) (A) (A) (A) (A) (A) (A) (A)
                 (A) (A) (A) (A) (A) (A) (A) (A) (A) (A) (A) (A)
                 (A) (A) (A) (A) (A) (A) (A) (A) (A) (A) (A) (A)
                 (A) (A) (A) (A) (A) (A) (A) (A) (A) (A) (A) (A)
                 (A) (A) (A) (A) (A) (A) (A) (A) (A) (A) (A) (A)
                 (A) (A) (A) (A)
 The electronic state is 2-A.
 Alpha  occ. eigenvalues --  -38.45526 -38.44921 -38.44876 -38.44873 -38.43923
 Alpha  occ. eigenvalues --  -38.43656 -38.43439  -2.21356  -2.20740  -2.20731
 Alpha  occ. eigenvalues --   -2.20655  -2.19675  -2.19504  -2.19243  -1.15098
 Alpha  occ. eigenvalues --   -1.15009  -1.14987  -1.14502  -1.14394  -1.14391
 Alpha  occ. eigenvalues --   -1.14361  -1.14357  -1.14336  -1.14320  -1.14301
 Alpha  occ. eigenvalues --   -1.14257  -1.13371  -1.13363  -1.13316  -1.13187
 Alpha  occ. eigenvalues --   -1.13131  -1.13127  -1.12897  -1.12881  -1.12875
 Alpha  occ. eigenvalues --   -0.16277  -0.14221  -0.12523  -0.10771
 Alpha virt. eigenvalues --   -0.07237  -0.05078  -0.04656  -0.03572  -0.03309
 Alpha virt. eigenvalues --   -0.02772  -0.02108  -0.01607  -0.00983  -0.00711
 Alpha virt. eigenvalues --   -0.00401  -0.00385   0.00073   0.00472   0.00562
 Alpha virt. eigenvalues --    0.00618   0.00962   0.00964   0.01137   0.01339
 Alpha virt. eigenvalues --    0.01424   0.01548   0.01709   0.01723   0.01758
 Alpha virt. eigenvalues --    0.01961   0.02058   0.02093   0.02159   0.02260
 Alpha virt. eigenvalues --    0.02470   0.02544   0.02694   0.02758   0.02915
 Alpha virt. eigenvalues --    0.03018   0.03159   0.03194   0.03468   0.03579
 Alpha virt. eigenvalues --    0.03627   0.03724   0.03856   0.03951   0.04162
 Alpha virt. eigenvalues --    0.04459   0.04731   0.04864   0.05161   0.05365
 Alpha virt. eigenvalues --    0.06040   0.06236   0.06698   0.06766   0.07073
 Alpha virt. eigenvalues --    0.07233   0.07533   0.07861   0.07977   0.08106
 Alpha virt. eigenvalues --    0.08302   0.08809   0.09233   0.09379   0.09855
 Alpha virt. eigenvalues --    0.10081   0.10438   0.10630   0.10978   0.11518
 Alpha virt. eigenvalues --    0.12090   0.12489   0.12720   0.13181   0.13636
 Alpha virt. eigenvalues --    0.14393   0.14589   0.15294   0.16417   0.17725
 Alpha virt. eigenvalues --    0.26663   0.27934   0.28836   0.29283   0.29633
 Alpha virt. eigenvalues --    0.30765   0.30908   0.31416   0.31548   0.32196
 Alpha virt. eigenvalues --    0.33279   0.34060   0.34318   0.34578   0.34890
 Alpha virt. eigenvalues --    0.36129   0.36351   0.37854   0.38102   0.39199
 Alpha virt. eigenvalues --    0.40075   0.40760   0.40847   0.42341   0.42531
 Alpha virt. eigenvalues --    0.42877   0.43062   0.43579   0.43817   0.44069
 Alpha virt. eigenvalues --    0.44239   0.44446   0.44851   0.45107   0.45343
 Alpha virt. eigenvalues --    0.45699   0.46085   0.47097   0.47440   0.48178
 Alpha virt. eigenvalues --    0.49145   0.49277   0.49722   0.50296   0.50758
 Alpha virt. eigenvalues --    0.51253   0.51944   0.52329   0.52877   0.53704
 Alpha virt. eigenvalues --    0.54266   0.54860   0.56547   0.63247   0.75339
 Alpha virt. eigenvalues --    0.78453   2.03849   2.07048   2.07985   2.11447
 Alpha virt. eigenvalues --    2.13597   2.14407   2.16678   4.41869   4.43050
 Alpha virt. eigenvalues --    4.43364   4.43564   4.43756   4.44006   4.44544
 Alpha virt. eigenvalues --    4.45083   4.45341   4.46093   4.46394   4.46679
 Alpha virt. eigenvalues --    4.46878   4.47081   4.47823   4.48632   4.49280
 Alpha virt. eigenvalues --    4.50956   4.55954   4.69360   4.72277  96.23488
 Alpha virt. eigenvalues --   96.27213  96.28490  96.32508  96.35686  96.37699
 Alpha virt. eigenvalues --   96.39780
  Beta  occ. eigenvalues --  -38.45506 -38.44925 -38.44833 -38.44792 -38.43937
  Beta  occ. eigenvalues --  -38.43637 -38.43385  -2.21324  -2.20749  -2.20655
  Beta  occ. eigenvalues --   -2.20505  -2.19704  -2.19468  -2.19141  -1.15057
  Beta  occ. eigenvalues --   -1.14986  -1.14960  -1.14496  -1.14399  -1.14357
  Beta  occ. eigenvalues --   -1.14334  -1.14310  -1.14284  -1.14219  -1.14199
  Beta  occ. eigenvalues --   -1.14150  -1.13395  -1.13387  -1.13300  -1.13166
  Beta  occ. eigenvalues --   -1.13106  -1.13103  -1.12826  -1.12815  -1.12810
  Beta  occ. eigenvalues --   -0.15772  -0.13804  -0.11969
  Beta virt. eigenvalues --   -0.07408  -0.07147  -0.04730  -0.04231  -0.03343
  Beta virt. eigenvalues --   -0.02857  -0.02588  -0.01907  -0.01254  -0.00636
  Beta virt. eigenvalues --   -0.00379  -0.00320  -0.00252   0.00279   0.00561
  Beta virt. eigenvalues --    0.00638   0.00678   0.01016   0.01046   0.01197
  Beta virt. eigenvalues --    0.01424   0.01554   0.01627   0.01774   0.01799
  Beta virt. eigenvalues --    0.01866   0.02016   0.02154   0.02204   0.02261
  Beta virt. eigenvalues --    0.02340   0.02546   0.02622   0.02772   0.02798
  Beta virt. eigenvalues --    0.02944   0.03068   0.03203   0.03265   0.03554
  Beta virt. eigenvalues --    0.03620   0.03683   0.03787   0.03914   0.04027
  Beta virt. eigenvalues --    0.04252   0.04504   0.04880   0.05016   0.05235
  Beta virt. eigenvalues --    0.05447   0.06108   0.06298   0.06758   0.06841
  Beta virt. eigenvalues --    0.07204   0.07344   0.07601   0.07946   0.08070
  Beta virt. eigenvalues --    0.08271   0.08329   0.09006   0.09320   0.09578
  Beta virt. eigenvalues --    0.10039   0.10252   0.10560   0.10766   0.11242
  Beta virt. eigenvalues --    0.11685   0.12198   0.12730   0.12925   0.13383
  Beta virt. eigenvalues --    0.13725   0.14555   0.14720   0.15383   0.16633
  Beta virt. eigenvalues --    0.17821   0.26992   0.28140   0.29081   0.29677
  Beta virt. eigenvalues --    0.29880   0.30948   0.31173   0.31646   0.31836
  Beta virt. eigenvalues --    0.32457   0.33387   0.34333   0.34576   0.34799
  Beta virt. eigenvalues --    0.35135   0.36125   0.36487   0.38023   0.38510
  Beta virt. eigenvalues --    0.39570   0.40329   0.40989   0.41227   0.42549
  Beta virt. eigenvalues --    0.42679   0.42981   0.43245   0.43623   0.43874
  Beta virt. eigenvalues --    0.44201   0.44469   0.44662   0.44920   0.45189
  Beta virt. eigenvalues --    0.45424   0.45784   0.46236   0.47272   0.47557
  Beta virt. eigenvalues --    0.48308   0.49269   0.49377   0.49912   0.50429
  Beta virt. eigenvalues --    0.50852   0.51270   0.52017   0.52523   0.53042
  Beta virt. eigenvalues --    0.53789   0.54359   0.55118   0.56689   0.63345
  Beta virt. eigenvalues --    0.75467   0.78477   2.04036   2.07133   2.08036
  Beta virt. eigenvalues --    2.11668   2.13664   2.14504   2.16751   4.41928
  Beta virt. eigenvalues --    4.43080   4.43405   4.43568   4.43798   4.44037
  Beta virt. eigenvalues --    4.44627   4.45121   4.45382   4.46179   4.46410
  Beta virt. eigenvalues --    4.46715   4.46921   4.47134   4.47873   4.48679
  Beta virt. eigenvalues --    4.49337   4.50989   4.55980   4.69417   4.72289
  Beta virt. eigenvalues --   96.23551  96.27239  96.28514  96.32579  96.35713
  Beta virt. eigenvalues --   96.37738  96.39802
          Condensed to atoms (all electrons):
               1          2          3          4          5          6
     1  Na  11.365744  -0.269000  -0.064988   0.191712   0.031076  -0.152277
     2  Na  -0.269000  11.366675   0.003538   0.057254   0.125820  -0.214037
     3  Na  -0.064988   0.003538  11.083308  -0.016646  -0.098142   0.170835
     4  Na   0.191712   0.057254  -0.016646  10.558530  -0.025583   0.086783
     5  Na   0.031076   0.125820  -0.098142  -0.025583  10.754295  -0.335918
     6  Na  -0.152277  -0.214037   0.170835   0.086783  -0.335918  11.946319
     7  Na  -0.186293   0.197500  -0.113653   0.042647  -0.028665   0.142187
               7
     1  Na  -0.186293
     2  Na   0.197500
     3  Na  -0.113653
     4  Na   0.042647
     5  Na  -0.028665
     6  Na   0.142187
     7  Na  10.836828
          Atomic-Atomic Spin Densities.
               1          2          3          4          5          6
     1  Na   0.168617   0.058068   0.060934  -0.042859   0.011837  -0.114416
     2  Na   0.058068  -0.217892   0.156056   0.047150  -0.039443  -0.063835
     3  Na   0.060934   0.156056   0.503585  -0.002949  -0.045106  -0.198608
     4  Na  -0.042859   0.047150  -0.002949  -0.010798  -0.004969   0.012313
     5  Na   0.011837  -0.039443  -0.045106  -0.004969   0.122665   0.044446
     6  Na  -0.114416  -0.063835  -0.198608   0.012313   0.044446   0.450660
     7  Na  -0.085441  -0.040822  -0.095718   0.041806   0.008080   0.072600
               7
     1  Na  -0.085441
     2  Na  -0.040822
     3  Na  -0.095718
     4  Na   0.041806
     5  Na   0.008080
     6  Na   0.072600
     7  Na   0.424911
 Mulliken charges and spin densities:
               1          2
     1  Na   0.084026   0.056741
     2  Na  -0.267750  -0.100718
     3  Na   0.035749   0.378195
     4  Na   0.105303   0.039694
     5  Na   0.577117   0.097511
     6  Na  -0.643893   0.203159
     7  Na   0.109449   0.325418
 Sum of Mulliken charges =  -0.00000   1.00000
 Mulliken charges and spin densities with hydrogens summed into heavy atoms:
               1          2
     1  Na   0.084026   0.056741
     2  Na  -0.267750  -0.100718
     3  Na   0.035749   0.378195
     4  Na   0.105303   0.039694
     5  Na   0.577117   0.097511
     6  Na  -0.643893   0.203159
     7  Na   0.109449   0.325418
 Electronic spatial extent (au):  <R**2>=           3958.2106
 Charge=              0.0000 electrons
 Dipole moment (field-independent basis, Debye):
    X=             -1.6904    Y=             -0.6747    Z=              0.0630  Tot=              1.8211
 Quadrupole moment (field-independent basis, Debye-Ang):
   XX=            -51.5600   YY=            -77.6281   ZZ=            -70.9991
   XY=             -5.0287   XZ=              3.3075   YZ=             -0.9740
 Traceless Quadrupole moment (field-independent basis, Debye-Ang):
   XX=             15.1691   YY=            -10.8990   ZZ=             -4.2700
   XY=             -5.0287   XZ=              3.3075   YZ=             -0.9740
 Octapole moment (field-independent basis, Debye-Ang**2):
  XXX=            -50.9853  YYY=             -0.0852  ZZZ=              2.6251  XYY=            -10.3589
  XXY=            -14.1523  XXZ=             -1.5428  XZZ=             -2.3671  YZZ=             -3.4141
  YYZ=             -5.2184  XYZ=              2.4009
 Hexadecapole moment (field-independent basis, Debye-Ang**3):
 XXXX=          -3252.8323 YYYY=          -2198.2625 ZZZZ=           -633.6770 XXXY=           -172.4076
 XXXZ=             58.6207 YYYX=            -20.5284 YYYZ=             -5.5187 ZZZX=             22.6639
 ZZZY=             -0.3550 XXYY=          -1028.5912 XXZZ=           -784.1960 YYZZ=           -460.4913
 XXYZ=              6.5431 YYXZ=             17.5910 ZZXY=             -3.6182
 N-N= 2.758346509409D+02 E-N=-3.280585604581D+03  KE= 1.132874592984D+03
                          Isotropic Fermi Contact Couplings
        Atom                 a.u.       MegaHertz       Gauss      10(-4) cm-1
     1  Na(23)             0.08788     103.96200      37.09623      34.67799
     2  Na(23)            -0.11023    -130.40414     -46.53144     -43.49814
     3  Na(23)             0.33666     398.27977     142.11612     132.85183
     4  Na(23)            -0.04293     -50.79188     -18.12380     -16.94235
     5  Na(23)             0.16706     197.64052      70.52305      65.92578
     6  Na(23)             0.04309      50.98003      18.19094      17.00511
     7  Na(23)             0.24684     292.01630     104.19868      97.40615
 --------------------------------------------------------
       Center         ----  Spin Dipole Couplings  ----
                      3XX-RR        3YY-RR        3ZZ-RR
 --------------------------------------------------------
     1   Atom       -0.002890      0.001777      0.001113
     2   Atom        0.033142     -0.019988     -0.013154
     3   Atom        0.006986     -0.002710     -0.004275
     4   Atom        0.001986      0.003762     -0.005748
     5   Atom       -0.007892      0.005426      0.002466
     6   Atom        0.025438     -0.014115     -0.011323
     7   Atom       -0.004753      0.002354      0.002399
 --------------------------------------------------------
                        XY            XZ            YZ
 --------------------------------------------------------
     1   Atom       -0.000285     -0.002095     -0.000377
     2   Atom       -0.001841      0.020402     -0.000927
     3   Atom        0.005778     -0.003295     -0.000140
     4   Atom        0.012647      0.008326      0.009537
     5   Atom       -0.009427      0.007960     -0.010066
     6   Atom        0.012873     -0.019085     -0.002574
     7   Atom        0.005523     -0.005373      0.003289
 --------------------------------------------------------


 ---------------------------------------------------------------------------------
              Anisotropic Spin Dipole Couplings in Principal Axis System
 ---------------------------------------------------------------------------------

       Atom             a.u.   MegaHertz   Gauss  10(-4) cm-1        Axes

              Baa    -0.0038    -0.539    -0.192    -0.180  0.9158  0.0733  0.3949
     1 Na(23) Bbb     0.0017     0.233     0.083     0.078 -0.2737  0.8334  0.4802
              Bcc     0.0022     0.306     0.109     0.102 -0.2939 -0.5478  0.7833
 
              Baa    -0.0209    -2.954    -1.054    -0.985 -0.3351  0.2444  0.9099
     2 Na(23) Bbb    -0.0200    -2.825    -1.008    -0.942  0.1169  0.9691 -0.2172
              Bcc     0.0409     5.778     2.062     1.927  0.9349 -0.0336  0.3533
 
              Baa    -0.0064    -0.907    -0.324    -0.303 -0.4336  0.6513 -0.6227
     3 Na(23) Bbb    -0.0039    -0.550    -0.196    -0.184 -0.1143  0.6457  0.7550
              Bcc     0.0103     1.457     0.520     0.486  0.8938  0.3985 -0.2056
 
              Baa    -0.0117    -1.654    -0.590    -0.552 -0.1407 -0.4336  0.8901
     4 Na(23) Bbb    -0.0097    -1.374    -0.490    -0.458  0.7766 -0.6060 -0.1724
              Bcc     0.0214     3.028     1.080     1.010  0.6141  0.6669  0.4220
 
              Baa    -0.0134    -1.895    -0.676    -0.632  0.9125  0.3208 -0.2540
     5 Na(23) Bbb    -0.0062    -0.879    -0.314    -0.293 -0.0151  0.6466  0.7626
              Bcc     0.0196     2.774     0.990     0.925 -0.4089  0.6921 -0.5949
 
              Baa    -0.0212    -2.993    -1.068    -0.998  0.4420 -0.5447  0.7127
     6 Na(23) Bbb    -0.0156    -2.205    -0.787    -0.735  0.0260  0.8019  0.5968
              Bcc     0.0368     5.198     1.855     1.734  0.8966  0.2453 -0.3687
 
              Baa    -0.0108    -1.521    -0.543    -0.507  0.7880 -0.4395  0.4311
     7 Na(23) Bbb     0.0051     0.721     0.257     0.240 -0.6130 -0.4956  0.6153
              Bcc     0.0057     0.801     0.286     0.267  0.0568  0.7492  0.6600
 

 ---------------------------------------------------------------------------------

 No NMR shielding tensors so no spin-rotation constants.
 Leave Link  601 at Sun Dec  3 17:34:11 2023, MaxMem=  1879048192 cpu:               2.3 elap:               0.2
 (Enter /home/sekinelabo/g16/l701.exe)
 ... and contract with generalized density number  0.
 Compute integral first derivatives.
 Leave Link  701 at Sun Dec  3 17:34:11 2023, MaxMem=  1879048192 cpu:               1.7 elap:               0.1
 (Enter /home/sekinelabo/g16/l702.exe)
 L702 exits ... SP integral derivatives will be done elsewhere.
 Leave Link  702 at Sun Dec  3 17:34:11 2023, MaxMem=  1879048192 cpu:               0.4 elap:               0.0
 (Enter /home/sekinelabo/g16/l703.exe)
 Integral derivatives from FoFJK, PRISM(SPDF).
 Compute integral first derivatives, UseDBF=F ICtDFT=           0.
 Calling FoFJK, ICntrl=      2127 FMM=F ISym2X=0 I1Cent= 0 IOpClX= 1 NMat=1 NMatS=1 NMatT=0.
 FoFJK:  IHMeth= 1 ICntrl=    2127 DoSepK=F KAlg= 0 I1Cent=           0 FoldK=F
 IRaf=         0 NMat=       1 IRICut=       1 DoRegI=T DoRafI=F ISym2E= 0 IDoP0=0 IntGTp=1.
 FoFCou: FMM=F IPFlag=           0 FMFlag=      100000 FMFlg1=         800
         NFxFlg=           0 DoJE=F BraDBF=F KetDBF=F FulRan=T
         wScrn=  0.000000 ICntrl=      2127 IOpCl=  1 I1Cent=           0 NGrid=           0
         NMat0=    1 NMatS0=      1 NMatT0=    0 NMatD0=    1 NMtDS0=    0 NMtDT0=    0
 Symmetry not used in FoFCou.
 Leave Link  703 at Sun Dec  3 17:34:13 2023, MaxMem=  1879048192 cpu:              29.9 elap:               2.0
 (Enter /home/sekinelabo/g16/l716.exe)
 Dipole        =-6.65040271D-01-2.65429998D-01 2.47688588D-02
 ***** Axes restored to original set *****
 -------------------------------------------------------------------
 Center     Atomic                   Forces (Hartrees/Bohr)
 Number     Number              X              Y              Z
 -------------------------------------------------------------------
      1       11          -0.007039619   -0.003476709    0.002791067
      2       11          -0.002034305    0.000016546    0.000956612
      3       11           0.002114328    0.003911293   -0.000723294
      4       11           0.005277263    0.001604501   -0.004548763
      5       11          -0.003978337   -0.004373640   -0.000143836
      6       11           0.006119451    0.003205887    0.000926621
      7       11          -0.000458782   -0.000887877    0.000741593
 -------------------------------------------------------------------
 Cartesian Forces:  Max     0.007039619 RMS     0.003316653
 Z-matrix is all fixed cartesians, so copy forces.
 Force constants in Cartesian coordinates: 
                1             2             3             4             5 
      1  0.410536D-01
      2  0.191278D-01  0.232427D-01
      3 -0.106680D-01 -0.426994D-02  0.377067D-01
      4 -0.281764D-04  0.453408D-04 -0.385463D-04  0.248095D-01
      5  0.140483D-04 -0.154605D-04  0.105872D-04 -0.795595D-03  0.370601D-01
      6  0.651342D-05  0.347409D-04 -0.457138D-04 -0.767429D-02  0.368542D-03
      7  0.140769D-02 -0.271852D-02  0.125627D-04 -0.102353D-01 -0.256297D-02
      8  0.415977D-03 -0.810474D-03  0.718445D-05  0.818828D-02 -0.192895D-01
      9  0.167807D-02 -0.315412D-02 -0.270899D-04  0.939299D-03  0.251782D-02
     10 -0.337858D-01 -0.197984D-01  0.532369D-02  0.914589D-03 -0.681609D-03
     11 -0.174041D-01 -0.175234D-01 -0.162915D-02  0.162584D-02 -0.133121D-02
     12  0.138086D-01  0.482595D-02 -0.233120D-01 -0.300813D-03  0.272000D-03
     13 -0.259921D-03 -0.118680D-02  0.818439D-03 -0.942472D-03  0.155038D-02
     14  0.279328D-03  0.117368D-02 -0.830108D-03 -0.214261D-02  0.343598D-02
     15 -0.237676D-02 -0.389853D-02  0.410432D-02  0.939744D-03 -0.102315D-02
     16 -0.873138D-02  0.241466D-02  0.630020D-03 -0.183691D-02  0.335901D-02
     17 -0.197603D-02 -0.911736D-02  0.349758D-02 -0.790031D-03  0.141182D-02
     18 -0.276275D-02  0.687341D-02 -0.186394D-01  0.805347D-03 -0.107480D-02
     19  0.344020D-03  0.211594D-02  0.392182D-02 -0.126812D-01 -0.883262D-03
     20 -0.456988D-03  0.305036D-02  0.321384D-02 -0.613123D-02 -0.212717D-01
     21  0.314273D-03 -0.411503D-03  0.213266D-03  0.532926D-02 -0.107100D-02
                6             7             8             9            10 
      6  0.922148D-02
      7  0.225469D-02  0.284900D-01
      8 -0.252272D-03 -0.162587D-02  0.435049D-01
      9 -0.412618D-02 -0.540720D-03 -0.275276D-02  0.110874D-01
     10 -0.189013D-02  0.245860D-05  0.888457D-05 -0.793927D-04  0.394856D-01
     11 -0.420578D-02 -0.284350D-04 -0.168429D-04  0.621198D-04  0.231852D-01
     12  0.959975D-03 -0.980990D-05  0.000000D+00 -0.293507D-04 -0.974557D-02
     13 -0.812041D-04 -0.158837D-01 -0.716326D-02  0.139865D-02  0.408909D-04
     14 -0.360956D-03  0.110230D-01 -0.102487D-01  0.576917D-03 -0.381894D-04
     15  0.112097D-02  0.847835D-03  0.216233D-02 -0.322393D-02 -0.194541D-04
     16  0.512716D-03 -0.602778D-02  0.416054D-02 -0.301473D-02 -0.862385D-03
     17  0.155175D-03 -0.300171D-02 -0.151129D-01  0.246989D-02 -0.121197D-02
     18  0.566779D-03 -0.208756D-02 -0.351003D-03 -0.444062D-02  0.139076D-02
     19  0.687171D-02  0.224658D-02 -0.398455D-02 -0.381179D-03 -0.579528D-02
     20  0.426055D-02 -0.108549D-02  0.197346D-02  0.280128D-03 -0.146388D-02
     21 -0.769731D-02 -0.476996D-03  0.118723D-02  0.759815D-03  0.502010D-02
               11            12            13            14            15 
     11  0.266165D-01
     12  0.328917D-02  0.276338D-01
     13 -0.742059D-04 -0.194954D-05  0.469784D-01
     14  0.693035D-04  0.182075D-05  0.159152D-01  0.379677D-01
     15  0.353038D-04  0.000000D+00 -0.245069D-03 -0.137754D-02  0.960394D-02
     16 -0.830320D-03 -0.340138D-02 -0.299281D-01 -0.250309D-01  0.882427D-03
     17  0.450977D-03 -0.245501D-02 -0.904120D-02 -0.323978D-01  0.410245D-02
     18  0.552734D-03  0.435530D-02 -0.187146D-02  0.200984D-02 -0.115080D-01
     19 -0.647394D-02 -0.349114D-03 -0.509126D-05 -0.584282D-05 -0.287254D-04
     20 -0.826533D-02 -0.593321D-02  0.000000D+00  0.000000D+00  0.000000D+00
     21  0.189560D-02 -0.960862D-02 -0.174052D-04 -0.199745D-04 -0.982020D-04
               16            17            18            19            20 
     16  0.475430D-01
     17  0.157494D-01  0.550880D-01
     18  0.454130D-02 -0.800102D-02  0.297377D-01
     19 -0.156399D-03  0.271559D-03 -0.156342D-04  0.160474D-01
     20  0.177648D-03 -0.322751D-03 -0.916295D-05  0.896009D-02  0.248362D-01
     21 -0.150353D-03  0.230929D-03 -0.717707D-04 -0.100189D-01 -0.181128D-02
               21 
     21  0.165028D-01
 Leave Link  716 at Sun Dec  3 17:34:13 2023, MaxMem=  1879048192 cpu:               0.4 elap:               0.0
 (Enter /home/sekinelabo/g16/l103.exe)

 GradGradGradGradGradGradGradGradGradGradGradGradGradGradGradGradGradGrad
 Berny optimization.
 Search for a local minimum.
 Step number   1 out of a maximum of    2
 All quantities printed in internal units (Hartrees-Bohrs-Radians)
 Second derivative matrix not updated -- first step.
 ITU=  0
     Eigenvalues ---    0.00467   0.00684   0.00982   0.01238   0.01446
     Eigenvalues ---    0.01618   0.01917   0.03324   0.04389   0.05029
     Eigenvalues ---    0.05746   0.06875   0.07444   0.10530   0.11619
 Quadratic step=3.680D-01 exceeds max=3.000D-01 adjusted using Lamda=-2.549D-03.
 Angle between NR and scaled steps=   8.28 degrees.
 Angle between quadratic step and forces=  47.52 degrees.
 Linear search not attempted -- first point.
 B after Tr=     0.000000    0.000000    0.000000
         Rot=    1.000000   -0.000000   -0.000000   -0.000000 Ang=   0.00 deg.
 Variable       Old X    -DE/DX   Delta X   Delta X   Delta X     New X
                                 (Linear)    (Quad)   (Total)
    X1       23.99064  -0.00704   0.00000  -0.09527  -0.09527  23.89537
    Y1       27.21829  -0.00348   0.00000  -0.03678  -0.03678  27.18151
    Z1       28.84818   0.00279   0.00000   0.02211   0.02211  28.87029
    X2       28.35213  -0.00203   0.00000  -0.09764  -0.09764  28.25448
    Y2       21.39208   0.00002   0.00000   0.02183   0.02183  21.41391
    Z2       21.34351   0.00096   0.00000   0.05485   0.05485  21.39836
    X3       22.08277   0.00211   0.00000   0.10498   0.10498  22.18775
    Y3       17.67871   0.00391   0.00000   0.12256   0.12256  17.80127
    Z3       23.20999  -0.00072   0.00000   0.00799   0.00799  23.21798
    X4       28.40769   0.00528   0.00000   0.04266   0.04266  28.45035
    Y4       29.69761   0.00160   0.00000  -0.06698  -0.06698  29.63063
    Z4       27.12305  -0.00455   0.00000  -0.07303  -0.07303  27.05002
    X5       15.54912  -0.00398   0.00000   0.04087   0.04087  15.58999
    Y5       20.78359  -0.00437   0.00000  -0.03501  -0.03501  20.74858
    Z5       23.73647  -0.00014   0.00000  -0.05442  -0.05442  23.68206
    X6       19.29259   0.00612   0.00000   0.08604   0.08604  19.37863
    Y6       24.76222   0.00321   0.00000   0.05251   0.05251  24.81472
    Z6       23.79468   0.00093   0.00000   0.04761   0.04761  23.84229
    X7       30.92291  -0.00046   0.00000  -0.08163  -0.08163  30.84128
    Y7       27.06504  -0.00089   0.00000  -0.05813  -0.05813  27.00691
    Z7       20.54170   0.00074   0.00000  -0.00511  -0.00511  20.53659
         Item               Value     Threshold  Converged?
 Maximum Force            0.007040     0.000450     NO 
 RMS     Force            0.003317     0.000300     NO 
 Maximum Displacement     0.122561     0.001800     NO 
 RMS     Displacement     0.065478     0.001200     NO 
 Predicted change in Energy=-1.654595D-03
 GradGradGradGradGradGradGradGradGradGradGradGradGradGradGradGradGradGrad

 Leave Link  103 at Sun Dec  3 17:34:13 2023, MaxMem=  1879048192 cpu:               0.3 elap:               0.0
 (Enter /home/sekinelabo/g16/l9999.exe)
 1\1\GINC-SEKINELABO-XA7R-R37\Force\UB3LYP\6-311+G(d)\Na7(2)\SEKINELABO
 \03-Dec-2023\0\\#P B3LYP/6-311+g(d) force\\DPGEN\\0,2\Na,12.6953,14.40
 33,15.2658\Na,15.0033,11.3202,11.2945\Na,11.6857,9.35517,12.2822\Na,15
 .0327,15.7153,14.3529\Na,8.22824,10.9982,12.5608\Na,10.2092,13.1036,12
 .5916\Na,16.3637,14.3222,10.8702\\Version=ES64L-G16RevB.01\State=2-A\H
 F=-1136.1056154\S2=0.79635\S2-1=0.\S2A=0.751001\RMSD=8.690e-09\RMSF=3.
 317e-03\Dipole=-0.6844104,-0.1624761,0.1361214\Quadrupole=2.6843893,3.
 1961684,-5.8805576,9.4442154,2.0464652,-1.6222069\PG=C01 [X(Na7)]\\@


 NO HUMAN INVESTIGATION CAN BECOME REAL SCIENCE
 WITHOUT GOING THROUGH MATHEMATICAL PEOPLE.
 -- LEONARDO DA VINCI, IN "PENSIERI" CA. 1492
 Job cpu time:       0 days  0 hours  3 minutes 43.3 seconds.
 Elapsed time:       0 days  0 hours  0 minutes 19.3 seconds.
 File lengths (MBytes):  RWF=     32 Int=      0 D2E=      0 Chk=      4 Scr=      1
 Normal termination of Gaussian 16 at Sun Dec  3 17:34:13 2023.
