 Set GAUSS_MDEF to "14GB".
 Entering Gaussian System, Link 0=g16
 Initial command:
 /home/sekinelabo/g16/l1.exe "/home/sekinelabo/g16temp/Gau-197980.inp" -scrdir="/home/sekinelabo/g16temp/"
 Entering Link 1 = /home/sekinelabo/g16/l1.exe PID=    197982.
  
 Copyright (c) 1988-2017, Gaussian, Inc.  All Rights Reserved.
  
 This is part of the Gaussian(R) 16 program.  It is based on
 the Gaussian(R) 09 system (copyright 2009, Gaussian, Inc.),
 the Gaussian(R) 03 system (copyright 2003, Gaussian, Inc.),
 the Gaussian(R) 98 system (copyright 1998, Gaussian, Inc.),
 the Gaussian(R) 94 system (copyright 1995, Gaussian, Inc.),
 the Gaussian 92(TM) system (copyright 1992, Gaussian, Inc.),
 the Gaussian 90(TM) system (copyright 1990, Gaussian, Inc.),
 the Gaussian 88(TM) system (copyright 1988, Gaussian, Inc.),
 the Gaussian 86(TM) system (copyright 1986, Carnegie Mellon
 University), and the Gaussian 82(TM) system (copyright 1983,
 Carnegie Mellon University). Gaussian is a federally registered
 trademark of Gaussian, Inc.
  
 This software contains proprietary and confidential information,
 including trade secrets, belonging to Gaussian, Inc.
  
 This software is provided under written license and may be
 used, copied, transmitted, or stored only in accord with that
 written license.
  
 The following legend is applicable only to US Government
 contracts under FAR:
  
                    RESTRICTED RIGHTS LEGEND
  
 Use, reproduction and disclosure by the US Government is
 subject to restrictions as set forth in subparagraphs (a)
 and (c) of the Commercial Computer Software - Restricted
 Rights clause in FAR 52.227-19.
  
 Gaussian, Inc.
 340 Quinnipiac St., Bldg. 40, Wallingford CT 06492
  
  
 ---------------------------------------------------------------
 Warning -- This program may not be used in any manner that
 competes with the business of Gaussian, Inc. or will provide
 assistance to any competitor of Gaussian, Inc.  The licensee
 of this program is prohibited from giving any competitor of
 Gaussian, Inc. access to this program.  By using this program,
 the user acknowledges that Gaussian, Inc. is engaged in the
 business of creating and licensing software in the field of
 computational chemistry and represents and warrants to the
 licensee that it is not a competitor of Gaussian, Inc. and that
 it will not use this program in any manner prohibited above.
 ---------------------------------------------------------------
  

 Cite this work as:
 Gaussian 16, Revision B.01,
 M. J. Frisch, G. W. Trucks, H. B. Schlegel, G. E. Scuseria, 
 M. A. Robb, J. R. Cheeseman, G. Scalmani, V. Barone, 
 G. A. Petersson, H. Nakatsuji, X. Li, M. Caricato, A. V. Marenich, 
 J. Bloino, B. G. Janesko, R. Gomperts, B. Mennucci, H. P. Hratchian, 
 J. V. Ortiz, A. F. Izmaylov, J. L. Sonnenberg, D. Williams-Young, 
 F. Ding, F. Lipparini, F. Egidi, J. Goings, B. Peng, A. Petrone, 
 T. Henderson, D. Ranasinghe, V. G. Zakrzewski, J. Gao, N. Rega, 
 G. Zheng, W. Liang, M. Hada, M. Ehara, K. Toyota, R. Fukuda, 
 J. Hasegawa, M. Ishida, T. Nakajima, Y. Honda, O. Kitao, H. Nakai, 
 T. Vreven, K. Throssell, J. A. Montgomery, Jr., J. E. Peralta, 
 F. Ogliaro, M. J. Bearpark, J. J. Heyd, E. N. Brothers, K. N. Kudin, 
 V. N. Staroverov, T. A. Keith, R. Kobayashi, J. Normand, 
 K. Raghavachari, A. P. Rendell, J. C. Burant, S. S. Iyengar, 
 J. Tomasi, M. Cossi, J. M. Millam, M. Klene, C. Adamo, R. Cammi, 
 J. W. Ochterski, R. L. Martin, K. Morokuma, O. Farkas, 
 J. B. Foresman, and D. J. Fox, Gaussian, Inc., Wallingford CT, 2016.
 
 ******************************************
 Gaussian 16:  ES64L-G16RevB.01 20-Dec-2017
                28-Nov-2023 
 ******************************************
 %nproc=15
 Will use up to   15 processors via shared memory.
 -------------------------
 #P B3LYP/6-311+g(d) force
 -------------------------
 1/10=7,30=1,38=1/1,3;
 2/12=2,17=6,18=5,40=1/2;
 3/5=4,6=6,7=11,11=2,25=1,30=1,71=1,74=-5/1,2,3;
 4//1;
 5/5=2,38=5/2;
 6/7=2,8=2,9=2,10=2,28=1/1;
 7/29=1/1,2,3,16;
 1/10=7,30=1/3;
 99//99;
 Leave Link    1 at Tue Nov 28 23:31:07 2023, MaxMem=           0 cpu:               0.3 elap:               0.0
 (Enter /home/sekinelabo/g16/l101.exe)
 -----
 DPGEN
 -----
 Symbolic Z-matrix:
 Charge =  0 Multiplicity = 2
 Na                    14.4898   15.9337   13.1005 
 Na                    12.8089   13.002    11.0974 
 Na                    15.6518   11.7636   11.1709 
 Na                    15.526    13.7581   15.3325 
 Na                    14.3409   16.445    16.3498 
 Na                    17.8006   18.167    18.8223 
 Na                    16.8075   18.3561   21.5521 
 
 ITRead=  0  0  0  0  0  0  0
 MicOpt= -1 -1 -1 -1 -1 -1 -1
 NAtoms=      7 NQM=        7 NQMF=       0 NMMI=      0 NMMIF=      0
                NMic=       0 NMicF=      0.
                    Isotopes and Nuclear Properties:
 (Nuclear quadrupole moments (NQMom) in fm**2, nuclear magnetic moments (NMagM)
  in nuclear magnetons)

  Atom         1           2           3           4           5           6           7
 IAtWgt=          23          23          23          23          23          23          23
 AtmWgt=  22.9897697  22.9897697  22.9897697  22.9897697  22.9897697  22.9897697  22.9897697
 NucSpn=           3           3           3           3           3           3           3
 AtZEff=  -0.0000000  -0.0000000  -0.0000000  -0.0000000  -0.0000000  -0.0000000  -0.0000000
 NQMom=   10.4000000  10.4000000  10.4000000  10.4000000  10.4000000  10.4000000  10.4000000
 NMagM=    2.2175200   2.2175200   2.2175200   2.2175200   2.2175200   2.2175200   2.2175200
 AtZNuc=  11.0000000  11.0000000  11.0000000  11.0000000  11.0000000  11.0000000  11.0000000
 Leave Link  101 at Tue Nov 28 23:31:08 2023, MaxMem=  1879048192 cpu:               2.4 elap:               0.2
 (Enter /home/sekinelabo/g16/l103.exe)

 GradGradGradGradGradGradGradGradGradGradGradGradGradGradGradGradGradGrad
 Berny optimization.
 Initialization pass.
 Trust Radius=3.00D-01 FncErr=1.00D-07 GrdErr=1.00D-07 EigMax=2.50D+02 EigMin=1.00D-04
 Number of steps in this run=      2 maximum allowed number of steps=      2.
 GradGradGradGradGradGradGradGradGradGradGradGradGradGradGradGradGradGrad

 Leave Link  103 at Tue Nov 28 23:31:08 2023, MaxMem=  1879048192 cpu:               0.2 elap:               0.0
 (Enter /home/sekinelabo/g16/l202.exe)
                          Input orientation:                          
 ---------------------------------------------------------------------
 Center     Atomic      Atomic             Coordinates (Angstroms)
 Number     Number       Type             X           Y           Z
 ---------------------------------------------------------------------
      1         11           0       14.489800   15.933700   13.100500
      2         11           0       12.808900   13.002000   11.097400
      3         11           0       15.651800   11.763600   11.170900
      4         11           0       15.526000   13.758100   15.332500
      5         11           0       14.340900   16.445000   16.349800
      6         11           0       17.800600   18.167000   18.822300
      7         11           0       16.807500   18.356100   21.552100
 ---------------------------------------------------------------------
                    Distance matrix (angstroms):
                    1          2          3          4          5
     1  Na   0.000000
     2  Na   3.928447   0.000000
     3  Na   4.739550   3.101793   0.000000
     4  Na   3.284626   5.088260   4.616576   0.000000
     5  Na   3.292651   6.464440   7.103166   3.107860   0.000000
     6  Na   6.977680  10.548383  10.206116   6.065551   4.587817
     7  Na   9.092266  12.407898  12.351762   7.840107   6.066329
                    6          7
     6  Na   0.000000
     7  Na   2.910982   0.000000
 Stoichiometry    Na7(2)
 Framework group  C1[X(Na7)]
 Deg. of freedom    15
 Full point group                 C1      NOp   1
 Largest Abelian subgroup         C1      NOp   1
 Largest concise Abelian subgroup C1      NOp   1
                         Standard orientation:                         
 ---------------------------------------------------------------------
 Center     Atomic      Atomic             Coordinates (Angstroms)
 Number     Number       Type             X           Y           Z
 ---------------------------------------------------------------------
      1         11           0       -1.774905   -1.316049    1.113993
      2         11           0       -5.339316   -1.099451   -0.523309
      3         11           0       -5.168601    1.888560    0.291409
      4         11           0       -0.766937    1.107307   -0.860877
      5         11           0        1.120712   -1.327762   -0.453429
      6         11           0        4.921141    0.644711    1.194041
      7         11           0        7.007907    0.102683   -0.761829
 ---------------------------------------------------------------------
 Rotational constants (GHZ):           1.5186417           0.1591822           0.1532239
 Leave Link  202 at Tue Nov 28 23:31:08 2023, MaxMem=  1879048192 cpu:               0.0 elap:               0.0
 (Enter /home/sekinelabo/g16/l301.exe)
 Standard basis: 6-311+G(d) (5D, 7F)
 Ernie: Thresh=  0.10000D-02 Tol=  0.10000D-05 Strict=F.
 There are   217 symmetry adapted cartesian basis functions of A   symmetry.
 There are   210 symmetry adapted basis functions of A   symmetry.
   210 basis functions,   350 primitive gaussians,   217 cartesian basis functions
    39 alpha electrons       38 beta electrons
       nuclear repulsion energy       259.5065779560 Hartrees.
 IExCor=  402 DFT=T Ex+Corr=B3LYP ExCW=0 ScaHFX=  0.200000
 ScaDFX=  0.800000  0.720000  1.000000  0.810000 ScalE2=  1.000000  1.000000
 IRadAn=      5 IRanWt=     -1 IRanGd=            0 ICorTp=0 IEmpDi=  4
 NAtoms=    7 NActive=    7 NUniq=    7 SFac= 1.00D+00 NAtFMM=   60 NAOKFM=F Big=F
 Integral buffers will be    131072 words long.
 Raffenetti 2 integral format.
 Two-electron integral symmetry is turned on.
 Leave Link  301 at Tue Nov 28 23:31:08 2023, MaxMem=  1879048192 cpu:               0.5 elap:               0.0
 (Enter /home/sekinelabo/g16/l302.exe)
 NPDir=0 NMtPBC=     1 NCelOv=     1 NCel=       1 NClECP=     1 NCelD=      1
         NCelK=      1 NCelE2=     1 NClLst=     1 CellRange=     0.0.
 One-electron integrals computed using PRISM.
 One-electron integral symmetry used in STVInt
 NBasis=   210 RedAO= T EigKep=  7.62D-06  NBF=   210
 NBsUse=   210 1.00D-06 EigRej= -1.00D+00 NBFU=   210
 Precomputing XC quadrature grid using
 IXCGrd= 4 IRadAn=           5 IRanWt=          -1 IRanGd=           0 AccXCQ= 0.00D+00.
 Generated NRdTot=       0 NPtTot=           0 NUsed=           0 NTot=          32
 NSgBfM=   199   199   199   199   199 MxSgAt=     7 MxSgA2=     7.
 Leave Link  302 at Tue Nov 28 23:31:08 2023, MaxMem=  1879048192 cpu:               2.0 elap:               0.1
 (Enter /home/sekinelabo/g16/l303.exe)
 DipDrv:  MaxL=1.
 Leave Link  303 at Tue Nov 28 23:31:08 2023, MaxMem=  1879048192 cpu:               0.6 elap:               0.0
 (Enter /home/sekinelabo/g16/l401.exe)
 ExpMin= 7.60D-03 ExpMax= 3.62D+04 ExpMxC= 1.21D+03 IAcc=3 IRadAn=         5 AccDes= 0.00D+00
 Harris functional with IExCor=  402 and IRadAn=       5 diagonalized for initial guess.
 HarFok:  IExCor=  402 AccDes= 0.00D+00 IRadAn=         5 IDoV= 1 UseB2=F ITyADJ=14
 ICtDFT=  3500011 ScaDFX=  1.000000  1.000000  1.000000  1.000000
 FoFCou: FMM=F IPFlag=           0 FMFlag=      100000 FMFlg1=           0
         NFxFlg=           0 DoJE=T BraDBF=F KetDBF=T FulRan=T
         wScrn=  0.000000 ICntrl=       500 IOpCl=  0 I1Cent=   200000004 NGrid=           0
         NMat0=    1 NMatS0=      1 NMatT0=    0 NMatD0=    1 NMtDS0=    0 NMtDT0=    0
 Petite list used in FoFCou.
 Harris En= -1135.87645941699    
 JPrj=0 DoOrth=F DoCkMO=F.
 Initial guess <Sx>= 0.0000 <Sy>= 0.0000 <Sz>= 0.5000 <S**2>= 0.7500 S= 0.5000
 Leave Link  401 at Tue Nov 28 23:31:08 2023, MaxMem=  1879048192 cpu:               4.0 elap:               0.3
 (Enter /home/sekinelabo/g16/l502.exe)
 Keep R1 and R2 ints in memory in canonical form, NReq=506573279.
 FoFCou: FMM=F IPFlag=           0 FMFlag=           0 FMFlg1=           0
         NFxFlg=           0 DoJE=F BraDBF=F KetDBF=F FulRan=T
         wScrn=  0.000000 ICntrl=       600 IOpCl=  0 I1Cent=           0 NGrid=           0
         NMat0=    1 NMatS0=  22155 NMatT0=    0 NMatD0=    1 NMtDS0=    0 NMtDT0=    0
 Symmetry not used in FoFCou.
 Two-electron integral symmetry not used.
 UHF open shell SCF:
 Using DIIS extrapolation, IDIIS=  1040.
 NGot=  1879048192 LenX=  1388082621 LenY=  1388035091
 Requested convergence on RMS density matrix=1.00D-08 within 128 cycles.
 Requested convergence on MAX density matrix=1.00D-06.
 Requested convergence on             energy=1.00D-06.
 No special actions if energy rises.

 Cycle   1  Pass 1  IDiag  1:
 E= -1136.08200645597    
 DIIS: error= 9.90D-03 at cycle   1 NSaved=   1.
 NSaved= 1 IEnMin= 1 EnMin= -1136.08200645597     IErMin= 1 ErrMin= 9.90D-03
 ErrMax= 9.90D-03  0.00D+00 EMaxC= 1.00D-01 BMatC= 1.82D-01 BMatP= 1.82D-01
 IDIUse=3 WtCom= 9.01D-01 WtEn= 9.90D-02
 Coeff-Com:  0.100D+01
 Coeff-En:   0.100D+01
 Coeff:      0.100D+01
 Gap=     0.031 Goal=   None    Shift=    0.000
 Gap=     0.063 Goal=   None    Shift=    0.000
 GapD=    0.031 DampG=0.250 DampE=1.000 DampFc=0.2500 IDamp=-1.
 Damping current iteration by 2.50D-01
 RMSDP=5.15D-03 MaxDP=3.29D-01              OVMax= 1.08D-01

 Cycle   2  Pass 1  IDiag  1:
 E= -1136.08978755672     Delta-E=       -0.007781100750 Rises=F Damp=T
 DIIS: error= 6.97D-03 at cycle   2 NSaved=   2.
 NSaved= 2 IEnMin= 2 EnMin= -1136.08978755672     IErMin= 2 ErrMin= 6.97D-03
 ErrMax= 6.97D-03  0.00D+00 EMaxC= 1.00D-01 BMatC= 7.13D-02 BMatP= 1.82D-01
 IDIUse=3 WtCom= 9.30D-01 WtEn= 6.97D-02
 Coeff-Com: -0.133D+01 0.233D+01
 Coeff-En:   0.000D+00 0.100D+01
 Coeff:     -0.124D+01 0.224D+01
 Gap=     0.036 Goal=   None    Shift=    0.000
 Gap=     0.064 Goal=   None    Shift=    0.000
 RMSDP=3.89D-03 MaxDP=2.56D-01 DE=-7.78D-03 OVMax= 5.39D-02

 Cycle   3  Pass 1  IDiag  1:
 E= -1136.10619404917     Delta-E=       -0.016406492452 Rises=F Damp=F
 DIIS: error= 4.50D-04 at cycle   3 NSaved=   3.
 NSaved= 3 IEnMin= 3 EnMin= -1136.10619404917     IErMin= 3 ErrMin= 4.50D-04
 ErrMax= 4.50D-04  0.00D+00 EMaxC= 1.00D-01 BMatC= 1.66D-04 BMatP= 7.13D-02
 IDIUse=3 WtCom= 9.95D-01 WtEn= 4.50D-03
 Coeff-Com: -0.299D-01 0.477D-01 0.982D+00
 Coeff-En:   0.000D+00 0.000D+00 0.100D+01
 Coeff:     -0.297D-01 0.475D-01 0.982D+00
 Gap=     0.033 Goal=   None    Shift=    0.000
 Gap=     0.064 Goal=   None    Shift=    0.000
 RMSDP=4.22D-04 MaxDP=2.27D-02 DE=-1.64D-02 OVMax= 2.29D-02

 Cycle   4  Pass 1  IDiag  1:
 E= -1136.10625348891     Delta-E=       -0.000059439739 Rises=F Damp=F
 DIIS: error= 3.58D-04 at cycle   4 NSaved=   4.
 NSaved= 4 IEnMin= 4 EnMin= -1136.10625348891     IErMin= 4 ErrMin= 3.58D-04
 ErrMax= 3.58D-04  0.00D+00 EMaxC= 1.00D-01 BMatC= 1.50D-04 BMatP= 1.66D-04
 IDIUse=3 WtCom= 9.96D-01 WtEn= 3.58D-03
 Coeff-Com: -0.473D-02 0.641D-02 0.487D+00 0.511D+00
 Coeff-En:   0.000D+00 0.000D+00 0.357D+00 0.643D+00
 Coeff:     -0.472D-02 0.639D-02 0.486D+00 0.512D+00
 Gap=     0.034 Goal=   None    Shift=    0.000
 Gap=     0.063 Goal=   None    Shift=    0.000
 RMSDP=1.76D-04 MaxDP=1.03D-02 DE=-5.94D-05 OVMax= 1.62D-02

 Cycle   5  Pass 1  IDiag  1:
 E= -1136.10637207564     Delta-E=       -0.000118586726 Rises=F Damp=F
 DIIS: error= 1.16D-04 at cycle   5 NSaved=   5.
 NSaved= 5 IEnMin= 5 EnMin= -1136.10637207564     IErMin= 5 ErrMin= 1.16D-04
 ErrMax= 1.16D-04  0.00D+00 EMaxC= 1.00D-01 BMatC= 5.64D-06 BMatP= 1.50D-04
 IDIUse=3 WtCom= 9.99D-01 WtEn= 1.16D-03
 Coeff-Com:  0.390D-03-0.117D-02 0.909D-01 0.171D+00 0.739D+00
 Coeff-En:   0.000D+00 0.000D+00 0.000D+00 0.000D+00 0.100D+01
 Coeff:      0.390D-03-0.116D-02 0.908D-01 0.171D+00 0.739D+00
 Gap=     0.034 Goal=   None    Shift=    0.000
 Gap=     0.063 Goal=   None    Shift=    0.000
 RMSDP=8.96D-05 MaxDP=7.84D-03 DE=-1.19D-04 OVMax= 8.15D-03

 Cycle   6  Pass 1  IDiag  1:
 E= -1136.10638205244     Delta-E=       -0.000009976806 Rises=F Damp=F
 DIIS: error= 8.22D-05 at cycle   6 NSaved=   6.
 NSaved= 6 IEnMin= 6 EnMin= -1136.10638205244     IErMin= 6 ErrMin= 8.22D-05
 ErrMax= 8.22D-05  0.00D+00 EMaxC= 1.00D-01 BMatC= 2.18D-06 BMatP= 5.64D-06
 IDIUse=1 WtCom= 1.00D+00 WtEn= 0.00D+00
 Coeff-Com:  0.312D-03-0.858D-03-0.257D-01 0.154D-01 0.382D+00 0.629D+00
 Coeff:      0.312D-03-0.858D-03-0.257D-01 0.154D-01 0.382D+00 0.629D+00
 Gap=     0.034 Goal=   None    Shift=    0.000
 Gap=     0.063 Goal=   None    Shift=    0.000
 RMSDP=4.68D-05 MaxDP=2.99D-03 DE=-9.98D-06 OVMax= 5.14D-03

 Cycle   7  Pass 1  IDiag  1:
 E= -1136.10638710594     Delta-E=       -0.000005053499 Rises=F Damp=F
 DIIS: error= 4.69D-05 at cycle   7 NSaved=   7.
 NSaved= 7 IEnMin= 7 EnMin= -1136.10638710594     IErMin= 7 ErrMin= 4.69D-05
 ErrMax= 4.69D-05  0.00D+00 EMaxC= 1.00D-01 BMatC= 4.42D-07 BMatP= 2.18D-06
 IDIUse=1 WtCom= 1.00D+00 WtEn= 0.00D+00
 Coeff-Com: -0.494D-03 0.719D-03-0.484D-01-0.536D-01-0.104D+00 0.234D+00
 Coeff-Com:  0.972D+00
 Coeff:     -0.494D-03 0.719D-03-0.484D-01-0.536D-01-0.104D+00 0.234D+00
 Coeff:      0.972D+00
 Gap=     0.034 Goal=   None    Shift=    0.000
 Gap=     0.063 Goal=   None    Shift=    0.000
 RMSDP=4.86D-05 MaxDP=3.14D-03 DE=-5.05D-06 OVMax= 5.32D-03

 Cycle   8  Pass 1  IDiag  1:
 E= -1136.10638976189     Delta-E=       -0.000002655946 Rises=F Damp=F
 DIIS: error= 1.42D-05 at cycle   8 NSaved=   8.
 NSaved= 8 IEnMin= 8 EnMin= -1136.10638976189     IErMin= 8 ErrMin= 1.42D-05
 ErrMax= 1.42D-05  0.00D+00 EMaxC= 1.00D-01 BMatC= 7.50D-08 BMatP= 4.42D-07
 IDIUse=1 WtCom= 1.00D+00 WtEn= 0.00D+00
 Coeff-Com:  0.721D-03-0.885D-03 0.533D-02 0.167D-02-0.351D-01-0.120D+00
 Coeff-Com: -0.127D+00 0.128D+01
 Coeff:      0.721D-03-0.885D-03 0.533D-02 0.167D-02-0.351D-01-0.120D+00
 Coeff:     -0.127D+00 0.128D+01
 Gap=     0.034 Goal=   None    Shift=    0.000
 Gap=     0.063 Goal=   None    Shift=    0.000
 RMSDP=3.35D-05 MaxDP=2.15D-03 DE=-2.66D-06 OVMax= 3.82D-03

 Cycle   9  Pass 1  IDiag  1:
 E= -1136.10639062170     Delta-E=       -0.000000859809 Rises=F Damp=F
 DIIS: error= 7.82D-06 at cycle   9 NSaved=   9.
 NSaved= 9 IEnMin= 9 EnMin= -1136.10639062170     IErMin= 9 ErrMin= 7.82D-06
 ErrMax= 7.82D-06  0.00D+00 EMaxC= 1.00D-01 BMatC= 3.89D-08 BMatP= 7.50D-08
 IDIUse=1 WtCom= 1.00D+00 WtEn= 0.00D+00
 Coeff-Com:  0.414D-03-0.526D-03 0.164D-01 0.167D-01 0.192D-01-0.124D+00
 Coeff-Com: -0.372D+00 0.615D+00 0.829D+00
 Coeff:      0.414D-03-0.526D-03 0.164D-01 0.167D-01 0.192D-01-0.124D+00
 Coeff:     -0.372D+00 0.615D+00 0.829D+00
 Gap=     0.034 Goal=   None    Shift=    0.000
 Gap=     0.063 Goal=   None    Shift=    0.000
 RMSDP=2.20D-05 MaxDP=1.58D-03 DE=-8.60D-07 OVMax= 1.95D-03

 Cycle  10  Pass 1  IDiag  1:
 E= -1136.10639086818     Delta-E=       -0.000000246484 Rises=F Damp=F
 DIIS: error= 3.55D-06 at cycle  10 NSaved=  10.
 NSaved=10 IEnMin=10 EnMin= -1136.10639086818     IErMin=10 ErrMin= 3.55D-06
 ErrMax= 3.55D-06  0.00D+00 EMaxC= 1.00D-01 BMatC= 6.60D-09 BMatP= 3.89D-08
 IDIUse=1 WtCom= 1.00D+00 WtEn= 0.00D+00
 Coeff-Com: -0.368D-03 0.469D-03 0.183D-02 0.431D-02 0.233D-01 0.107D-01
 Coeff-Com: -0.551D-01-0.283D+00 0.151D+00 0.115D+01
 Coeff:     -0.368D-03 0.469D-03 0.183D-02 0.431D-02 0.233D-01 0.107D-01
 Coeff:     -0.551D-01-0.283D+00 0.151D+00 0.115D+01
 Gap=     0.034 Goal=   None    Shift=    0.000
 Gap=     0.063 Goal=   None    Shift=    0.000
 RMSDP=1.46D-05 MaxDP=1.55D-03 DE=-2.46D-07 OVMax= 1.31D-03

 Cycle  11  Pass 1  IDiag  1:
 E= -1136.10639093074     Delta-E=       -0.000000062562 Rises=F Damp=F
 DIIS: error= 1.65D-06 at cycle  11 NSaved=  11.
 NSaved=11 IEnMin=11 EnMin= -1136.10639093074     IErMin=11 ErrMin= 1.65D-06
 ErrMax= 1.65D-06  0.00D+00 EMaxC= 1.00D-01 BMatC= 1.65D-09 BMatP= 6.60D-09
 IDIUse=1 WtCom= 1.00D+00 WtEn= 0.00D+00
 Coeff-Com: -0.202D-03 0.255D-03-0.127D-02-0.154D-03 0.791D-02 0.176D-01
 Coeff-Com:  0.245D-01-0.199D+00-0.456D-01 0.508D+00 0.688D+00
 Coeff:     -0.202D-03 0.255D-03-0.127D-02-0.154D-03 0.791D-02 0.176D-01
 Coeff:      0.245D-01-0.199D+00-0.456D-01 0.508D+00 0.688D+00
 Gap=     0.034 Goal=   None    Shift=    0.000
 Gap=     0.063 Goal=   None    Shift=    0.000
 RMSDP=2.66D-06 MaxDP=2.10D-04 DE=-6.26D-08 OVMax= 2.62D-04

 Cycle  12  Pass 1  IDiag  1:
 E= -1136.10639093622     Delta-E=       -0.000000005480 Rises=F Damp=F
 DIIS: error= 6.61D-07 at cycle  12 NSaved=  12.
 NSaved=12 IEnMin=12 EnMin= -1136.10639093622     IErMin=12 ErrMin= 6.61D-07
 ErrMax= 6.61D-07  0.00D+00 EMaxC= 1.00D-01 BMatC= 2.37D-10 BMatP= 1.65D-09
 IDIUse=1 WtCom= 1.00D+00 WtEn= 0.00D+00
 Coeff-Com:  0.141D-03-0.183D-03-0.487D-03-0.142D-02-0.771D-02-0.395D-02
 Coeff-Com:  0.214D-01 0.831D-01-0.551D-01-0.331D+00-0.138D-01 0.131D+01
 Coeff:      0.141D-03-0.183D-03-0.487D-03-0.142D-02-0.771D-02-0.395D-02
 Coeff:      0.214D-01 0.831D-01-0.551D-01-0.331D+00-0.138D-01 0.131D+01
 Gap=     0.034 Goal=   None    Shift=    0.000
 Gap=     0.063 Goal=   None    Shift=    0.000
 RMSDP=1.57D-06 MaxDP=1.18D-04 DE=-5.48D-09 OVMax= 1.72D-04

 Cycle  13  Pass 1  IDiag  1:
 E= -1136.10639093818     Delta-E=       -0.000000001953 Rises=F Damp=F
 DIIS: error= 3.27D-07 at cycle  13 NSaved=  13.
 NSaved=13 IEnMin=13 EnMin= -1136.10639093818     IErMin=13 ErrMin= 3.27D-07
 ErrMax= 3.27D-07  0.00D+00 EMaxC= 1.00D-01 BMatC= 3.98D-11 BMatP= 2.37D-10
 IDIUse=1 WtCom= 1.00D+00 WtEn= 0.00D+00
 Coeff-Com:  0.448D-04-0.568D-04 0.297D-04-0.230D-03-0.198D-02-0.248D-02
 Coeff-Com:  0.528D-03 0.389D-01-0.769D-02-0.114D+00-0.800D-01 0.235D+00
 Coeff-Com:  0.932D+00
 Coeff:      0.448D-04-0.568D-04 0.297D-04-0.230D-03-0.198D-02-0.248D-02
 Coeff:      0.528D-03 0.389D-01-0.769D-02-0.114D+00-0.800D-01 0.235D+00
 Coeff:      0.932D+00
 Gap=     0.034 Goal=   None    Shift=    0.000
 Gap=     0.063 Goal=   None    Shift=    0.000
 RMSDP=3.83D-07 MaxDP=1.91D-05 DE=-1.95D-09 OVMax= 3.83D-05

 Cycle  14  Pass 1  IDiag  1:
 E= -1136.10639093843     Delta-E=       -0.000000000256 Rises=F Damp=F
 DIIS: error= 1.94D-07 at cycle  14 NSaved=  14.
 NSaved=14 IEnMin=14 EnMin= -1136.10639093843     IErMin=14 ErrMin= 1.94D-07
 ErrMax= 1.94D-07  0.00D+00 EMaxC= 1.00D-01 BMatC= 1.32D-11 BMatP= 3.98D-11
 IDIUse=1 WtCom= 1.00D+00 WtEn= 0.00D+00
 Coeff-Com: -0.434D-04 0.568D-04 0.169D-03 0.487D-03 0.257D-02 0.576D-03
 Coeff-Com: -0.814D-02-0.195D-01 0.167D-01 0.934D-01-0.168D-01-0.429D+00
 Coeff-Com:  0.251D+00 0.111D+01
 Coeff:     -0.434D-04 0.568D-04 0.169D-03 0.487D-03 0.257D-02 0.576D-03
 Coeff:     -0.814D-02-0.195D-01 0.167D-01 0.934D-01-0.168D-01-0.429D+00
 Coeff:      0.251D+00 0.111D+01
 Gap=     0.034 Goal=   None    Shift=    0.000
 Gap=     0.063 Goal=   None    Shift=    0.000
 RMSDP=3.60D-07 MaxDP=1.85D-05 DE=-2.56D-10 OVMax= 2.97D-05

 Cycle  15  Pass 1  IDiag  1:
 E= -1136.10639093852     Delta-E=       -0.000000000092 Rises=F Damp=F
 DIIS: error= 6.32D-08 at cycle  15 NSaved=  15.
 NSaved=15 IEnMin=15 EnMin= -1136.10639093852     IErMin=15 ErrMin= 6.32D-08
 ErrMax= 6.32D-08  0.00D+00 EMaxC= 1.00D-01 BMatC= 1.50D-12 BMatP= 1.32D-11
 IDIUse=1 WtCom= 1.00D+00 WtEn= 0.00D+00
 Coeff-Com: -0.451D-05 0.561D-05-0.718D-05 0.181D-04 0.295D-03 0.281D-03
 Coeff-Com: -0.101D-03-0.468D-02 0.666D-03 0.132D-01 0.105D-01-0.190D-01
 Coeff-Com: -0.148D+00 0.151D-01 0.113D+01
 Coeff:     -0.451D-05 0.561D-05-0.718D-05 0.181D-04 0.295D-03 0.281D-03
 Coeff:     -0.101D-03-0.468D-02 0.666D-03 0.132D-01 0.105D-01-0.190D-01
 Coeff:     -0.148D+00 0.151D-01 0.113D+01
 Gap=     0.034 Goal=   None    Shift=    0.000
 Gap=     0.063 Goal=   None    Shift=    0.000
 RMSDP=1.23D-07 MaxDP=8.02D-06 DE=-9.21D-11 OVMax= 1.11D-05

 Cycle  16  Pass 1  IDiag  1:
 E= -1136.10639093854     Delta-E=       -0.000000000013 Rises=F Damp=F
 DIIS: error= 2.64D-08 at cycle  16 NSaved=  16.
 NSaved=16 IEnMin=16 EnMin= -1136.10639093854     IErMin=16 ErrMin= 2.64D-08
 ErrMax= 2.64D-08  0.00D+00 EMaxC= 1.00D-01 BMatC= 3.82D-13 BMatP= 1.50D-12
 IDIUse=1 WtCom= 1.00D+00 WtEn= 0.00D+00
 Coeff-Com:  0.840D-05-0.111D-04-0.355D-04-0.968D-04-0.473D-03-0.277D-04
 Coeff-Com:  0.172D-02 0.306D-02-0.365D-02-0.164D-01 0.470D-02 0.833D-01
 Coeff-Com: -0.611D-01-0.262D+00 0.190D+00 0.106D+01
 Coeff:      0.840D-05-0.111D-04-0.355D-04-0.968D-04-0.473D-03-0.277D-04
 Coeff:      0.172D-02 0.306D-02-0.365D-02-0.164D-01 0.470D-02 0.833D-01
 Coeff:     -0.611D-01-0.262D+00 0.190D+00 0.106D+01
 Gap=     0.034 Goal=   None    Shift=    0.000
 Gap=     0.063 Goal=   None    Shift=    0.000
 RMSDP=6.09D-08 MaxDP=4.49D-06 DE=-1.27D-11 OVMax= 5.28D-06

 Cycle  17  Pass 1  IDiag  1:
 E= -1136.10639093854     Delta-E=       -0.000000000002 Rises=F Damp=F
 DIIS: error= 1.40D-08 at cycle  17 NSaved=  17.
 NSaved=17 IEnMin=17 EnMin= -1136.10639093854     IErMin=17 ErrMin= 1.40D-08
 ErrMax= 1.40D-08  0.00D+00 EMaxC= 1.00D-01 BMatC= 8.37D-14 BMatP= 3.82D-13
 IDIUse=1 WtCom= 1.00D+00 WtEn= 0.00D+00
 Coeff-Com:  0.364D-05-0.474D-05-0.925D-05-0.300D-04-0.207D-03-0.828D-04
 Coeff-Com:  0.577D-03 0.196D-02-0.150D-02-0.767D-02-0.172D-03 0.291D-01
 Coeff-Com:  0.648D-02-0.730D-01-0.160D+00 0.285D+00 0.920D+00
 Coeff:      0.364D-05-0.474D-05-0.925D-05-0.300D-04-0.207D-03-0.828D-04
 Coeff:      0.577D-03 0.196D-02-0.150D-02-0.767D-02-0.172D-03 0.291D-01
 Coeff:      0.648D-02-0.730D-01-0.160D+00 0.285D+00 0.920D+00
 Gap=     0.034 Goal=   None    Shift=    0.000
 Gap=     0.063 Goal=   None    Shift=    0.000
 RMSDP=1.94D-08 MaxDP=9.18D-07 DE=-2.27D-12 OVMax= 1.82D-06

 Cycle  18  Pass 1  IDiag  1:
 E= -1136.10639093855     Delta-E=       -0.000000000007 Rises=F Damp=F
 DIIS: error= 6.41D-09 at cycle  18 NSaved=  18.
 NSaved=18 IEnMin=18 EnMin= -1136.10639093855     IErMin=18 ErrMin= 6.41D-09
 ErrMax= 6.41D-09  0.00D+00 EMaxC= 1.00D-01 BMatC= 1.69D-14 BMatP= 8.37D-14
 IDIUse=1 WtCom= 1.00D+00 WtEn= 0.00D+00
 Coeff-Com: -0.165D-05 0.219D-05 0.638D-05 0.176D-04 0.847D-04 0.166D-04
 Coeff-Com: -0.335D-03-0.470D-03 0.645D-03 0.287D-02-0.149D-02-0.148D-01
 Coeff-Com:  0.178D-01 0.518D-01-0.953D-01-0.186D+00 0.205D+00 0.102D+01
 Coeff:     -0.165D-05 0.219D-05 0.638D-05 0.176D-04 0.847D-04 0.166D-04
 Coeff:     -0.335D-03-0.470D-03 0.645D-03 0.287D-02-0.149D-02-0.148D-01
 Coeff:      0.178D-01 0.518D-01-0.953D-01-0.186D+00 0.205D+00 0.102D+01
 Gap=     0.034 Goal=   None    Shift=    0.000
 Gap=     0.063 Goal=   None    Shift=    0.000
 RMSDP=9.55D-09 MaxDP=4.63D-07 DE=-7.05D-12 OVMax= 7.18D-07

 SCF Done:  E(UB3LYP) =  -1136.10639094     A.U. after   18 cycles
            NFock= 18  Conv=0.95D-08     -V/T= 2.0028
 <Sx>= 0.0000 <Sy>= 0.0000 <Sz>= 0.5000 <S**2>= 0.7617 S= 0.5058
 <L.S>= 0.000000000000E+00
 KE= 1.132894625486D+03 PE=-3.248068590825D+03 EE= 7.195609964445D+02
 Annihilation of the first spin contaminant:
 S**2 before annihilation     0.7617,   after     0.7501
 Leave Link  502 at Tue Nov 28 23:31:21 2023, MaxMem=  1879048192 cpu:             142.7 elap:              13.3
 (Enter /home/sekinelabo/g16/l601.exe)
 Copying SCF densities to generalized density rwf, IOpCl= 1 IROHF=0.

 **********************************************************************

            Population analysis using the SCF Density.

 **********************************************************************

 Orbital symmetries:
 Alpha Orbitals:
       Occupied  (A) (A) (A) (A) (A) (A) (A) (A) (A) (A) (A) (A)
                 (A) (A) (A) (A) (A) (A) (A) (A) (A) (A) (A) (A)
                 (A) (A) (A) (A) (A) (A) (A) (A) (A) (A) (A) (A)
                 (A) (A) (A)
       Virtual   (A) (A) (A) (A) (A) (A) (A) (A) (A) (A) (A) (A)
                 (A) (A) (A) (A) (A) (A) (A) (A) (A) (A) (A) (A)
                 (A) (A) (A) (A) (A) (A) (A) (A) (A) (A) (A) (A)
                 (A) (A) (A) (A) (A) (A) (A) (A) (A) (A) (A) (A)
                 (A) (A) (A) (A) (A) (A) (A) (A) (A) (A) (A) (A)
                 (A) (A) (A) (A) (A) (A) (A) (A) (A) (A) (A) (A)
                 (A) (A) (A) (A) (A) (A) (A) (A) (A) (A) (A) (A)
                 (A) (A) (A) (A) (A) (A) (A) (A) (A) (A) (A) (A)
                 (A) (A) (A) (A) (A) (A) (A) (A) (A) (A) (A) (A)
                 (A) (A) (A) (A) (A) (A) (A) (A) (A) (A) (A) (A)
                 (A) (A) (A) (A) (A) (A) (A) (A) (A) (A) (A) (A)
                 (A) (A) (A) (A) (A) (A) (A) (A) (A) (A) (A) (A)
                 (A) (A) (A) (A) (A) (A) (A) (A) (A) (A) (A) (A)
                 (A) (A) (A) (A) (A) (A) (A) (A) (A) (A) (A) (A)
                 (A) (A) (A)
 Beta  Orbitals:
       Occupied  (A) (A) (A) (A) (A) (A) (A) (A) (A) (A) (A) (A)
                 (A) (A) (A) (A) (A) (A) (A) (A) (A) (A) (A) (A)
                 (A) (A) (A) (A) (A) (A) (A) (A) (A) (A) (A) (A)
                 (A) (A)
       Virtual   (A) (A) (A) (A) (A) (A) (A) (A) (A) (A) (A) (A)
                 (A) (A) (A) (A) (A) (A) (A) (A) (A) (A) (A) (A)
                 (A) (A) (A) (A) (A) (A) (A) (A) (A) (A) (A) (A)
                 (A) (A) (A) (A) (A) (A) (A) (A) (A) (A) (A) (A)
                 (A) (A) (A) (A) (A) (A) (A) (A) (A) (A) (A) (A)
                 (A) (A) (A) (A) (A) (A) (A) (A) (A) (A) (A) (A)
                 (A) (A) (A) (A) (A) (A) (A) (A) (A) (A) (A) (A)
                 (A) (A) (A) (A) (A) (A) (A) (A) (A) (A) (A) (A)
                 (A) (A) (A) (A) (A) (A) (A) (A) (A) (A) (A) (A)
                 (A) (A) (A) (A) (A) (A) (A) (A) (A) (A) (A) (A)
                 (A) (A) (A) (A) (A) (A) (A) (A) (A) (A) (A) (A)
                 (A) (A) (A) (A) (A) (A) (A) (A) (A) (A) (A) (A)
                 (A) (A) (A) (A) (A) (A) (A) (A) (A) (A) (A) (A)
                 (A) (A) (A) (A) (A) (A) (A) (A) (A) (A) (A) (A)
                 (A) (A) (A) (A)
 The electronic state is 2-A.
 Alpha  occ. eigenvalues --  -38.44632 -38.44578 -38.44536 -38.44078 -38.44063
 Alpha  occ. eigenvalues --  -38.44031 -38.44019  -2.20474  -2.20392  -2.20346
 Alpha  occ. eigenvalues --   -2.19928  -2.19891  -2.19880  -2.19817  -1.14227
 Alpha  occ. eigenvalues --   -1.14166  -1.14134  -1.14118  -1.14040  -1.14037
 Alpha  occ. eigenvalues --   -1.13985  -1.13977  -1.13890  -1.13634  -1.13616
 Alpha  occ. eigenvalues --   -1.13586  -1.13560  -1.13545  -1.13542  -1.13529
 Alpha  occ. eigenvalues --   -1.13519  -1.13477  -1.13473  -1.13455  -1.13412
 Alpha  occ. eigenvalues --   -0.16362  -0.13895  -0.12676  -0.09807
 Alpha virt. eigenvalues --   -0.06374  -0.05662  -0.05347  -0.03441  -0.02846
 Alpha virt. eigenvalues --   -0.02631  -0.02193  -0.02029  -0.01017  -0.00886
 Alpha virt. eigenvalues --   -0.00491  -0.00141   0.00237   0.00317   0.00477
 Alpha virt. eigenvalues --    0.00527   0.00714   0.00823   0.00888   0.01147
 Alpha virt. eigenvalues --    0.01185   0.01246   0.01400   0.01599   0.01809
 Alpha virt. eigenvalues --    0.01819   0.01896   0.01961   0.02173   0.02202
 Alpha virt. eigenvalues --    0.02318   0.02425   0.02592   0.02690   0.02802
 Alpha virt. eigenvalues --    0.02852   0.02927   0.03231   0.03353   0.03428
 Alpha virt. eigenvalues --    0.03449   0.03644   0.03684   0.03941   0.03975
 Alpha virt. eigenvalues --    0.04138   0.04563   0.04570   0.04921   0.05150
 Alpha virt. eigenvalues --    0.05394   0.05939   0.06766   0.06892   0.07464
 Alpha virt. eigenvalues --    0.07592   0.07661   0.07777   0.07938   0.08240
 Alpha virt. eigenvalues --    0.08579   0.09011   0.09077   0.09502   0.09603
 Alpha virt. eigenvalues --    0.09986   0.10145   0.10756   0.11205   0.11545
 Alpha virt. eigenvalues --    0.12075   0.12270   0.12667   0.12722   0.13186
 Alpha virt. eigenvalues --    0.13981   0.14828   0.15388   0.15650   0.16574
 Alpha virt. eigenvalues --    0.26229   0.27586   0.29346   0.29594   0.29805
 Alpha virt. eigenvalues --    0.30162   0.30372   0.31294   0.31505   0.31868
 Alpha virt. eigenvalues --    0.32055   0.32908   0.33178   0.33617   0.34348
 Alpha virt. eigenvalues --    0.36312   0.36736   0.37904   0.38261   0.38385
 Alpha virt. eigenvalues --    0.39945   0.40905   0.41801   0.42531   0.42926
 Alpha virt. eigenvalues --    0.43133   0.43387   0.43577   0.43618   0.44111
 Alpha virt. eigenvalues --    0.44331   0.45000   0.45173   0.45804   0.46077
 Alpha virt. eigenvalues --    0.46381   0.46758   0.47323   0.47589   0.48152
 Alpha virt. eigenvalues --    0.48350   0.48841   0.49714   0.50043   0.50259
 Alpha virt. eigenvalues --    0.50707   0.51170   0.52130   0.52703   0.53743
 Alpha virt. eigenvalues --    0.54937   0.62772   0.63550   0.68272   0.69040
 Alpha virt. eigenvalues --    0.75148   2.04628   2.05919   2.07721   2.12819
 Alpha virt. eigenvalues --    2.13768   2.17446   2.18439   4.41123   4.41746
 Alpha virt. eigenvalues --    4.42047   4.43120   4.43390   4.43771   4.44386
 Alpha virt. eigenvalues --    4.44695   4.45267   4.45555   4.46010   4.46478
 Alpha virt. eigenvalues --    4.46759   4.47645   4.48055   4.49955   4.52332
 Alpha virt. eigenvalues --    4.58082   4.61786   4.63306   4.68552  96.24392
 Alpha virt. eigenvalues --   96.25922  96.27890  96.35669  96.35947  96.40651
 Alpha virt. eigenvalues --   96.41559
  Beta  occ. eigenvalues --  -38.44630 -38.44577 -38.44536 -38.44066 -38.44004
  Beta  occ. eigenvalues --  -38.43996 -38.43971  -2.20472  -2.20390  -2.20346
  Beta  occ. eigenvalues --   -2.19860  -2.19818  -2.19780  -2.19772  -1.14226
  Beta  occ. eigenvalues --   -1.14153  -1.14136  -1.14102  -1.14039  -1.14036
  Beta  occ. eigenvalues --   -1.13985  -1.13977  -1.13890  -1.13597  -1.13554
  Beta  occ. eigenvalues --   -1.13531  -1.13511  -1.13500  -1.13479  -1.13463
  Beta  occ. eigenvalues --   -1.13444  -1.13441  -1.13420  -1.13399  -1.13385
  Beta  occ. eigenvalues --   -0.15777  -0.13807  -0.12556
  Beta virt. eigenvalues --   -0.06294  -0.06146  -0.05379  -0.04853  -0.03171
  Beta virt. eigenvalues --   -0.02741  -0.02484  -0.01904  -0.01523  -0.00982
  Beta virt. eigenvalues --   -0.00413  -0.00306   0.00090   0.00353   0.00470
  Beta virt. eigenvalues --    0.00577   0.00620   0.00802   0.00903   0.00937
  Beta virt. eigenvalues --    0.01256   0.01294   0.01446   0.01471   0.01669
  Beta virt. eigenvalues --    0.01869   0.01945   0.01956   0.02068   0.02281
  Beta virt. eigenvalues --    0.02349   0.02445   0.02492   0.02720   0.02760
  Beta virt. eigenvalues --    0.02890   0.02923   0.03046   0.03370   0.03435
  Beta virt. eigenvalues --    0.03480   0.03580   0.03693   0.03788   0.04059
  Beta virt. eigenvalues --    0.04133   0.04188   0.04665   0.04765   0.05092
  Beta virt. eigenvalues --    0.05302   0.05545   0.06065   0.06853   0.06990
  Beta virt. eigenvalues --    0.07476   0.07609   0.07680   0.07874   0.08071
  Beta virt. eigenvalues --    0.08322   0.08715   0.09085   0.09164   0.09745
  Beta virt. eigenvalues --    0.09778   0.10029   0.10516   0.10959   0.11240
  Beta virt. eigenvalues --    0.11701   0.12254   0.12461   0.12892   0.13036
  Beta virt. eigenvalues --    0.13575   0.14235   0.15170   0.15569   0.15775
  Beta virt. eigenvalues --    0.16768   0.26541   0.27924   0.29530   0.29675
  Beta virt. eigenvalues --    0.29927   0.30269   0.30733   0.31491   0.31729
  Beta virt. eigenvalues --    0.32023   0.32205   0.32963   0.33344   0.33809
  Beta virt. eigenvalues --    0.34465   0.36669   0.36971   0.38021   0.38302
  Beta virt. eigenvalues --    0.38622   0.40111   0.41249   0.42099   0.42564
  Beta virt. eigenvalues --    0.43072   0.43164   0.43623   0.43709   0.43779
  Beta virt. eigenvalues --    0.44359   0.44412   0.45059   0.45308   0.45957
  Beta virt. eigenvalues --    0.46195   0.46579   0.46991   0.47496   0.47693
  Beta virt. eigenvalues --    0.48299   0.48634   0.49004   0.49754   0.50046
  Beta virt. eigenvalues --    0.50395   0.50935   0.51232   0.52411   0.52991
  Beta virt. eigenvalues --    0.53967   0.55140   0.62972   0.63935   0.68453
  Beta virt. eigenvalues --    0.69130   0.75148   2.04748   2.05922   2.07825
  Beta virt. eigenvalues --    2.12822   2.13862   2.17653   2.18587   4.41147
  Beta virt. eigenvalues --    4.41761   4.42080   4.43151   4.43416   4.43794
  Beta virt. eigenvalues --    4.44433   4.44727   4.45309   4.45607   4.46029
  Beta virt. eigenvalues --    4.46500   4.46800   4.47692   4.48073   4.49997
  Beta virt. eigenvalues --    4.52420   4.58150   4.61798   4.63352   4.68552
  Beta virt. eigenvalues --   96.24435  96.25924  96.27927  96.35671  96.35977
  Beta virt. eigenvalues --   96.40720  96.41594
          Condensed to atoms (all electrons):
               1          2          3          4          5          6
     1  Na  11.551274   0.254139  -0.223791  -0.731109   0.086668   0.119705
     2  Na   0.254139  10.563055   0.177036  -0.065077  -0.060190  -0.012535
     3  Na  -0.223791   0.177036  10.818252   0.237350  -0.011541  -0.013660
     4  Na  -0.731109  -0.065077   0.237350  11.913641   0.004615  -0.300644
     5  Na   0.086668  -0.060190  -0.011541   0.004615  10.954936   0.077986
     6  Na   0.119705  -0.012535  -0.013660  -0.300644   0.077986  10.984203
     7  Na  -0.034957  -0.002152   0.002728   0.000806   0.071048   0.286336
               7
     1  Na  -0.034957
     2  Na  -0.002152
     3  Na   0.002728
     4  Na   0.000806
     5  Na   0.071048
     6  Na   0.286336
     7  Na  10.489113
          Atomic-Atomic Spin Densities.
               1          2          3          4          5          6
     1  Na   1.082056   0.199481  -0.208313  -0.624548   0.051984   0.002289
     2  Na   0.199481   0.052992  -0.110965  -0.109472  -0.017220   0.004946
     3  Na  -0.208313  -0.110965   0.226244   0.214296  -0.019613   0.002310
     4  Na  -0.624548  -0.109472   0.214296   0.809007   0.027298  -0.002234
     5  Na   0.051984  -0.017220  -0.019613   0.027298   0.042214  -0.022432
     6  Na   0.002289   0.004946   0.002310  -0.002234  -0.022432  -0.001767
     7  Na  -0.000839  -0.001235  -0.000521   0.000296   0.002172   0.003640
               7
     1  Na  -0.000839
     2  Na  -0.001235
     3  Na  -0.000521
     4  Na   0.000296
     5  Na   0.002172
     6  Na   0.003640
     7  Na   0.006614
 Mulliken charges and spin densities:
               1          2
     1  Na  -0.021929   0.502109
     2  Na   0.145724   0.018528
     3  Na   0.013625   0.103438
     4  Na  -0.059583   0.314643
     5  Na  -0.123524   0.064404
     6  Na  -0.141391  -0.013250
     7  Na   0.187077   0.010127
 Sum of Mulliken charges =  -0.00000   1.00000
 Mulliken charges and spin densities with hydrogens summed into heavy atoms:
               1          2
     1  Na  -0.021929   0.502109
     2  Na   0.145724   0.018528
     3  Na   0.013625   0.103438
     4  Na  -0.059583   0.314643
     5  Na  -0.123524   0.064404
     6  Na  -0.141391  -0.013250
     7  Na   0.187077   0.010127
 Electronic spatial extent (au):  <R**2>=           5962.3219
 Charge=             -0.0000 electrons
 Dipole moment (field-independent basis, Debye):
    X=              1.4543    Y=             -0.2731    Z=             -0.3375  Tot=              1.5177
 Quadrupole moment (field-independent basis, Debye-Ang):
   XX=            -59.4492   YY=            -72.2822   ZZ=            -67.0752
   XY=             -2.9433   XZ=             -4.4971   YZ=              6.3998
 Traceless Quadrupole moment (field-independent basis, Debye-Ang):
   XX=              6.8197   YY=             -6.0134   ZZ=             -0.8063
   XY=             -2.9433   XZ=             -4.4971   YZ=              6.3998
 Octapole moment (field-independent basis, Debye-Ang**2):
  XXX=             79.3171  YYY=              3.7863  ZZZ=              3.7753  XYY=            -11.0868
  XXY=            -14.4476  XXZ=            -67.7342  XZZ=             20.6173  YZZ=             -1.1834
  YYZ=             -2.2998  XYZ=             -8.7480
 Hexadecapole moment (field-independent basis, Debye-Ang**3):
 XXXX=          -7337.3769 YYYY=           -981.0488 ZZZZ=           -516.4622 XXXY=            -43.9696
 XXXZ=           -468.2639 YYYX=            -63.2758 YYYZ=             57.4617 ZZZX=             -6.3506
 ZZZY=             39.1697 XXYY=          -1495.4505 XXZZ=          -1400.3458 YYZZ=           -245.7825
 XXYZ=            141.0626 YYXZ=             -8.2514 ZZXY=             14.8236
 N-N= 2.595065779560D+02 E-N=-3.248068591483D+03  KE= 1.132894625486D+03
                          Isotropic Fermi Contact Couplings
        Atom                 a.u.       MegaHertz       Gauss      10(-4) cm-1
     1  Na(23)             0.23098     273.26084      97.50626      91.15001
     2  Na(23)             0.02944      34.82313      12.42576      11.61575
     3  Na(23)             0.09822     116.19567      41.46150      38.75870
     4  Na(23)             0.24220     286.53355     102.24229      95.57730
     5  Na(23)            -0.02829     -33.47103     -11.94330     -11.16473
     6  Na(23)            -0.00141      -1.67027      -0.59599      -0.55714
     7  Na(23)             0.00337       3.98113       1.42056       1.32796
 --------------------------------------------------------
       Center         ----  Spin Dipole Couplings  ----
                      3XX-RR        3YY-RR        3ZZ-RR
 --------------------------------------------------------
     1   Atom       -0.005732      0.018662     -0.012930
     2   Atom       -0.001061      0.006366     -0.005306
     3   Atom        0.001894     -0.000662     -0.001232
     4   Atom        0.000783      0.004295     -0.005078
     5   Atom       -0.011079      0.015755     -0.004676
     6   Atom        0.001147     -0.000459     -0.000688
     7   Atom        0.000252     -0.000189     -0.000063
 --------------------------------------------------------
                        XY            XZ            YZ
 --------------------------------------------------------
     1   Atom        0.004960      0.001705     -0.002195
     2   Atom       -0.008693      0.005598     -0.009036
     3   Atom        0.002428     -0.002831     -0.005322
     4   Atom        0.002680     -0.002475     -0.002747
     5   Atom        0.011245     -0.006714     -0.018762
     6   Atom       -0.000836      0.000477     -0.000045
     7   Atom        0.000042      0.000081     -0.000130
 --------------------------------------------------------


 ---------------------------------------------------------------------------------
              Anisotropic Spin Dipole Couplings in Principal Axis System
 ---------------------------------------------------------------------------------

       Atom             a.u.   MegaHertz   Gauss  10(-4) cm-1        Axes

              Baa    -0.0137    -1.929    -0.688    -0.643 -0.2725  0.1067  0.9562
     1 Na(23) Bbb    -0.0061    -0.858    -0.306    -0.286  0.9438 -0.1637  0.2872
              Bcc     0.0197     2.787     0.994     0.930  0.1872  0.9807 -0.0561
 
              Baa    -0.0104    -1.463    -0.522    -0.488 -0.1700  0.3985  0.9012
     2 Na(23) Bbb    -0.0068    -0.957    -0.342    -0.319  0.8530  0.5174 -0.0679
              Bcc     0.0171     2.420     0.864     0.807 -0.4934  0.7572 -0.4280
 
              Baa    -0.0063    -0.889    -0.317    -0.297  0.0555  0.6727  0.7378
     3 Na(23) Bbb    -0.0008    -0.107    -0.038    -0.036  0.8095 -0.4629  0.3611
              Bcc     0.0071     0.996     0.355     0.332  0.5844  0.5772 -0.5703
 
              Baa    -0.0063    -0.888    -0.317    -0.296  0.2639  0.1792  0.9478
     4 Na(23) Bbb    -0.0006    -0.078    -0.028    -0.026  0.8342 -0.5357 -0.1310
              Bcc     0.0068     0.965     0.344     0.322  0.4843  0.8252 -0.2908
 
              Baa    -0.0158    -2.235    -0.797    -0.745  0.0385  0.5002  0.8650
     5 Na(23) Bbb    -0.0152    -2.140    -0.764    -0.714  0.9540 -0.2760  0.1171
              Bcc     0.0310     4.375     1.561     1.459  0.2973  0.8207 -0.4879
 
              Baa    -0.0009    -0.133    -0.047    -0.044 -0.4057 -0.6419  0.6507
     6 Na(23) Bbb    -0.0007    -0.092    -0.033    -0.031  0.1167  0.6697  0.7334
              Bcc     0.0016     0.225     0.080     0.075  0.9065 -0.3734  0.1968
 
              Baa    -0.0003    -0.040    -0.014    -0.013 -0.1468  0.8269  0.5429
     7 Na(23) Bbb     0.0000     0.001     0.000     0.000 -0.1742 -0.5618  0.8087
              Bcc     0.0003     0.038     0.014     0.013  0.9737  0.0241  0.2265
 

 ---------------------------------------------------------------------------------

 No NMR shielding tensors so no spin-rotation constants.
 Leave Link  601 at Tue Nov 28 23:31:22 2023, MaxMem=  1879048192 cpu:               2.2 elap:               0.2
 (Enter /home/sekinelabo/g16/l701.exe)
 ... and contract with generalized density number  0.
 Compute integral first derivatives.
 Leave Link  701 at Tue Nov 28 23:31:22 2023, MaxMem=  1879048192 cpu:               1.5 elap:               0.1
 (Enter /home/sekinelabo/g16/l702.exe)
 L702 exits ... SP integral derivatives will be done elsewhere.
 Leave Link  702 at Tue Nov 28 23:31:22 2023, MaxMem=  1879048192 cpu:               0.4 elap:               0.0
 (Enter /home/sekinelabo/g16/l703.exe)
 Integral derivatives from FoFJK, PRISM(SPDF).
 Compute integral first derivatives, UseDBF=F ICtDFT=           0.
 Calling FoFJK, ICntrl=      2127 FMM=F ISym2X=0 I1Cent= 0 IOpClX= 1 NMat=1 NMatS=1 NMatT=0.
 FoFJK:  IHMeth= 1 ICntrl=    2127 DoSepK=F KAlg= 0 I1Cent=           0 FoldK=F
 IRaf=         0 NMat=       1 IRICut=       1 DoRegI=T DoRafI=F ISym2E= 0 IDoP0=0 IntGTp=1.
 FoFCou: FMM=F IPFlag=           0 FMFlag=      100000 FMFlg1=         800
         NFxFlg=           0 DoJE=F BraDBF=F KetDBF=F FulRan=T
         wScrn=  0.000000 ICntrl=      2127 IOpCl=  1 I1Cent=           0 NGrid=           0
         NMat0=    1 NMatS0=      1 NMatT0=    0 NMatD0=    1 NMtDS0=    0 NMtDT0=    0
 Symmetry not used in FoFCou.
 Leave Link  703 at Tue Nov 28 23:31:24 2023, MaxMem=  1879048192 cpu:              26.3 elap:               1.8
 (Enter /home/sekinelabo/g16/l716.exe)
 Dipole        = 5.72160417D-01-1.07439688D-01-1.32786937D-01
 ***** Axes restored to original set *****
 -------------------------------------------------------------------
 Center     Atomic                   Forces (Hartrees/Bohr)
 Number     Number              X              Y              Z
 -------------------------------------------------------------------
      1       11          -0.003122821   -0.000163314   -0.004047389
      2       11          -0.000188202    0.003207325    0.001017838
      3       11           0.001509513    0.000361558    0.002645669
      4       11           0.002554803   -0.005708632   -0.000605706
      5       11           0.000043093    0.002826578    0.001739994
      6       11           0.000686278   -0.000822326   -0.004061528
      7       11          -0.001482665    0.000298812    0.003311123
 -------------------------------------------------------------------
 Cartesian Forces:  Max     0.005708632 RMS     0.002471967
 Z-matrix is all fixed cartesians, so copy forces.
 Force constants in Cartesian coordinates: 
                1             2             3             4             5 
      1  0.163813D-01
      2  0.871966D-03  0.461366D-01
      3  0.126717D-02 -0.910048D-02  0.511900D-01
      4 -0.916415D-02 -0.840484D-03 -0.604750D-03  0.376525D-01
      5 -0.809947D-02 -0.119873D-01 -0.235596D-02 -0.526873D-02  0.151722D-01
      6  0.257739D-03  0.712170D-02 -0.698831D-02  0.618618D-02  0.195516D-02
      7  0.170566D-02 -0.936716D-03 -0.603452D-04 -0.291713D-01  0.106159D-01
      8  0.406041D-02 -0.223003D-02 -0.143462D-03  0.568507D-02 -0.746388D-02
      9  0.244053D-02 -0.134251D-02 -0.830961D-04 -0.444054D-02 -0.120356D-02
     10 -0.423961D-02  0.342475D-02 -0.145254D-02 -0.716244D-03  0.163759D-02
     11  0.609188D-02 -0.214400D-01  0.356447D-02 -0.129917D-02  0.263837D-02
     12 -0.942875D-02  0.149095D-01 -0.151974D-01 -0.933823D-03  0.181146D-02
     13 -0.468325D-02 -0.251952D-02  0.850462D-03  0.139914D-02  0.111471D-02
     14 -0.292478D-02 -0.104793D-01  0.803543D-02  0.172331D-02  0.164065D-02
     15  0.546331D-02 -0.115882D-01 -0.289212D-01 -0.207059D-03 -0.207087D-03
     16  0.000000D+00  0.000000D+00  0.000000D+00  0.000000D+00  0.000000D+00
     17  0.000000D+00  0.000000D+00  0.000000D+00  0.000000D+00  0.000000D+00
     18  0.000000D+00  0.000000D+00  0.000000D+00  0.000000D+00  0.000000D+00
     19  0.000000D+00  0.000000D+00  0.000000D+00  0.000000D+00  0.000000D+00
     20  0.000000D+00  0.000000D+00  0.000000D+00  0.000000D+00  0.000000D+00
     21  0.000000D+00  0.000000D+00  0.000000D+00  0.000000D+00  0.000000D+00
                6             7             8             9            10 
      6  0.102886D-01
      7 -0.184265D-02  0.274921D-01
      8 -0.245823D-02 -0.969084D-02  0.966983D-02
      9 -0.190957D-02  0.189786D-02  0.259109D-02  0.201250D-02
     10 -0.179570D-02 -0.119543D-04 -0.247014D-04  0.461839D-04  0.103829D-01
     11 -0.277127D-02  0.183802D-05  0.379796D-05 -0.710100D-05 -0.173146D-01
     12 -0.186760D-02  0.734131D-05  0.151696D-04 -0.283623D-04  0.321883D-02
     13 -0.280556D-02 -0.144859D-04 -0.299327D-04  0.559648D-04 -0.541507D-02
     14 -0.384735D-02  0.981431D-05  0.202796D-04 -0.379165D-04  0.122769D-01
     15  0.476842D-03 -0.220817D-05 -0.456281D-05  0.853103D-05 -0.167764D-04
     16  0.000000D+00  0.000000D+00  0.000000D+00  0.000000D+00  0.000000D+00
     17  0.000000D+00  0.000000D+00  0.000000D+00  0.000000D+00  0.000000D+00
     18  0.000000D+00  0.000000D+00  0.000000D+00  0.000000D+00  0.000000D+00
     19  0.000000D+00  0.000000D+00  0.000000D+00  0.000000D+00  0.000000D+00
     20  0.000000D+00  0.000000D+00  0.000000D+00  0.000000D+00  0.000000D+00
     21  0.000000D+00  0.000000D+00  0.000000D+00  0.000000D+00  0.000000D+00
               11            12            13            14            15 
     11  0.466195D-01
     12 -0.230745D-03  0.268520D-01
     13  0.125200D-01  0.713640D-02  0.871365D-02
     14 -0.278217D-01 -0.165054D-01 -0.110853D-01  0.366400D-01
     15 -0.555353D-03 -0.975870D-02 -0.523727D-02  0.123552D-01  0.381946D-01
     16  0.000000D+00  0.000000D+00  0.000000D+00  0.000000D+00  0.000000D+00
     17  0.000000D+00  0.000000D+00  0.000000D+00  0.000000D+00  0.000000D+00
     18  0.000000D+00  0.000000D+00  0.000000D+00  0.000000D+00  0.000000D+00
     19  0.000000D+00  0.000000D+00  0.000000D+00  0.000000D+00  0.000000D+00
     20  0.000000D+00  0.000000D+00  0.000000D+00  0.000000D+00  0.000000D+00
     21  0.000000D+00  0.000000D+00  0.000000D+00  0.000000D+00  0.000000D+00
               16            17            18            19            20 
     16  0.498828D-02
     17 -0.949837D-03  0.180862D-03
     18 -0.137116D-01  0.261088D-02  0.376900D-01
     19 -0.498828D-02  0.949837D-03  0.137116D-01  0.498828D-02
     20  0.949837D-03 -0.180862D-03 -0.261088D-02 -0.949837D-03  0.180862D-03
     21  0.137116D-01 -0.261088D-02 -0.376900D-01 -0.137116D-01  0.261088D-02
               21 
     21  0.376900D-01
 Leave Link  716 at Tue Nov 28 23:31:24 2023, MaxMem=  1879048192 cpu:               0.4 elap:               0.0
 (Enter /home/sekinelabo/g16/l103.exe)

 GradGradGradGradGradGradGradGradGradGradGradGradGradGradGradGradGradGrad
 Berny optimization.
 Search for a local minimum.
 Step number   1 out of a maximum of    2
 All quantities printed in internal units (Hartrees-Bohrs-Radians)
 Second derivative matrix not updated -- first step.
 ITU=  0
     Eigenvalues ---   -0.00000  -0.00000  -0.00000   0.00000   0.00008
     Eigenvalues ---    0.00047   0.00470   0.00963   0.02105   0.03875
     Eigenvalues ---    0.06752   0.07379   0.08011   0.08572   0.08706
 Eigenvalue     1 is  -8.88D-16 should be greater than     0.000000 Eigenvector:
                          Z7        Z6        Y6        X7        Z5
   1                    0.48559   0.40122   0.32643   0.31567  -0.30067
                          Z1        Y2        X5        Z2        X6
   1                   -0.27073  -0.22243  -0.21052  -0.15294   0.15185
 Eigenvalue     2 is  -4.44D-16 should be greater than     0.000000 Eigenvector:
                          Y6        X7        X6        Y7        Z7
   1                    0.54761  -0.46020   0.44203  -0.43073  -0.18214
                          X5        X3        X2        Z2        Z6
   1                    0.15424  -0.13043  -0.09801   0.07971   0.07832
 Eigenvalue     3 is  -1.11D-16 should be greater than     0.000000 Eigenvector:
                          X5        X6        X3        Z7        X4
   1                    0.53757  -0.52444  -0.28468   0.25472   0.23250
                          X1        Y6        X2        Z3        Y3
   1                    0.21874   0.21185  -0.19036  -0.14646  -0.14630
 Eigenvalue     4 is   0.00D+00 Eigenvector:
                          Y7        Y5        X6        Y4        Z3
   1                    0.59687  -0.37697   0.33568  -0.30346  -0.29049
                          Z6        X7        Z2        Z5        Y2
   1                    0.27427  -0.17397  -0.15433   0.14083   0.11684
 Eigenvalue     5 is   7.67D-05 Eigenvector:
                          Y6        Z2        Y2        Y5        X7
   1                    0.42541  -0.34290   0.32023  -0.30349   0.29389
                          Y4        X4        Z3        Z6        X5
   1                   -0.27782  -0.24149   0.23660  -0.22547  -0.17917
 Quadratic step=1.459D+01 exceeds max=3.000D-01 adjusted using Lamda=-1.384D-02.
 Angle between NR and scaled steps=  55.11 degrees.
 Angle between quadratic step and forces=  43.58 degrees.
 Linear search not attempted -- first point.
 B after Tr=     0.000000    0.000000    0.000000
         Rot=    1.000000    0.000000    0.000000    0.000000 Ang=   0.00 deg.
 Variable       Old X    -DE/DX   Delta X   Delta X   Delta X     New X
                                 (Linear)    (Quad)   (Total)
    X1       27.38175  -0.00312   0.00000  -0.08857  -0.08857  27.29318
    Y1       30.11033  -0.00016   0.00000  -0.00465  -0.00465  30.10568
    Z1       24.75636  -0.00405   0.00000  -0.06681  -0.06681  24.68955
    X2       24.20531  -0.00019   0.00000   0.00509   0.00509  24.21041
    Y2       24.57022   0.00321   0.00000   0.09887   0.09887  24.66909
    Z2       20.97105   0.00102   0.00000   0.02893   0.02893  20.99998
    X3       29.57762   0.00151   0.00000   0.02428   0.02428  29.60190
    Y3       22.22998   0.00036   0.00000   0.05424   0.05424  22.28422
    Z3       21.10994   0.00265   0.00000   0.17893   0.17893  21.28888
    X4       29.33989   0.00255   0.00000   0.05078   0.05078  29.39067
    Y4       25.99904  -0.00571   0.00000  -0.09365  -0.09365  25.90539
    Z4       28.97423  -0.00061   0.00000  -0.08532  -0.08532  28.88891
    X5       27.10037   0.00004   0.00000   0.06523   0.06523  27.16561
    Y5       31.07655   0.00283   0.00000  -0.01806  -0.01806  31.05848
    Z5       30.89664   0.00174   0.00000  -0.00126  -0.00126  30.89539
    X6       33.63826   0.00069   0.00000  -0.03252  -0.03252  33.60574
    Y6       34.33065  -0.00082   0.00000  -0.04243  -0.04243  34.28822
    Z6       35.56899  -0.00406   0.00000  -0.06845  -0.06845  35.50054
    X7       31.76157  -0.00148   0.00000  -0.02430  -0.02430  31.73727
    Y7       34.68800   0.00030   0.00000   0.00570   0.00570  34.69370
    Z7       40.72757   0.00331   0.00000   0.01397   0.01397  40.74154
         Item               Value     Threshold  Converged?
 Maximum Force            0.005709     0.000450     NO 
 RMS     Force            0.002472     0.000300     NO 
 Maximum Displacement     0.178935     0.001800     NO 
 RMS     Displacement     0.065498     0.001200     NO 
 Predicted change in Energy=-1.855228D-03
 GradGradGradGradGradGradGradGradGradGradGradGradGradGradGradGradGradGrad

 Leave Link  103 at Tue Nov 28 23:31:24 2023, MaxMem=  1879048192 cpu:               0.2 elap:               0.0
 (Enter /home/sekinelabo/g16/l9999.exe)
 1\1\GINC-SEKINELABO-XA7R-R37\Force\UB3LYP\6-311+G(d)\Na7(2)\SEKINELABO
 \28-Nov-2023\0\\#P B3LYP/6-311+g(d) force\\DPGEN\\0,2\Na,14.4898,15.93
 37,13.1005\Na,12.8089,13.002,11.0974\Na,15.6518,11.7636,11.1709\Na,15.
 526,13.7581,15.3325\Na,14.3409,16.445,16.3498\Na,17.8006,18.167,18.822
 3\Na,16.8075,18.3561,21.5521\\Version=ES64L-G16RevB.01\State=2-A\HF=-1
 136.1063909\S2=0.76169\S2-1=0.\S2A=0.75006\RMSD=9.546e-09\RMSF=2.472e-
 03\Dipole=-0.0113199,0.2732328,0.5308097\Quadrupole=-0.2342432,-4.8549
 931,5.0892363,1.2107399,-3.4559645,4.8437237\PG=C01 [X(Na7)]\\@


 IF YOU WISH TO UNDERSTAND THE FRAGRANCE OF THE ROSE, 
 OR THE TENACITY OF THE OAK; 
 IF YOU ARE NOT SATISFIED UNTIL YOU KNOW THE SECRET PATHS 
 BY WHICH THE SUNSHINE AND THE AIR ACHIEVE THESE WONDERS; 
 IF YOU WISH TO SEE THE PATTERN WHICH UNDERLIES ONE LARGE FIELD OF 
 HUMAN EXPERIENCE AND HUMAN MEASUREMENT, THEN TAKE UP CHEMISTRY.

                                         -- C. A. COULSON, 1973.
 Job cpu time:       0 days  0 hours  3 minutes  4.7 seconds.
 Elapsed time:       0 days  0 hours  0 minutes 16.1 seconds.
 File lengths (MBytes):  RWF=     32 Int=      0 D2E=      0 Chk=      4 Scr=      1
 Normal termination of Gaussian 16 at Tue Nov 28 23:31:24 2023.
