 Set GAUSS_MDEF to "14GB".
 Entering Gaussian System, Link 0=g16
 Initial command:
 /home/sekinelabo/g16/l1.exe "/home/sekinelabo/g16temp/Gau-33053.inp" -scrdir="/home/sekinelabo/g16temp/"
 Entering Link 1 = /home/sekinelabo/g16/l1.exe PID=     33055.
  
 Copyright (c) 1988-2017, Gaussian, Inc.  All Rights Reserved.
  
 This is part of the Gaussian(R) 16 program.  It is based on
 the Gaussian(R) 09 system (copyright 2009, Gaussian, Inc.),
 the Gaussian(R) 03 system (copyright 2003, Gaussian, Inc.),
 the Gaussian(R) 98 system (copyright 1998, Gaussian, Inc.),
 the Gaussian(R) 94 system (copyright 1995, Gaussian, Inc.),
 the Gaussian 92(TM) system (copyright 1992, Gaussian, Inc.),
 the Gaussian 90(TM) system (copyright 1990, Gaussian, Inc.),
 the Gaussian 88(TM) system (copyright 1988, Gaussian, Inc.),
 the Gaussian 86(TM) system (copyright 1986, Carnegie Mellon
 University), and the Gaussian 82(TM) system (copyright 1983,
 Carnegie Mellon University). Gaussian is a federally registered
 trademark of Gaussian, Inc.
  
 This software contains proprietary and confidential information,
 including trade secrets, belonging to Gaussian, Inc.
  
 This software is provided under written license and may be
 used, copied, transmitted, or stored only in accord with that
 written license.
  
 The following legend is applicable only to US Government
 contracts under FAR:
  
                    RESTRICTED RIGHTS LEGEND
  
 Use, reproduction and disclosure by the US Government is
 subject to restrictions as set forth in subparagraphs (a)
 and (c) of the Commercial Computer Software - Restricted
 Rights clause in FAR 52.227-19.
  
 Gaussian, Inc.
 340 Quinnipiac St., Bldg. 40, Wallingford CT 06492
  
  
 ---------------------------------------------------------------
 Warning -- This program may not be used in any manner that
 competes with the business of Gaussian, Inc. or will provide
 assistance to any competitor of Gaussian, Inc.  The licensee
 of this program is prohibited from giving any competitor of
 Gaussian, Inc. access to this program.  By using this program,
 the user acknowledges that Gaussian, Inc. is engaged in the
 business of creating and licensing software in the field of
 computational chemistry and represents and warrants to the
 licensee that it is not a competitor of Gaussian, Inc. and that
 it will not use this program in any manner prohibited above.
 ---------------------------------------------------------------
  

 Cite this work as:
 Gaussian 16, Revision B.01,
 M. J. Frisch, G. W. Trucks, H. B. Schlegel, G. E. Scuseria, 
 M. A. Robb, J. R. Cheeseman, G. Scalmani, V. Barone, 
 G. A. Petersson, H. Nakatsuji, X. Li, M. Caricato, A. V. Marenich, 
 J. Bloino, B. G. Janesko, R. Gomperts, B. Mennucci, H. P. Hratchian, 
 J. V. Ortiz, A. F. Izmaylov, J. L. Sonnenberg, D. Williams-Young, 
 F. Ding, F. Lipparini, F. Egidi, J. Goings, B. Peng, A. Petrone, 
 T. Henderson, D. Ranasinghe, V. G. Zakrzewski, J. Gao, N. Rega, 
 G. Zheng, W. Liang, M. Hada, M. Ehara, K. Toyota, R. Fukuda, 
 J. Hasegawa, M. Ishida, T. Nakajima, Y. Honda, O. Kitao, H. Nakai, 
 T. Vreven, K. Throssell, J. A. Montgomery, Jr., J. E. Peralta, 
 F. Ogliaro, M. J. Bearpark, J. J. Heyd, E. N. Brothers, K. N. Kudin, 
 V. N. Staroverov, T. A. Keith, R. Kobayashi, J. Normand, 
 K. Raghavachari, A. P. Rendell, J. C. Burant, S. S. Iyengar, 
 J. Tomasi, M. Cossi, J. M. Millam, M. Klene, C. Adamo, R. Cammi, 
 J. W. Ochterski, R. L. Martin, K. Morokuma, O. Farkas, 
 J. B. Foresman, and D. J. Fox, Gaussian, Inc., Wallingford CT, 2016.
 
 ******************************************
 Gaussian 16:  ES64L-G16RevB.01 20-Dec-2017
                28-Nov-2023 
 ******************************************
 %nproc=15
 Will use up to   15 processors via shared memory.
 -------------------------
 #P B3LYP/6-311+g(d) force
 -------------------------
 1/10=7,30=1,38=1/1,3;
 2/12=2,17=6,18=5,40=1/2;
 3/5=4,6=6,7=11,11=2,25=1,30=1,71=1,74=-5/1,2,3;
 4//1;
 5/5=2,38=5/2;
 6/7=2,8=2,9=2,10=2,28=1/1;
 7/29=1/1,2,3,16;
 1/10=7,30=1/3;
 99//99;
 Leave Link    1 at Tue Nov 28 19:28:34 2023, MaxMem=           0 cpu:               0.3 elap:               0.0
 (Enter /home/sekinelabo/g16/l101.exe)
 -----
 DPGEN
 -----
 Symbolic Z-matrix:
 Charge =  0 Multiplicity = 2
 Na                    14.3342   15.5185   14.8599 
 Na                    17.433    17.3826   15.354 
 Na                    18.0723   14.3878   16.7653 
 Na                    16.4208   12.774    14.1287 
 Na                    14.4863   14.4522   11.9709 
 Na                    15.1009   16.2842   17.7846 
 Na                    11.5781   16.6261   16.5619 
 
 ITRead=  0  0  0  0  0  0  0
 MicOpt= -1 -1 -1 -1 -1 -1 -1
 NAtoms=      7 NQM=        7 NQMF=       0 NMMI=      0 NMMIF=      0
                NMic=       0 NMicF=      0.
                    Isotopes and Nuclear Properties:
 (Nuclear quadrupole moments (NQMom) in fm**2, nuclear magnetic moments (NMagM)
  in nuclear magnetons)

  Atom         1           2           3           4           5           6           7
 IAtWgt=          23          23          23          23          23          23          23
 AtmWgt=  22.9897697  22.9897697  22.9897697  22.9897697  22.9897697  22.9897697  22.9897697
 NucSpn=           3           3           3           3           3           3           3
 AtZEff=  -0.0000000  -0.0000000  -0.0000000  -0.0000000  -0.0000000  -0.0000000  -0.0000000
 NQMom=   10.4000000  10.4000000  10.4000000  10.4000000  10.4000000  10.4000000  10.4000000
 NMagM=    2.2175200   2.2175200   2.2175200   2.2175200   2.2175200   2.2175200   2.2175200
 AtZNuc=  11.0000000  11.0000000  11.0000000  11.0000000  11.0000000  11.0000000  11.0000000
 Leave Link  101 at Tue Nov 28 19:28:34 2023, MaxMem=  1879048192 cpu:               2.3 elap:               0.2
 (Enter /home/sekinelabo/g16/l103.exe)

 GradGradGradGradGradGradGradGradGradGradGradGradGradGradGradGradGradGrad
 Berny optimization.
 Initialization pass.
 Trust Radius=3.00D-01 FncErr=1.00D-07 GrdErr=1.00D-07 EigMax=2.50D+02 EigMin=1.00D-04
 Number of steps in this run=      2 maximum allowed number of steps=      2.
 GradGradGradGradGradGradGradGradGradGradGradGradGradGradGradGradGradGrad

 Leave Link  103 at Tue Nov 28 19:28:34 2023, MaxMem=  1879048192 cpu:               0.2 elap:               0.0
 (Enter /home/sekinelabo/g16/l202.exe)
                          Input orientation:                          
 ---------------------------------------------------------------------
 Center     Atomic      Atomic             Coordinates (Angstroms)
 Number     Number       Type             X           Y           Z
 ---------------------------------------------------------------------
      1         11           0       14.334200   15.518500   14.859900
      2         11           0       17.433000   17.382600   15.354000
      3         11           0       18.072300   14.387800   16.765300
      4         11           0       16.420800   12.774000   14.128700
      5         11           0       14.486300   14.452200   11.970900
      6         11           0       15.100900   16.284200   17.784600
      7         11           0       11.578100   16.626100   16.561900
 ---------------------------------------------------------------------
                    Distance matrix (angstroms):
                    1          2          3          4          5
     1  Na   0.000000
     2  Na   3.649872   0.000000
     3  Na   4.345391   3.371839   0.000000
     4  Na   3.524320   4.874946   3.504777   0.000000
     5  Na   3.083253   5.358699   5.987471   3.348843   0.000000
     6  Na   3.118973   3.543020   3.669404   5.237294   6.126423
     7  Na   3.423400   6.025875   6.872117   6.649126   5.853268
                    6          7
     6  Na   0.000000
     7  Na   3.744598   0.000000
 Stoichiometry    Na7(2)
 Framework group  C1[X(Na7)]
 Deg. of freedom    15
 Full point group                 C1      NOp   1
 Largest Abelian subgroup         C1      NOp   1
 Largest concise Abelian subgroup C1      NOp   1
                         Standard orientation:                         
 ---------------------------------------------------------------------
 Center     Atomic      Atomic             Coordinates (Angstroms)
 Number     Number       Type             X           Y           Z
 ---------------------------------------------------------------------
      1         11           0       -0.733460    0.855795    0.144126
      2         11           0        0.776613   -1.765661    2.185991
      3         11           0        2.161847   -2.227177   -0.853324
      4         11           0        2.478820    1.240180   -1.253852
      5         11           0        0.897903    3.398500    0.760373
      6         11           0       -1.489798   -2.096958   -0.517084
      7         11           0       -4.091925    0.595320   -0.466230
 ---------------------------------------------------------------------
 Rotational constants (GHZ):           0.6314660           0.5510664           0.3765558
 Leave Link  202 at Tue Nov 28 19:28:34 2023, MaxMem=  1879048192 cpu:               0.0 elap:               0.0
 (Enter /home/sekinelabo/g16/l301.exe)
 Standard basis: 6-311+G(d) (5D, 7F)
 Ernie: Thresh=  0.10000D-02 Tol=  0.10000D-05 Strict=F.
 There are   217 symmetry adapted cartesian basis functions of A   symmetry.
 There are   210 symmetry adapted basis functions of A   symmetry.
   210 basis functions,   350 primitive gaussians,   217 cartesian basis functions
    39 alpha electrons       38 beta electrons
       nuclear repulsion energy       318.4152563316 Hartrees.
 IExCor=  402 DFT=T Ex+Corr=B3LYP ExCW=0 ScaHFX=  0.200000
 ScaDFX=  0.800000  0.720000  1.000000  0.810000 ScalE2=  1.000000  1.000000
 IRadAn=      5 IRanWt=     -1 IRanGd=            0 ICorTp=0 IEmpDi=  4
 NAtoms=    7 NActive=    7 NUniq=    7 SFac= 1.00D+00 NAtFMM=   60 NAOKFM=F Big=F
 Integral buffers will be    131072 words long.
 Raffenetti 2 integral format.
 Two-electron integral symmetry is turned on.
 Leave Link  301 at Tue Nov 28 19:28:34 2023, MaxMem=  1879048192 cpu:               0.6 elap:               0.0
 (Enter /home/sekinelabo/g16/l302.exe)
 NPDir=0 NMtPBC=     1 NCelOv=     1 NCel=       1 NClECP=     1 NCelD=      1
         NCelK=      1 NCelE2=     1 NClLst=     1 CellRange=     0.0.
 One-electron integrals computed using PRISM.
 One-electron integral symmetry used in STVInt
 NBasis=   210 RedAO= T EigKep=  2.25D-06  NBF=   210
 NBsUse=   210 1.00D-06 EigRej= -1.00D+00 NBFU=   210
 Precomputing XC quadrature grid using
 IXCGrd= 4 IRadAn=           5 IRanWt=          -1 IRanGd=           0 AccXCQ= 0.00D+00.
 Generated NRdTot=       0 NPtTot=           0 NUsed=           0 NTot=          32
 NSgBfM=   210   210   210   210   210 MxSgAt=     7 MxSgA2=     7.
 Leave Link  302 at Tue Nov 28 19:28:34 2023, MaxMem=  1879048192 cpu:               2.0 elap:               0.1
 (Enter /home/sekinelabo/g16/l303.exe)
 DipDrv:  MaxL=1.
 Leave Link  303 at Tue Nov 28 19:28:34 2023, MaxMem=  1879048192 cpu:               0.5 elap:               0.0
 (Enter /home/sekinelabo/g16/l401.exe)
 ExpMin= 7.60D-03 ExpMax= 3.62D+04 ExpMxC= 1.21D+03 IAcc=3 IRadAn=         5 AccDes= 0.00D+00
 Harris functional with IExCor=  402 and IRadAn=       5 diagonalized for initial guess.
 HarFok:  IExCor=  402 AccDes= 0.00D+00 IRadAn=         5 IDoV= 1 UseB2=F ITyADJ=14
 ICtDFT=  3500011 ScaDFX=  1.000000  1.000000  1.000000  1.000000
 FoFCou: FMM=F IPFlag=           0 FMFlag=      100000 FMFlg1=           0
         NFxFlg=           0 DoJE=T BraDBF=F KetDBF=T FulRan=T
         wScrn=  0.000000 ICntrl=       500 IOpCl=  0 I1Cent=   200000004 NGrid=           0
         NMat0=    1 NMatS0=      1 NMatT0=    0 NMatD0=    1 NMtDS0=    0 NMtDT0=    0
 Petite list used in FoFCou.
 Harris En= -1135.89666637932    
 JPrj=0 DoOrth=F DoCkMO=F.
 Initial guess <Sx>= 0.0000 <Sy>= 0.0000 <Sz>= 0.5000 <S**2>= 0.7500 S= 0.5000
 Leave Link  401 at Tue Nov 28 19:28:34 2023, MaxMem=  1879048192 cpu:               4.3 elap:               0.3
 (Enter /home/sekinelabo/g16/l502.exe)
 Keep R1 and R2 ints in memory in canonical form, NReq=506573321.
 FoFCou: FMM=F IPFlag=           0 FMFlag=           0 FMFlg1=           0
         NFxFlg=           0 DoJE=F BraDBF=F KetDBF=F FulRan=T
         wScrn=  0.000000 ICntrl=       600 IOpCl=  0 I1Cent=           0 NGrid=           0
         NMat0=    1 NMatS0=  22155 NMatT0=    0 NMatD0=    1 NMtDS0=    0 NMtDT0=    0
 Symmetry not used in FoFCou.
 Two-electron integral symmetry not used.
 UHF open shell SCF:
 Using DIIS extrapolation, IDIIS=  1040.
 NGot=  1879048192 LenX=  1388082579 LenY=  1388035049
 Requested convergence on RMS density matrix=1.00D-08 within 128 cycles.
 Requested convergence on MAX density matrix=1.00D-06.
 Requested convergence on             energy=1.00D-06.
 No special actions if energy rises.

 Cycle   1  Pass 1  IDiag  1:
 E= -1136.09318047059    
 DIIS: error= 1.13D-02 at cycle   1 NSaved=   1.
 NSaved= 1 IEnMin= 1 EnMin= -1136.09318047059     IErMin= 1 ErrMin= 1.13D-02
 ErrMax= 1.13D-02  0.00D+00 EMaxC= 1.00D-01 BMatC= 1.89D-01 BMatP= 1.89D-01
 IDIUse=3 WtCom= 8.87D-01 WtEn= 1.13D-01
 Coeff-Com:  0.100D+01
 Coeff-En:   0.100D+01
 Coeff:      0.100D+01
 Gap=     0.037 Goal=   None    Shift=    0.000
 Gap=     0.052 Goal=   None    Shift=    0.000
 GapD=    0.037 DampG=0.250 DampE=0.500 DampFc=0.2500 IDamp=-1.
 Damping current iteration by 2.50D-01
 RMSDP=6.00D-02 MaxDP=5.57D+00              OVMax= 2.17D-01

 Cycle   2  Pass 1  IDiag  1:
 E= -1136.10482744978     Delta-E=       -0.011646979187 Rises=F Damp=T
 DIIS: error= 8.00D-03 at cycle   2 NSaved=   2.
 NSaved= 2 IEnMin= 2 EnMin= -1136.10482744978     IErMin= 2 ErrMin= 8.00D-03
 ErrMax= 8.00D-03  0.00D+00 EMaxC= 1.00D-01 BMatC= 7.20D-02 BMatP= 1.89D-01
 IDIUse=3 WtCom= 9.20D-01 WtEn= 8.00D-02
 Coeff-Com: -0.127D+01 0.227D+01
 Coeff-En:   0.000D+00 0.100D+01
 Coeff:     -0.117D+01 0.217D+01
 Gap=     0.046 Goal=   None    Shift=    0.000
 Gap=     0.056 Goal=   None    Shift=    0.000
 RMSDP=2.62D-02 MaxDP=2.64D+00 DE=-1.16D-02 OVMax= 1.60D-01

 Cycle   3  Pass 1  IDiag  1:
 E= -1136.12503279115     Delta-E=       -0.020205341368 Rises=F Damp=F
 DIIS: error= 3.00D-03 at cycle   3 NSaved=   3.
 NSaved= 3 IEnMin= 3 EnMin= -1136.12503279115     IErMin= 3 ErrMin= 3.00D-03
 ErrMax= 3.00D-03  0.00D+00 EMaxC= 1.00D-01 BMatC= 2.38D-03 BMatP= 7.20D-02
 IDIUse=3 WtCom= 9.70D-01 WtEn= 3.00D-02
 Coeff-Com: -0.188D+00 0.334D+00 0.854D+00
 Coeff-En:   0.000D+00 0.000D+00 0.100D+01
 Coeff:     -0.182D+00 0.323D+00 0.858D+00
 Gap=     0.042 Goal=   None    Shift=    0.000
 Gap=     0.054 Goal=   None    Shift=    0.000
 RMSDP=1.15D-02 MaxDP=9.65D-01 DE=-2.02D-02 OVMax= 7.10D-02

 Cycle   4  Pass 1  IDiag  1:
 E= -1136.12487938268     Delta-E=        0.000153408467 Rises=F Damp=F
 DIIS: error= 3.15D-03 at cycle   4 NSaved=   4.
 NSaved= 4 IEnMin= 3 EnMin= -1136.12503279115     IErMin= 3 ErrMin= 3.00D-03
 ErrMax= 3.15D-03  0.00D+00 EMaxC= 1.00D-01 BMatC= 2.53D-03 BMatP= 2.38D-03
 IDIUse=3 WtCom= 9.69D-01 WtEn= 3.15D-02
 Coeff-Com: -0.965D-03 0.940D-03 0.508D+00 0.492D+00
 Coeff-En:   0.000D+00 0.000D+00 0.516D+00 0.484D+00
 Coeff:     -0.935D-03 0.910D-03 0.508D+00 0.492D+00
 Gap=     0.045 Goal=   None    Shift=    0.000
 Gap=     0.054 Goal=   None    Shift=    0.000
 RMSDP=4.31D-03 MaxDP=3.30D-01 DE= 1.53D-04 OVMax= 4.21D-02

 Cycle   5  Pass 1  IDiag  1:
 E= -1136.12699351920     Delta-E=       -0.002114136519 Rises=F Damp=F
 DIIS: error= 3.92D-04 at cycle   5 NSaved=   5.
 NSaved= 5 IEnMin= 5 EnMin= -1136.12699351920     IErMin= 5 ErrMin= 3.92D-04
 ErrMax= 3.92D-04  0.00D+00 EMaxC= 1.00D-01 BMatC= 3.52D-05 BMatP= 2.38D-03
 IDIUse=3 WtCom= 9.96D-01 WtEn= 3.92D-03
 Coeff-Com: -0.891D-03 0.151D-03 0.257D+00 0.257D+00 0.486D+00
 Coeff-En:   0.000D+00 0.000D+00 0.000D+00 0.000D+00 0.100D+01
 Coeff:     -0.887D-03 0.151D-03 0.256D+00 0.256D+00 0.488D+00
 Gap=     0.045 Goal=   None    Shift=    0.000
 Gap=     0.054 Goal=   None    Shift=    0.000
 RMSDP=4.48D-04 MaxDP=4.31D-02 DE=-2.11D-03 OVMax= 9.00D-03

 Cycle   6  Pass 1  IDiag  1:
 E= -1136.12703944648     Delta-E=       -0.000045927282 Rises=F Damp=F
 DIIS: error= 1.80D-04 at cycle   6 NSaved=   6.
 NSaved= 6 IEnMin= 6 EnMin= -1136.12703944648     IErMin= 6 ErrMin= 1.80D-04
 ErrMax= 1.80D-04  0.00D+00 EMaxC= 1.00D-01 BMatC= 6.09D-06 BMatP= 3.52D-05
 IDIUse=3 WtCom= 9.98D-01 WtEn= 1.80D-03
 Coeff-Com: -0.200D-02 0.226D-02-0.737D-01-0.695D-01 0.244D+00 0.899D+00
 Coeff-En:   0.000D+00 0.000D+00 0.000D+00 0.000D+00 0.566D-01 0.943D+00
 Coeff:     -0.199D-02 0.225D-02-0.736D-01-0.693D-01 0.244D+00 0.899D+00
 Gap=     0.045 Goal=   None    Shift=    0.000
 Gap=     0.054 Goal=   None    Shift=    0.000
 RMSDP=4.21D-04 MaxDP=4.10D-02 DE=-4.59D-05 OVMax= 4.84D-03

 Cycle   7  Pass 1  IDiag  1:
 E= -1136.12705398508     Delta-E=       -0.000014538601 Rises=F Damp=F
 DIIS: error= 5.90D-05 at cycle   7 NSaved=   7.
 NSaved= 7 IEnMin= 7 EnMin= -1136.12705398508     IErMin= 7 ErrMin= 5.90D-05
 ErrMax= 5.90D-05  0.00D+00 EMaxC= 1.00D-01 BMatC= 6.46D-07 BMatP= 6.09D-06
 IDIUse=1 WtCom= 1.00D+00 WtEn= 0.00D+00
 Coeff-Com:  0.173D-03-0.275D-03-0.463D-01-0.446D-01 0.139D-01 0.232D+00
 Coeff-Com:  0.845D+00
 Coeff:      0.173D-03-0.275D-03-0.463D-01-0.446D-01 0.139D-01 0.232D+00
 Coeff:      0.845D+00
 Gap=     0.045 Goal=   None    Shift=    0.000
 Gap=     0.054 Goal=   None    Shift=    0.000
 RMSDP=8.25D-05 MaxDP=3.83D-03 DE=-1.45D-05 OVMax= 3.75D-03

 Cycle   8  Pass 1  IDiag  1:
 E= -1136.12705615666     Delta-E=       -0.000002171574 Rises=F Damp=F
 DIIS: error= 3.68D-05 at cycle   8 NSaved=   8.
 NSaved= 8 IEnMin= 8 EnMin= -1136.12705615666     IErMin= 8 ErrMin= 3.68D-05
 ErrMax= 3.68D-05  0.00D+00 EMaxC= 1.00D-01 BMatC= 4.66D-07 BMatP= 6.46D-07
 IDIUse=1 WtCom= 1.00D+00 WtEn= 0.00D+00
 Coeff-Com:  0.125D-02-0.156D-02-0.483D-02-0.543D-02-0.821D-01-0.169D+00
 Coeff-Com:  0.562D+00 0.700D+00
 Coeff:      0.125D-02-0.156D-02-0.483D-02-0.543D-02-0.821D-01-0.169D+00
 Coeff:      0.562D+00 0.700D+00
 Gap=     0.045 Goal=   None    Shift=    0.000
 Gap=     0.054 Goal=   None    Shift=    0.000
 RMSDP=6.04D-05 MaxDP=2.60D-03 DE=-2.17D-06 OVMax= 2.02D-03

 Cycle   9  Pass 1  IDiag  1:
 E= -1136.12705748422     Delta-E=       -0.000001327568 Rises=F Damp=F
 DIIS: error= 1.59D-05 at cycle   9 NSaved=   9.
 NSaved= 9 IEnMin= 9 EnMin= -1136.12705748422     IErMin= 9 ErrMin= 1.59D-05
 ErrMax= 1.59D-05  0.00D+00 EMaxC= 1.00D-01 BMatC= 5.10D-08 BMatP= 4.66D-07
 IDIUse=1 WtCom= 1.00D+00 WtEn= 0.00D+00
 Coeff-Com:  0.467D-03-0.582D-03 0.790D-02 0.642D-02-0.227D-01-0.786D-01
 Coeff-Com: -0.650D-01 0.159D+00 0.993D+00
 Coeff:      0.467D-03-0.582D-03 0.790D-02 0.642D-02-0.227D-01-0.786D-01
 Coeff:     -0.650D-01 0.159D+00 0.993D+00
 Gap=     0.045 Goal=   None    Shift=    0.000
 Gap=     0.054 Goal=   None    Shift=    0.000
 RMSDP=3.39D-05 MaxDP=2.01D-03 DE=-1.33D-06 OVMax= 1.34D-03

 Cycle  10  Pass 1  IDiag  1:
 E= -1136.12705778014     Delta-E=       -0.000000295917 Rises=F Damp=F
 DIIS: error= 8.29D-06 at cycle  10 NSaved=  10.
 NSaved=10 IEnMin=10 EnMin= -1136.12705778014     IErMin=10 ErrMin= 8.29D-06
 ErrMax= 8.29D-06  0.00D+00 EMaxC= 1.00D-01 BMatC= 1.89D-08 BMatP= 5.10D-08
 IDIUse=1 WtCom= 1.00D+00 WtEn= 0.00D+00
 Coeff-Com: -0.108D-03 0.142D-03 0.493D-02 0.407D-02 0.900D-02-0.134D-02
 Coeff-Com: -0.156D+00-0.936D-01 0.454D+00 0.779D+00
 Coeff:     -0.108D-03 0.142D-03 0.493D-02 0.407D-02 0.900D-02-0.134D-02
 Coeff:     -0.156D+00-0.936D-01 0.454D+00 0.779D+00
 Gap=     0.045 Goal=   None    Shift=    0.000
 Gap=     0.054 Goal=   None    Shift=    0.000
 RMSDP=2.28D-05 MaxDP=2.07D-03 DE=-2.96D-07 OVMax= 6.14D-04

 Cycle  11  Pass 1  IDiag  1:
 E= -1136.12705786044     Delta-E=       -0.000000080297 Rises=F Damp=F
 DIIS: error= 2.67D-06 at cycle  11 NSaved=  11.
 NSaved=11 IEnMin=11 EnMin= -1136.12705786044     IErMin=11 ErrMin= 2.67D-06
 ErrMax= 2.67D-06  0.00D+00 EMaxC= 1.00D-01 BMatC= 4.11D-09 BMatP= 1.89D-08
 IDIUse=1 WtCom= 1.00D+00 WtEn= 0.00D+00
 Coeff-Com: -0.243D-03 0.310D-03 0.503D-04 0.227D-03 0.102D-01 0.186D-01
 Coeff-Com: -0.218D-01-0.816D-01-0.200D+00 0.261D+00 0.101D+01
 Coeff:     -0.243D-03 0.310D-03 0.503D-04 0.227D-03 0.102D-01 0.186D-01
 Coeff:     -0.218D-01-0.816D-01-0.200D+00 0.261D+00 0.101D+01
 Gap=     0.045 Goal=   None    Shift=    0.000
 Gap=     0.054 Goal=   None    Shift=    0.000
 RMSDP=1.69D-05 MaxDP=1.35D-03 DE=-8.03D-08 OVMax= 4.04D-04

 Cycle  12  Pass 1  IDiag  1:
 E= -1136.12705788579     Delta-E=       -0.000000025356 Rises=F Damp=F
 DIIS: error= 1.06D-06 at cycle  12 NSaved=  12.
 NSaved=12 IEnMin=12 EnMin= -1136.12705788579     IErMin=12 ErrMin= 1.06D-06
 ErrMax= 1.06D-06  0.00D+00 EMaxC= 1.00D-01 BMatC= 7.44D-10 BMatP= 4.11D-09
 IDIUse=1 WtCom= 1.00D+00 WtEn= 0.00D+00
 Coeff-Com: -0.618D-04 0.770D-04-0.795D-03-0.522D-03 0.182D-02 0.673D-02
 Coeff-Com:  0.161D-01-0.120D-01-0.133D+00-0.460D-01 0.324D+00 0.844D+00
 Coeff:     -0.618D-04 0.770D-04-0.795D-03-0.522D-03 0.182D-02 0.673D-02
 Coeff:      0.161D-01-0.120D-01-0.133D+00-0.460D-01 0.324D+00 0.844D+00
 Gap=     0.045 Goal=   None    Shift=    0.000
 Gap=     0.054 Goal=   None    Shift=    0.000
 RMSDP=7.75D-06 MaxDP=6.53D-04 DE=-2.54D-08 OVMax= 1.27D-04

 Cycle  13  Pass 1  IDiag  1:
 E= -1136.12705788951     Delta-E=       -0.000000003715 Rises=F Damp=F
 DIIS: error= 4.94D-07 at cycle  13 NSaved=  13.
 NSaved=13 IEnMin=13 EnMin= -1136.12705788951     IErMin=13 ErrMin= 4.94D-07
 ErrMax= 4.94D-07  0.00D+00 EMaxC= 1.00D-01 BMatC= 1.62D-10 BMatP= 7.44D-10
 IDIUse=1 WtCom= 1.00D+00 WtEn= 0.00D+00
 Coeff-Com:  0.670D-04-0.872D-04-0.911D-04-0.563D-04-0.246D-02-0.454D-02
 Coeff-Com:  0.883D-02 0.207D-01 0.320D-01-0.789D-01-0.221D+00 0.112D+00
 Coeff-Com:  0.113D+01
 Coeff:      0.670D-04-0.872D-04-0.911D-04-0.563D-04-0.246D-02-0.454D-02
 Coeff:      0.883D-02 0.207D-01 0.320D-01-0.789D-01-0.221D+00 0.112D+00
 Coeff:      0.113D+01
 Gap=     0.045 Goal=   None    Shift=    0.000
 Gap=     0.054 Goal=   None    Shift=    0.000
 RMSDP=6.03D-06 MaxDP=4.98D-04 DE=-3.72D-09 OVMax= 9.23D-05

 Cycle  14  Pass 1  IDiag  1:
 E= -1136.12705789084     Delta-E=       -0.000000001334 Rises=F Damp=F
 DIIS: error= 3.08D-07 at cycle  14 NSaved=  14.
 NSaved=14 IEnMin=14 EnMin= -1136.12705789084     IErMin=14 ErrMin= 3.08D-07
 ErrMax= 3.08D-07  0.00D+00 EMaxC= 1.00D-01 BMatC= 3.22D-11 BMatP= 1.62D-10
 IDIUse=1 WtCom= 1.00D+00 WtEn= 0.00D+00
 Coeff-Com:  0.653D-05-0.729D-05 0.562D-04-0.300D-05-0.188D-03-0.354D-03
 Coeff-Com: -0.465D-02 0.165D-02 0.285D-01 0.144D-01-0.690D-01-0.176D+00
 Coeff-Com: -0.556D-01 0.126D+01
 Coeff:      0.653D-05-0.729D-05 0.562D-04-0.300D-05-0.188D-03-0.354D-03
 Coeff:     -0.465D-02 0.165D-02 0.285D-01 0.144D-01-0.690D-01-0.176D+00
 Coeff:     -0.556D-01 0.126D+01
 Gap=     0.045 Goal=   None    Shift=    0.000
 Gap=     0.054 Goal=   None    Shift=    0.000
 RMSDP=3.12D-06 MaxDP=2.07D-04 DE=-1.33D-09 OVMax= 5.26D-05

 Cycle  15  Pass 1  IDiag  1:
 E= -1136.12705789120     Delta-E=       -0.000000000363 Rises=F Damp=F
 DIIS: error= 1.24D-07 at cycle  15 NSaved=  15.
 NSaved=15 IEnMin=15 EnMin= -1136.12705789120     IErMin=15 ErrMin= 1.24D-07
 ErrMax= 1.24D-07  0.00D+00 EMaxC= 1.00D-01 BMatC= 6.85D-12 BMatP= 3.22D-11
 IDIUse=1 WtCom= 1.00D+00 WtEn= 0.00D+00
 Coeff-Com: -0.173D-04 0.228D-04 0.313D-04 0.174D-04 0.559D-03 0.117D-02
 Coeff-Com: -0.237D-02-0.540D-02-0.515D-02 0.196D-01 0.441D-01-0.281D-01
 Coeff-Com: -0.258D+00 0.355D-01 0.120D+01
 Coeff:     -0.173D-04 0.228D-04 0.313D-04 0.174D-04 0.559D-03 0.117D-02
 Coeff:     -0.237D-02-0.540D-02-0.515D-02 0.196D-01 0.441D-01-0.281D-01
 Coeff:     -0.258D+00 0.355D-01 0.120D+01
 Gap=     0.045 Goal=   None    Shift=    0.000
 Gap=     0.054 Goal=   None    Shift=    0.000
 RMSDP=1.48D-06 MaxDP=1.27D-04 DE=-3.63D-10 OVMax= 2.51D-05

 Cycle  16  Pass 1  IDiag  1:
 E= -1136.12705789128     Delta-E=       -0.000000000080 Rises=F Damp=F
 DIIS: error= 5.14D-08 at cycle  16 NSaved=  16.
 NSaved=16 IEnMin=16 EnMin= -1136.12705789128     IErMin=16 ErrMin= 5.14D-08
 ErrMax= 5.14D-08  0.00D+00 EMaxC= 1.00D-01 BMatC= 1.15D-12 BMatP= 6.85D-12
 IDIUse=1 WtCom= 1.00D+00 WtEn= 0.00D+00
 Coeff-Com: -0.186D-05 0.220D-05-0.134D-04 0.182D-05 0.910D-04 0.119D-03
 Coeff-Com:  0.849D-03-0.750D-03-0.554D-02-0.233D-02 0.138D-01 0.341D-01
 Coeff-Com:  0.875D-02-0.249D+00 0.317D-01 0.117D+01
 Coeff:     -0.186D-05 0.220D-05-0.134D-04 0.182D-05 0.910D-04 0.119D-03
 Coeff:      0.849D-03-0.750D-03-0.554D-02-0.233D-02 0.138D-01 0.341D-01
 Coeff:      0.875D-02-0.249D+00 0.317D-01 0.117D+01
 Gap=     0.045 Goal=   None    Shift=    0.000
 Gap=     0.054 Goal=   None    Shift=    0.000
 RMSDP=4.54D-07 MaxDP=2.55D-05 DE=-8.00D-11 OVMax= 9.52D-06

 Cycle  17  Pass 1  IDiag  1:
 E= -1136.12705789128     Delta-E=        0.000000000008 Rises=F Damp=F
 DIIS: error= 2.65D-08 at cycle  17 NSaved=  17.
 NSaved=17 IEnMin=16 EnMin= -1136.12705789128     IErMin=17 ErrMin= 2.65D-08
 ErrMax= 2.65D-08  0.00D+00 EMaxC= 1.00D-01 BMatC= 1.95D-13 BMatP= 1.15D-12
 IDIUse=1 WtCom= 1.00D+00 WtEn= 0.00D+00
 Coeff-Com:  0.257D-05-0.342D-05-0.965D-05-0.464D-05-0.786D-04-0.117D-03
 Coeff-Com:  0.390D-03 0.820D-03 0.173D-03-0.340D-02-0.510D-02 0.652D-02
 Coeff-Com:  0.416D-01-0.292D-01-0.178D+00 0.120D+00 0.105D+01
 Coeff:      0.257D-05-0.342D-05-0.965D-05-0.464D-05-0.786D-04-0.117D-03
 Coeff:      0.390D-03 0.820D-03 0.173D-03-0.340D-02-0.510D-02 0.652D-02
 Coeff:      0.416D-01-0.292D-01-0.178D+00 0.120D+00 0.105D+01
 Gap=     0.045 Goal=   None    Shift=    0.000
 Gap=     0.054 Goal=   None    Shift=    0.000
 RMSDP=1.14D-07 MaxDP=6.65D-06 DE= 8.19D-12 OVMax= 2.91D-06

 Cycle  18  Pass 1  IDiag  1:
 E= -1136.12705789129     Delta-E=       -0.000000000011 Rises=F Damp=F
 DIIS: error= 9.36D-09 at cycle  18 NSaved=  18.
 NSaved=18 IEnMin=18 EnMin= -1136.12705789129     IErMin=18 ErrMin= 9.36D-09
 ErrMax= 9.36D-09  0.00D+00 EMaxC= 1.00D-01 BMatC= 3.30D-14 BMatP= 1.95D-13
 IDIUse=1 WtCom= 1.00D+00 WtEn= 0.00D+00
 Coeff-Com:  0.905D-06-0.115D-05 0.146D-06-0.195D-05-0.309D-04-0.555D-04
 Coeff-Com: -0.346D-04 0.284D-03 0.103D-02-0.376D-03-0.366D-02-0.367D-02
 Coeff-Com:  0.555D-02 0.370D-01-0.354D-01-0.199D+00 0.173D+00 0.103D+01
 Coeff:      0.905D-06-0.115D-05 0.146D-06-0.195D-05-0.309D-04-0.555D-04
 Coeff:     -0.346D-04 0.284D-03 0.103D-02-0.376D-03-0.366D-02-0.367D-02
 Coeff:      0.555D-02 0.370D-01-0.354D-01-0.199D+00 0.173D+00 0.103D+01
 Gap=     0.045 Goal=   None    Shift=    0.000
 Gap=     0.054 Goal=   None    Shift=    0.000
 RMSDP=3.84D-08 MaxDP=2.87D-06 DE=-1.09D-11 OVMax= 9.72D-07

 Cycle  19  Pass 1  IDiag  1:
 E= -1136.12705789129     Delta-E=       -0.000000000005 Rises=F Damp=F
 DIIS: error= 3.00D-09 at cycle  19 NSaved=  19.
 NSaved=19 IEnMin=19 EnMin= -1136.12705789129     IErMin=19 ErrMin= 3.00D-09
 ErrMax= 3.00D-09  0.00D+00 EMaxC= 1.00D-01 BMatC= 3.08D-15 BMatP= 3.30D-14
 IDIUse=1 WtCom= 1.00D+00 WtEn= 0.00D+00
 Large coefficients: NSaved= 19 BigCof=    0.00 CofMax=   10.00 Det=-9.86D-15
 Inversion failed.  Reducing to 18 matrices.
 Coeff-Com: -0.574D-08 0.112D-05 0.419D-06-0.116D-05-0.314D-05-0.263D-04
 Coeff-Com: -0.203D-04 0.147D-03 0.232D-03-0.237D-03-0.943D-03-0.233D-02
 Coeff-Com:  0.606D-02 0.107D-01-0.293D-01-0.958D-01 0.869D-01 0.102D+01
 Coeff:     -0.574D-08 0.112D-05 0.419D-06-0.116D-05-0.314D-05-0.263D-04
 Coeff:     -0.203D-04 0.147D-03 0.232D-03-0.237D-03-0.943D-03-0.233D-02
 Coeff:      0.606D-02 0.107D-01-0.293D-01-0.958D-01 0.869D-01 0.102D+01
 Gap=     0.045 Goal=   None    Shift=    0.000
 Gap=     0.054 Goal=   None    Shift=    0.000
 RMSDP=1.32D-08 MaxDP=1.16D-06 DE=-5.46D-12 OVMax= 3.46D-07

 Cycle  20  Pass 1  IDiag  1:
 E= -1136.12705789129     Delta-E=        0.000000000007 Rises=F Damp=F
 DIIS: error= 1.20D-09 at cycle  20 NSaved=  19.
 NSaved=19 IEnMin=18 EnMin= -1136.12705789129     IErMin=19 ErrMin= 1.20D-09
 ErrMax= 1.20D-09  0.00D+00 EMaxC= 1.00D-01 BMatC= 6.04D-16 BMatP= 3.08D-15
 IDIUse=1 WtCom= 1.00D+00 WtEn= 0.00D+00
 Large coefficients: NSaved= 19 BigCof=    0.00 CofMax=   10.00 Det=-1.24D-15
 Inversion failed.  Reducing to 18 matrices.
 Large coefficients: NSaved= 18 BigCof=    0.00 CofMax=   10.00 Det=-1.24D-15
 Inversion failed.  Reducing to 17 matrices.
 Large coefficients: NSaved= 17 BigCof=    0.00 CofMax=   10.00 Det=-1.25D-15
 Inversion failed.  Reducing to 16 matrices.
 Large coefficients: NSaved= 16 BigCof=    0.00 CofMax=   10.00 Det=-1.37D-15
 Inversion failed.  Reducing to 15 matrices.
 Coeff-Com: -0.222D-05 0.144D-04-0.231D-05-0.662D-04-0.418D-04 0.240D-03
 Coeff-Com:  0.152D-03 0.346D-03-0.381D-02 0.395D-02 0.198D-01-0.166D-01
 Coeff-Com: -0.133D+00 0.195D-02 0.113D+01
 Coeff:     -0.222D-05 0.144D-04-0.231D-05-0.662D-04-0.418D-04 0.240D-03
 Coeff:      0.152D-03 0.346D-03-0.381D-02 0.395D-02 0.198D-01-0.166D-01
 Coeff:     -0.133D+00 0.195D-02 0.113D+01
 Gap=     0.045 Goal=   None    Shift=    0.000
 Gap=     0.054 Goal=   None    Shift=    0.000
 RMSDP=8.79D-09 MaxDP=1.03D-06 DE= 7.28D-12 OVMax= 1.30D-07

 Cycle  21  Pass 1  IDiag  1:
 E= -1136.12705789128     Delta-E=        0.000000000002 Rises=F Damp=F
 DIIS: error= 2.96D-10 at cycle  21 NSaved=  16.
 NSaved=16 IEnMin=14 EnMin= -1136.12705789129     IErMin=16 ErrMin= 2.96D-10
 ErrMax= 2.96D-10  0.00D+00 EMaxC= 1.00D-01 BMatC= 6.07D-17 BMatP= 6.04D-16
 IDIUse=1 WtCom= 1.00D+00 WtEn= 0.00D+00
 Large coefficients: NSaved= 16 BigCof=    0.00 CofMax=   10.00 Det=-1.55D-16
 Inversion failed.  Reducing to 15 matrices.
 Coeff-Com:  0.260D-05 0.240D-05-0.121D-04-0.258D-04 0.178D-04 0.139D-03
 Coeff-Com:  0.581D-04-0.328D-03-0.150D-02 0.354D-02 0.996D-02-0.866D-02
 Coeff-Com: -0.130D+00 0.600D-01 0.107D+01
 Coeff:      0.260D-05 0.240D-05-0.121D-04-0.258D-04 0.178D-04 0.139D-03
 Coeff:      0.581D-04-0.328D-03-0.150D-02 0.354D-02 0.996D-02-0.866D-02
 Coeff:     -0.130D+00 0.600D-01 0.107D+01
 Gap=     0.045 Goal=   None    Shift=    0.000
 Gap=     0.054 Goal=   None    Shift=    0.000
 RMSDP=2.98D-09 MaxDP=2.16D-07 DE= 2.27D-12 OVMax= 3.98D-08

 SCF Done:  E(UB3LYP) =  -1136.12705789     A.U. after   21 cycles
            NFock= 21  Conv=0.30D-08     -V/T= 2.0028
 <Sx>= 0.0000 <Sy>= 0.0000 <Sz>= 0.5000 <S**2>= 0.7688 S= 0.5094
 <L.S>= 0.000000000000E+00
 KE= 1.132912563134D+03 PE=-3.366233536085D+03 EE= 7.787786587283D+02
 Annihilation of the first spin contaminant:
 S**2 before annihilation     0.7688,   after     0.7502
 Leave Link  502 at Tue Nov 28 19:28:52 2023, MaxMem=  1879048192 cpu:             189.9 elap:              17.2
 (Enter /home/sekinelabo/g16/l601.exe)
 Copying SCF densities to generalized density rwf, IOpCl= 1 IROHF=0.

 **********************************************************************

            Population analysis using the SCF Density.

 **********************************************************************

 Orbital symmetries:
 Alpha Orbitals:
       Occupied  (A) (A) (A) (A) (A) (A) (A) (A) (A) (A) (A) (A)
                 (A) (A) (A) (A) (A) (A) (A) (A) (A) (A) (A) (A)
                 (A) (A) (A) (A) (A) (A) (A) (A) (A) (A) (A) (A)
                 (A) (A) (A)
       Virtual   (A) (A) (A) (A) (A) (A) (A) (A) (A) (A) (A) (A)
                 (A) (A) (A) (A) (A) (A) (A) (A) (A) (A) (A) (A)
                 (A) (A) (A) (A) (A) (A) (A) (A) (A) (A) (A) (A)
                 (A) (A) (A) (A) (A) (A) (A) (A) (A) (A) (A) (A)
                 (A) (A) (A) (A) (A) (A) (A) (A) (A) (A) (A) (A)
                 (A) (A) (A) (A) (A) (A) (A) (A) (A) (A) (A) (A)
                 (A) (A) (A) (A) (A) (A) (A) (A) (A) (A) (A) (A)
                 (A) (A) (A) (A) (A) (A) (A) (A) (A) (A) (A) (A)
                 (A) (A) (A) (A) (A) (A) (A) (A) (A) (A) (A) (A)
                 (A) (A) (A) (A) (A) (A) (A) (A) (A) (A) (A) (A)
                 (A) (A) (A) (A) (A) (A) (A) (A) (A) (A) (A) (A)
                 (A) (A) (A) (A) (A) (A) (A) (A) (A) (A) (A) (A)
                 (A) (A) (A) (A) (A) (A) (A) (A) (A) (A) (A) (A)
                 (A) (A) (A) (A) (A) (A) (A) (A) (A) (A) (A) (A)
                 (A) (A) (A)
 Beta  Orbitals:
       Occupied  (A) (A) (A) (A) (A) (A) (A) (A) (A) (A) (A) (A)
                 (A) (A) (A) (A) (A) (A) (A) (A) (A) (A) (A) (A)
                 (A) (A) (A) (A) (A) (A) (A) (A) (A) (A) (A) (A)
                 (A) (A)
       Virtual   (A) (A) (A) (A) (A) (A) (A) (A) (A) (A) (A) (A)
                 (A) (A) (A) (A) (A) (A) (A) (A) (A) (A) (A) (A)
                 (A) (A) (A) (A) (A) (A) (A) (A) (A) (A) (A) (A)
                 (A) (A) (A) (A) (A) (A) (A) (A) (A) (A) (A) (A)
                 (A) (A) (A) (A) (A) (A) (A) (A) (A) (A) (A) (A)
                 (A) (A) (A) (A) (A) (A) (A) (A) (A) (A) (A) (A)
                 (A) (A) (A) (A) (A) (A) (A) (A) (A) (A) (A) (A)
                 (A) (A) (A) (A) (A) (A) (A) (A) (A) (A) (A) (A)
                 (A) (A) (A) (A) (A) (A) (A) (A) (A) (A) (A) (A)
                 (A) (A) (A) (A) (A) (A) (A) (A) (A) (A) (A) (A)
                 (A) (A) (A) (A) (A) (A) (A) (A) (A) (A) (A) (A)
                 (A) (A) (A) (A) (A) (A) (A) (A) (A) (A) (A) (A)
                 (A) (A) (A) (A) (A) (A) (A) (A) (A) (A) (A) (A)
                 (A) (A) (A) (A) (A) (A) (A) (A) (A) (A) (A) (A)
                 (A) (A) (A) (A)
 The electronic state is 2-A.
 Alpha  occ. eigenvalues --  -38.44377 -38.44014 -38.43979 -38.43843 -38.43763
 Alpha  occ. eigenvalues --  -38.43677 -38.42970  -2.20227  -2.19866  -2.19759
 Alpha  occ. eigenvalues --   -2.19684  -2.19610  -2.19520  -2.18945  -1.13970
 Alpha  occ. eigenvalues --   -1.13910  -1.13797  -1.13520  -1.13510  -1.13480
 Alpha  occ. eigenvalues --   -1.13428  -1.13424  -1.13380  -1.13369  -1.13350
 Alpha  occ. eigenvalues --   -1.13330  -1.13309  -1.13246  -1.13213  -1.13196
 Alpha  occ. eigenvalues --   -1.13174  -1.13141  -1.12665  -1.12621  -1.12542
 Alpha  occ. eigenvalues --   -0.17774  -0.13074  -0.12730  -0.10558
 Alpha virt. eigenvalues --   -0.06044  -0.05283  -0.04840  -0.03216  -0.02895
 Alpha virt. eigenvalues --   -0.02174  -0.01791  -0.01386  -0.00561  -0.00268
 Alpha virt. eigenvalues --   -0.00244   0.00234   0.00402   0.00676   0.00749
 Alpha virt. eigenvalues --    0.00852   0.01021   0.01042   0.01140   0.01248
 Alpha virt. eigenvalues --    0.01342   0.01393   0.01589   0.01751   0.02075
 Alpha virt. eigenvalues --    0.02174   0.02230   0.02408   0.02529   0.02650
 Alpha virt. eigenvalues --    0.02761   0.02892   0.02950   0.03064   0.03125
 Alpha virt. eigenvalues --    0.03183   0.03244   0.03294   0.03545   0.03589
 Alpha virt. eigenvalues --    0.03792   0.03955   0.04358   0.04413   0.04699
 Alpha virt. eigenvalues --    0.04846   0.05074   0.05352   0.05581   0.05707
 Alpha virt. eigenvalues --    0.05917   0.06571   0.06811   0.06963   0.07171
 Alpha virt. eigenvalues --    0.07684   0.07932   0.08173   0.08652   0.08667
 Alpha virt. eigenvalues --    0.08947   0.09309   0.09806   0.10227   0.11162
 Alpha virt. eigenvalues --    0.11531   0.11888   0.12231   0.12630   0.13068
 Alpha virt. eigenvalues --    0.13238   0.13488   0.13775   0.14286   0.14565
 Alpha virt. eigenvalues --    0.14808   0.15183   0.15649   0.16611   0.18849
 Alpha virt. eigenvalues --    0.25242   0.25982   0.27760   0.28256   0.29685
 Alpha virt. eigenvalues --    0.30354   0.31256   0.32029   0.32619   0.33870
 Alpha virt. eigenvalues --    0.34436   0.35204   0.35645   0.35995   0.36816
 Alpha virt. eigenvalues --    0.38008   0.39150   0.39998   0.40673   0.41566
 Alpha virt. eigenvalues --    0.42476   0.43416   0.43844   0.44268   0.44391
 Alpha virt. eigenvalues --    0.44509   0.44753   0.45099   0.45478   0.45533
 Alpha virt. eigenvalues --    0.45733   0.46549   0.46821   0.47158   0.47727
 Alpha virt. eigenvalues --    0.48581   0.48915   0.49584   0.49735   0.50518
 Alpha virt. eigenvalues --    0.51381   0.51531   0.52868   0.53283   0.54200
 Alpha virt. eigenvalues --    0.54494   0.55587   0.56897   0.58730   0.59335
 Alpha virt. eigenvalues --    0.61014   0.62129   0.63988   0.64486   0.66727
 Alpha virt. eigenvalues --    0.76088   2.04328   2.11309   2.11657   2.16023
 Alpha virt. eigenvalues --    2.18785   2.20855   2.26540   4.42464   4.43775
 Alpha virt. eigenvalues --    4.44307   4.45060   4.45416   4.45426   4.45903
 Alpha virt. eigenvalues --    4.46378   4.47112   4.47200   4.47583   4.47835
 Alpha virt. eigenvalues --    4.48624   4.50365   4.50901   4.51879   4.53912
 Alpha virt. eigenvalues --    4.54708   4.56673   4.58881   4.67616  96.23989
 Alpha virt. eigenvalues --   96.32591  96.32744  96.37984  96.41496  96.44022
 Alpha virt. eigenvalues --   96.51148
  Beta  occ. eigenvalues --  -38.44373 -38.43971 -38.43937 -38.43805 -38.43748
  Beta  occ. eigenvalues --  -38.43647 -38.42957  -2.20222  -2.19744  -2.19723
  Beta  occ. eigenvalues --   -2.19616  -2.19581  -2.19468  -2.18925  -1.13969
  Beta  occ. eigenvalues --   -1.13888  -1.13795  -1.13419  -1.13416  -1.13414
  Beta  occ. eigenvalues --   -1.13413  -1.13387  -1.13369  -1.13326  -1.13308
  Beta  occ. eigenvalues --   -1.13291  -1.13271  -1.13224  -1.13182  -1.13160
  Beta  occ. eigenvalues --   -1.13138  -1.13084  -1.12643  -1.12588  -1.12534
  Beta  occ. eigenvalues --   -0.17210  -0.12883  -0.12351
  Beta virt. eigenvalues --   -0.06949  -0.05757  -0.05053  -0.04519  -0.02813
  Beta virt. eigenvalues --   -0.02412  -0.01833  -0.01387  -0.01274  -0.00419
  Beta virt. eigenvalues --   -0.00092  -0.00005   0.00331   0.00596   0.00720
  Beta virt. eigenvalues --    0.00859   0.00931   0.01091   0.01141   0.01239
  Beta virt. eigenvalues --    0.01359   0.01441   0.01519   0.01706   0.01856
  Beta virt. eigenvalues --    0.02210   0.02249   0.02326   0.02426   0.02615
  Beta virt. eigenvalues --    0.02751   0.02889   0.02906   0.02994   0.03093
  Beta virt. eigenvalues --    0.03140   0.03206   0.03320   0.03335   0.03615
  Beta virt. eigenvalues --    0.03729   0.03897   0.04099   0.04468   0.04492
  Beta virt. eigenvalues --    0.04800   0.05000   0.05165   0.05415   0.05644
  Beta virt. eigenvalues --    0.05868   0.06038   0.06646   0.06832   0.07171
  Beta virt. eigenvalues --    0.07252   0.07767   0.08083   0.08258   0.08817
  Beta virt. eigenvalues --    0.08950   0.09013   0.09376   0.09976   0.10466
  Beta virt. eigenvalues --    0.11383   0.11723   0.12190   0.12464   0.12866
  Beta virt. eigenvalues --    0.13250   0.13402   0.13603   0.13971   0.14510
  Beta virt. eigenvalues --    0.14786   0.15001   0.15371   0.15775   0.16868
  Beta virt. eigenvalues --    0.18956   0.25366   0.26301   0.28055   0.28594
  Beta virt. eigenvalues --    0.30038   0.30646   0.31460   0.32342   0.32862
  Beta virt. eigenvalues --    0.34062   0.34572   0.35400   0.35934   0.36269
  Beta virt. eigenvalues --    0.37010   0.38438   0.39353   0.40237   0.40852
  Beta virt. eigenvalues --    0.41729   0.42740   0.43574   0.43976   0.44509
  Beta virt. eigenvalues --    0.44554   0.44727   0.44915   0.45234   0.45617
  Beta virt. eigenvalues --    0.45677   0.45856   0.46769   0.46975   0.47268
  Beta virt. eigenvalues --    0.47899   0.48728   0.49043   0.49753   0.49915
  Beta virt. eigenvalues --    0.50650   0.51523   0.51604   0.53014   0.53421
  Beta virt. eigenvalues --    0.54433   0.54655   0.55670   0.57019   0.58945
  Beta virt. eigenvalues --    0.59432   0.61182   0.62324   0.64070   0.64666
  Beta virt. eigenvalues --    0.66758   0.76108   2.04435   2.11394   2.11786
  Beta virt. eigenvalues --    2.16143   2.18971   2.20929   2.26588   4.42489
  Beta virt. eigenvalues --    4.43831   4.44378   4.45124   4.45431   4.45465
  Beta virt. eigenvalues --    4.45934   4.46405   4.47160   4.47244   4.47653
  Beta virt. eigenvalues --    4.47882   4.48664   4.50380   4.50984   4.51927
  Beta virt. eigenvalues --    4.53975   4.54750   4.56689   4.58892   4.67633
  Beta virt. eigenvalues --   96.24025  96.32633  96.32778  96.38018  96.41555
  Beta virt. eigenvalues --   96.44050  96.51167
          Condensed to atoms (all electrons):
               1          2          3          4          5          6
     1  Na  17.083188   0.271172   0.032743   0.091791  -2.118152  -1.011055
     2  Na   0.271172  11.323228  -0.392558   0.015679   0.218753  -0.413975
     3  Na   0.032743  -0.392558  11.293435  -0.004039   0.904762  -0.791675
     4  Na   0.091791   0.015679  -0.004039  10.684063  -0.402274   0.400369
     5  Na  -2.118152   0.218753   0.904762  -0.402274  17.168068  -3.881910
     6  Na  -1.011055  -0.413975  -0.791675   0.400369  -3.881910  14.261353
     7  Na  -0.185822  -0.318500  -0.090087   0.041958  -2.054312   1.508677
               7
     1  Na  -0.185822
     2  Na  -0.318500
     3  Na  -0.090087
     4  Na   0.041958
     5  Na  -2.054312
     6  Na   1.508677
     7  Na  11.543575
          Atomic-Atomic Spin Densities.
               1          2          3          4          5          6
     1  Na   0.681372  -0.057492  -0.118226  -0.082144  -0.523710   0.387676
     2  Na  -0.057492   0.644518  -0.300068  -0.084975   0.211586  -0.080363
     3  Na  -0.118226  -0.300068   0.395582   0.180091  -0.080394   0.090271
     4  Na  -0.082144  -0.084975   0.180091   0.072072   0.133384  -0.078789
     5  Na  -0.523710   0.211586  -0.080394   0.133384   0.263605   0.060097
     6  Na   0.387676  -0.080363   0.090271  -0.078789   0.060097  -0.257294
     7  Na   0.058984  -0.140320   0.084277  -0.041517  -0.106299   0.038647
               7
     1  Na   0.058984
     2  Na  -0.140320
     3  Na   0.084277
     4  Na  -0.041517
     5  Na  -0.106299
     6  Na   0.038647
     7  Na   0.098715
 Mulliken charges and spin densities:
               1          2
     1  Na  -3.163865   0.346460
     2  Na   0.296200   0.192885
     3  Na   0.047419   0.251533
     4  Na   0.172453   0.098122
     5  Na   1.165065  -0.041731
     6  Na   0.928217   0.160245
     7  Na   0.554510  -0.007514
 Sum of Mulliken charges =  -0.00000   1.00000
 Mulliken charges and spin densities with hydrogens summed into heavy atoms:
               1          2
     1  Na  -3.163865   0.346460
     2  Na   0.296200   0.192885
     3  Na   0.047419   0.251533
     4  Na   0.172453   0.098122
     5  Na   1.165065  -0.041731
     6  Na   0.928217   0.160245
     7  Na   0.554510  -0.007514
 Electronic spatial extent (au):  <R**2>=           2757.2140
 Charge=             -0.0000 electrons
 Dipole moment (field-independent basis, Debye):
    X=             -0.2121    Y=             -0.0164    Z=              0.3546  Tot=              0.4135
 Quadrupole moment (field-independent basis, Debye-Ang):
   XX=            -61.4587   YY=            -60.5940   ZZ=            -70.7794
   XY=             -0.4618   XZ=              1.0325   YZ=              2.3917
 Traceless Quadrupole moment (field-independent basis, Debye-Ang):
   XX=              2.8187   YY=              3.6834   ZZ=             -6.5020
   XY=             -0.4618   XZ=              1.0325   YZ=              2.3917
 Octapole moment (field-independent basis, Debye-Ang**2):
  XXX=            -41.1924  YYY=             14.6780  ZZZ=             13.4843  XYY=              4.9977
  XXY=             10.5595  XXZ=             -7.3008  XZZ=              7.5974  YZZ=             -2.5853
  YYZ=              3.1613  XYZ=             -2.4602
 Hexadecapole moment (field-independent basis, Debye-Ang**3):
 XXXX=          -1900.7974 YYYY=          -1676.1442 ZZZZ=           -797.1308 XXXY=            -81.2930
 XXXZ=             12.5803 YYYX=             41.5850 YYYZ=             99.4173 ZZZX=             19.4163
 ZZZY=            -22.6225 XXYY=           -620.1534 XXZZ=           -507.4156 YYZZ=           -417.0876
 XXYZ=            -12.4473 YYXZ=              8.7122 ZZXY=              5.2173
 N-N= 3.184152563316D+02 E-N=-3.366233536122D+03  KE= 1.132912563134D+03
                          Isotropic Fermi Contact Couplings
        Atom                 a.u.       MegaHertz       Gauss      10(-4) cm-1
     1  Na(23)             0.01288      15.23989       5.43797       5.08348
     2  Na(23)             0.33088     391.44170     139.67613     130.57090
     3  Na(23)             0.08734     103.32005      36.86716      34.46386
     4  Na(23)             0.13342     157.84029      56.32134      52.64985
     5  Na(23)             0.06171      73.00285      26.04923      24.35113
     6  Na(23)            -0.00745      -8.80888      -3.14323      -2.93833
     7  Na(23)             0.03343      39.55246      14.11330      13.19328
 --------------------------------------------------------
       Center         ----  Spin Dipole Couplings  ----
                      3XX-RR        3YY-RR        3ZZ-RR
 --------------------------------------------------------
     1   Atom       -0.022660     -0.011548      0.034208
     2   Atom        0.004621      0.003455     -0.008076
     3   Atom       -0.016223      0.000590      0.015633
     4   Atom       -0.011591      0.013137     -0.001546
     5   Atom       -0.000579      0.000115      0.000464
     6   Atom       -0.015009     -0.010783      0.025791
     7   Atom       -0.001528      0.000364      0.001164
 --------------------------------------------------------
                        XY            XZ            YZ
 --------------------------------------------------------
     1   Atom        0.001032      0.017145      0.006194
     2   Atom       -0.002451     -0.000320     -0.000306
     3   Atom        0.006604     -0.007377     -0.020670
     4   Atom       -0.004169     -0.002407      0.015201
     5   Atom        0.004945     -0.002353     -0.006359
     6   Atom        0.002096      0.010431     -0.006010
     7   Atom       -0.000691     -0.001578      0.001843
 --------------------------------------------------------


 ---------------------------------------------------------------------------------
              Anisotropic Spin Dipole Couplings in Principal Axis System
 ---------------------------------------------------------------------------------

       Atom             a.u.   MegaHertz   Gauss  10(-4) cm-1        Axes

              Baa    -0.0275    -3.877    -1.384    -1.293  0.9614  0.0434 -0.2717
     1 Na(23) Bbb    -0.0123    -1.734    -0.619    -0.578 -0.0744  0.9917 -0.1047
              Bcc     0.0397     5.611     2.002     1.872  0.2649  0.1209  0.9567
 
              Baa    -0.0081    -1.143    -0.408    -0.381  0.0315  0.0331  0.9990
     2 Na(23) Bbb     0.0015     0.217     0.078     0.072  0.6188  0.7842 -0.0455
              Bcc     0.0066     0.926     0.330     0.309  0.7849 -0.6196 -0.0042
 
              Baa    -0.0185    -2.614    -0.933    -0.872  0.9510 -0.3087  0.0186
     3 Na(23) Bbb    -0.0136    -1.920    -0.685    -0.640  0.2364  0.7642  0.6001
              Bcc     0.0321     4.534     1.618     1.512 -0.1994 -0.5663  0.7997
 
              Baa    -0.0123    -1.734    -0.619    -0.578  0.9802  0.1914 -0.0513
     4 Na(23) Bbb    -0.0111    -1.562    -0.557    -0.521  0.1437 -0.5086  0.8490
              Bcc     0.0233     3.296     1.176     1.099 -0.1365  0.8395  0.5260
 
              Baa    -0.0069    -0.974    -0.348    -0.325 -0.3944  0.7541  0.5252
     5 Na(23) Bbb    -0.0025    -0.348    -0.124    -0.116  0.7916 -0.0114  0.6109
              Bcc     0.0094     1.323     0.472     0.441  0.4667  0.6567 -0.5925
 
              Baa    -0.0191    -2.692    -0.961    -0.898  0.8753 -0.4089 -0.2583
     6 Na(23) Bbb    -0.0100    -1.407    -0.502    -0.469  0.4295  0.9027  0.0264
              Bcc     0.0290     4.099     1.463     1.367  0.2224 -0.1341  0.9657
 
              Baa    -0.0023    -0.320    -0.114    -0.107  0.8874 -0.0843  0.4533
     7 Na(23) Bbb    -0.0010    -0.137    -0.049    -0.046  0.3197  0.8209 -0.4732
              Bcc     0.0032     0.457     0.163     0.152 -0.3322  0.5648  0.7554
 

 ---------------------------------------------------------------------------------

 No NMR shielding tensors so no spin-rotation constants.
 Leave Link  601 at Tue Nov 28 19:28:52 2023, MaxMem=  1879048192 cpu:               2.2 elap:               0.2
 (Enter /home/sekinelabo/g16/l701.exe)
 ... and contract with generalized density number  0.
 Compute integral first derivatives.
 Leave Link  701 at Tue Nov 28 19:28:52 2023, MaxMem=  1879048192 cpu:               1.5 elap:               0.1
 (Enter /home/sekinelabo/g16/l702.exe)
 L702 exits ... SP integral derivatives will be done elsewhere.
 Leave Link  702 at Tue Nov 28 19:28:52 2023, MaxMem=  1879048192 cpu:               0.4 elap:               0.0
 (Enter /home/sekinelabo/g16/l703.exe)
 Integral derivatives from FoFJK, PRISM(SPDF).
 Compute integral first derivatives, UseDBF=F ICtDFT=           0.
 Calling FoFJK, ICntrl=      2127 FMM=F ISym2X=0 I1Cent= 0 IOpClX= 1 NMat=1 NMatS=1 NMatT=0.
 FoFJK:  IHMeth= 1 ICntrl=    2127 DoSepK=F KAlg= 0 I1Cent=           0 FoldK=F
 IRaf=         0 NMat=       1 IRICut=       1 DoRegI=T DoRafI=F ISym2E= 0 IDoP0=0 IntGTp=1.
 FoFCou: FMM=F IPFlag=           0 FMFlag=      100000 FMFlg1=         800
         NFxFlg=           0 DoJE=F BraDBF=F KetDBF=F FulRan=T
         wScrn=  0.000000 ICntrl=      2127 IOpCl=  1 I1Cent=           0 NGrid=           0
         NMat0=    1 NMatS0=      1 NMatT0=    0 NMatD0=    1 NMtDS0=    0 NMtDT0=    0
 Symmetry not used in FoFCou.
 Leave Link  703 at Tue Nov 28 19:28:54 2023, MaxMem=  1879048192 cpu:              31.9 elap:               2.1
 (Enter /home/sekinelabo/g16/l716.exe)
 Dipole        =-8.34275325D-02-6.46548917D-03 1.39494665D-01
 ***** Axes restored to original set *****
 -------------------------------------------------------------------
 Center     Atomic                   Forces (Hartrees/Bohr)
 Number     Number              X              Y              Z
 -------------------------------------------------------------------
      1       11          -0.001486560    0.000479770    0.000298274
      2       11          -0.000377007    0.000215651   -0.000289610
      3       11          -0.001136829   -0.000742038    0.000047674
      4       11           0.000376649    0.000496915    0.000658079
      5       11           0.000440770   -0.001051673   -0.003610784
      6       11          -0.001265924    0.001366691    0.001744633
      7       11           0.003448901   -0.000765315    0.001151733
 -------------------------------------------------------------------
 Cartesian Forces:  Max     0.003610784 RMS     0.001382337
 Z-matrix is all fixed cartesians, so copy forces.
 Force constants in Cartesian coordinates: 
                1             2             3             4             5 
      1  0.149852D+00
      2 -0.102982D-01  0.110131D+00
      3  0.191320D-02  0.936127D-02  0.130298D+00
      4 -0.192571D-01 -0.516735D-02  0.921400D-02  0.408764D-01
      5  0.212667D-02 -0.182845D-01  0.114542D-02  0.701681D-02  0.476441D-01
      6 -0.285113D-02 -0.749088D-02 -0.142443D-01 -0.677936D-02 -0.899486D-02
      7 -0.660505D-02  0.491100D-02 -0.540040D-02 -0.991192D-02 -0.856018D-02
      8  0.154740D-02  0.424045D-02  0.164295D-02  0.988685D-02 -0.214443D-01
      9 -0.566434D-02  0.348104D-02  0.174624D-03 -0.671173D-02  0.862893D-02
     10 -0.218396D-01  0.390776D-02 -0.397872D-03  0.298186D-02 -0.321743D-02
     11 -0.164496D-02 -0.221701D-01  0.245064D-02 -0.788294D-03 -0.501613D-02
     12  0.803047D-03 -0.702333D-03 -0.174490D-01  0.156343D-02  0.370680D-03
     13 -0.392718D-01  0.518403D-02  0.589810D-02  0.183546D-02 -0.177969D-02
     14  0.112545D-02 -0.232175D-01 -0.834870D-02  0.352901D-03  0.185986D-03
     15 -0.662032D-02  0.174733D-02 -0.368080D-01  0.000000D+00 -0.164450D-03
     16 -0.394153D-01  0.465335D-02 -0.589351D-02 -0.136380D-01  0.214842D-02
     17  0.639500D-02 -0.276580D-01 -0.471959D-02 -0.741740D-02 -0.689814D-02
     18  0.409233D-02 -0.175408D-02 -0.392572D-01 -0.375370D-04 -0.978154D-03
     19 -0.234631D-01 -0.319064D-02 -0.533352D-02 -0.288666D-02  0.226540D-02
     20  0.748598D-03 -0.230418D-01 -0.153199D-02 -0.388352D-02  0.381293D-02
     21  0.832720D-02 -0.464235D-02 -0.227145D-01  0.275159D-02 -0.756994D-05
                6             7             8             9            10 
      6  0.395374D-01
      7  0.218571D-02  0.465738D-01
      8  0.778421D-02 -0.113389D-01  0.424984D-01
      9 -0.118382D-01  0.150732D-01 -0.400864D-02  0.381913D-01
     10 -0.137060D-03 -0.127332D-01 -0.273654D-02 -0.948415D-02  0.348161D-01
     11 -0.476485D-02  0.106794D-01 -0.198455D-01  0.476955D-02 -0.124707D-01
     12  0.229724D-02 -0.235305D-02 -0.889734D-02 -0.131427D-01  0.115515D-01
     13 -0.504608D-02 -0.184795D-03  0.132527D-02 -0.746968D-03 -0.885214D-02
     14 -0.296334D-02 -0.188870D-02  0.464296D-02 -0.168718D-02  0.103352D-01
     15  0.808551D-03 -0.121293D-02  0.250931D-02 -0.768386D-03 -0.363935D-02
     16  0.116747D-01 -0.166676D-01  0.157427D-02  0.832633D-02  0.481794D-02
     17  0.154295D-01  0.393298D-02 -0.123375D-01 -0.135358D-01  0.615950D-03
     18 -0.216138D-01 -0.101279D-01 -0.305505D-03 -0.158040D-01  0.310714D-02
     19  0.953193D-03 -0.471138D-03 -0.258342D-03 -0.792334D-03  0.809047D-03
     20  0.100018D-02  0.226437D-02  0.224546D-02  0.235210D-02  0.356583D-02
     21  0.505305D-02  0.183542D-02  0.127502D-02  0.318733D-02 -0.100019D-02
               11            12            13            14            15 
     11  0.612527D-01
     12  0.585648D-02  0.427907D-01
     13  0.410735D-02 -0.143396D-01  0.346721D-01
     14 -0.169824D-01  0.122810D-01 -0.911911D-02  0.281471D-01
     15 -0.473760D-02 -0.159781D-01  0.105450D-01  0.327041D-02  0.516316D-01
     16 -0.518980D-03  0.288182D-02  0.781120D-02 -0.704921D-03  0.680714D-03
     17 -0.833586D-03 -0.551472D-02 -0.143391D-02  0.546036D-02 -0.206450D-02
     18 -0.229389D-02 -0.529151D-03 -0.165490D-02 -0.124138D-02  0.349100D-03
     19  0.636187D-03 -0.107134D-03  0.399004D-02 -0.100793D-03  0.247269D-03
     20  0.359501D-02 -0.339373D-02  0.171607D-02  0.176340D-02 -0.560506D-03
     21 -0.128033D-02  0.201090D-02  0.534443D-02 -0.131077D-02  0.765167D-03
               16            17            18            19            20 
     16  0.717979D-01
     17 -0.555998D-02  0.487165D-01
     18 -0.104849D-02  0.988265D-02  0.932704D-01
     19 -0.147060D-01  0.346738D-02  0.566939D-02  0.367278D-01
     20 -0.159216D-02 -0.644963D-02 -0.330963D-02 -0.281919D-02  0.180747D-01
     21 -0.166216D-01  0.522428D-03 -0.164154D-01 -0.636865D-03  0.544359D-02
               21 
     21  0.281134D-01
 Leave Link  716 at Tue Nov 28 19:28:54 2023, MaxMem=  1879048192 cpu:               0.4 elap:               0.0
 (Enter /home/sekinelabo/g16/l103.exe)

 GradGradGradGradGradGradGradGradGradGradGradGradGradGradGradGradGradGrad
 Berny optimization.
 Search for a local minimum.
 Step number   1 out of a maximum of    2
 All quantities printed in internal units (Hartrees-Bohrs-Radians)
 Second derivative matrix not updated -- first step.
 ITU=  0
     Eigenvalues ---    0.02328   0.02447   0.03068   0.03439   0.03844
     Eigenvalues ---    0.05031   0.05843   0.07518   0.07749   0.08421
     Eigenvalues ---    0.09593   0.10526   0.13368   0.17206   0.18903
 Angle between quadratic step and forces=  26.32 degrees.
 Linear search not attempted -- first point.
 B after Tr=     0.000000   -0.000000    0.000000
         Rot=    1.000000    0.000000   -0.000000   -0.000000 Ang=   0.00 deg.
 Variable       Old X    -DE/DX   Delta X   Delta X   Delta X     New X
                                 (Linear)    (Quad)   (Total)
    X1       27.08771  -0.00149   0.00000  -0.00846  -0.00846  27.07926
    Y1       29.32571   0.00048   0.00000   0.00979   0.00979  29.33550
    Z1       28.08114   0.00030   0.00000  -0.00761  -0.00761  28.07353
    X2       32.94360  -0.00038   0.00000  -0.01661  -0.01661  32.92698
    Y2       32.84835   0.00022   0.00000  -0.00063  -0.00063  32.84773
    Z2       29.01485  -0.00029   0.00000  -0.00654  -0.00654  29.00831
    X3       34.15170  -0.00114   0.00000  -0.04902  -0.04902  34.10268
    Y3       27.18900  -0.00074   0.00000  -0.00322  -0.00322  27.18578
    Z3       31.68183   0.00005   0.00000   0.02931   0.02931  31.71113
    X4       31.03081   0.00038   0.00000   0.00048   0.00048  31.03129
    Y4       24.13936   0.00050   0.00000   0.00629   0.00629  24.14565
    Z4       26.69937   0.00066   0.00000   0.00051   0.00051  26.69989
    X5       27.37514   0.00044   0.00000   0.01089   0.01089  27.38603
    Y5       27.31070  -0.00105   0.00000  -0.02010  -0.02010  27.29060
    Z5       22.62172  -0.00361   0.00000  -0.07716  -0.07716  22.54456
    X6       28.53657  -0.00127   0.00000  -0.01241  -0.01241  28.52416
    Y6       30.77268   0.00137   0.00000   0.03147   0.03147  30.80415
    Z6       33.60802   0.00174   0.00000   0.01391   0.01391  33.62194
    X7       21.87944   0.00345   0.00000   0.07514   0.07514  21.95457
    Y7       31.41878  -0.00077   0.00000  -0.02360  -0.02360  31.39517
    Z7       31.29746   0.00115   0.00000   0.04757   0.04757  31.34503
         Item               Value     Threshold  Converged?
 Maximum Force            0.003611     0.000450     NO 
 RMS     Force            0.001382     0.000300     NO 
 Maximum Displacement     0.077162     0.001800     NO 
 RMS     Displacement     0.030966     0.001200     NO 
 Predicted change in Energy=-4.028591D-04
 GradGradGradGradGradGradGradGradGradGradGradGradGradGradGradGradGradGrad

 Leave Link  103 at Tue Nov 28 19:28:54 2023, MaxMem=  1879048192 cpu:               0.2 elap:               0.0
 (Enter /home/sekinelabo/g16/l9999.exe)
 1\1\GINC-SEKINELABO-XA7R-R37\Force\UB3LYP\6-311+G(d)\Na7(2)\SEKINELABO
 \28-Nov-2023\0\\#P B3LYP/6-311+g(d) force\\DPGEN\\0,2\Na,14.3342,15.51
 85,14.8599\Na,17.433,17.3826,15.354\Na,18.0723,14.3878,16.7653\Na,16.4
 208,12.774,14.1287\Na,14.4863,14.4522,11.9709\Na,15.1009,16.2842,17.78
 46\Na,11.5781,16.6261,16.5619\\Version=ES64L-G16RevB.01\State=2-A\HF=-
 1136.1270579\S2=0.768793\S2-1=0.\S2A=0.750172\RMSD=2.982e-09\RMSF=1.38
 2e-03\Dipole=-0.0311025,0.1555537,-0.0360057\Quadrupole=2.0143534,-4.2
 319537,2.2176003,-1.7413247,1.0188522,1.9965465\PG=C01 [X(Na7)]\\@


 DEFINE YOUR TERMS, YOU WILL PERMIT ME AGAIN TO SAY, 
 OR WE SHALL NEVER UNDERSTAND ONE ANOTHER.

                                    -- VOLTAIRE
 Job cpu time:       0 days  0 hours  3 minutes 57.6 seconds.
 Elapsed time:       0 days  0 hours  0 minutes 20.4 seconds.
 File lengths (MBytes):  RWF=     32 Int=      0 D2E=      0 Chk=      4 Scr=      1
 Normal termination of Gaussian 16 at Tue Nov 28 19:28:54 2023.
