 Set GAUSS_MDEF to "14GB".
 Entering Gaussian System, Link 0=g16
 Initial command:
 /home/sekinelabo/g16/l1.exe "/home/sekinelabo/g16temp/Gau-1287407.inp" -scrdir="/home/sekinelabo/g16temp/"
 Entering Link 1 = /home/sekinelabo/g16/l1.exe PID=   1287409.
  
 Copyright (c) 1988-2017, Gaussian, Inc.  All Rights Reserved.
  
 This is part of the Gaussian(R) 16 program.  It is based on
 the Gaussian(R) 09 system (copyright 2009, Gaussian, Inc.),
 the Gaussian(R) 03 system (copyright 2003, Gaussian, Inc.),
 the Gaussian(R) 98 system (copyright 1998, Gaussian, Inc.),
 the Gaussian(R) 94 system (copyright 1995, Gaussian, Inc.),
 the Gaussian 92(TM) system (copyright 1992, Gaussian, Inc.),
 the Gaussian 90(TM) system (copyright 1990, Gaussian, Inc.),
 the Gaussian 88(TM) system (copyright 1988, Gaussian, Inc.),
 the Gaussian 86(TM) system (copyright 1986, Carnegie Mellon
 University), and the Gaussian 82(TM) system (copyright 1983,
 Carnegie Mellon University). Gaussian is a federally registered
 trademark of Gaussian, Inc.
  
 This software contains proprietary and confidential information,
 including trade secrets, belonging to Gaussian, Inc.
  
 This software is provided under written license and may be
 used, copied, transmitted, or stored only in accord with that
 written license.
  
 The following legend is applicable only to US Government
 contracts under FAR:
  
                    RESTRICTED RIGHTS LEGEND
  
 Use, reproduction and disclosure by the US Government is
 subject to restrictions as set forth in subparagraphs (a)
 and (c) of the Commercial Computer Software - Restricted
 Rights clause in FAR 52.227-19.
  
 Gaussian, Inc.
 340 Quinnipiac St., Bldg. 40, Wallingford CT 06492
  
  
 ---------------------------------------------------------------
 Warning -- This program may not be used in any manner that
 competes with the business of Gaussian, Inc. or will provide
 assistance to any competitor of Gaussian, Inc.  The licensee
 of this program is prohibited from giving any competitor of
 Gaussian, Inc. access to this program.  By using this program,
 the user acknowledges that Gaussian, Inc. is engaged in the
 business of creating and licensing software in the field of
 computational chemistry and represents and warrants to the
 licensee that it is not a competitor of Gaussian, Inc. and that
 it will not use this program in any manner prohibited above.
 ---------------------------------------------------------------
  

 Cite this work as:
 Gaussian 16, Revision B.01,
 M. J. Frisch, G. W. Trucks, H. B. Schlegel, G. E. Scuseria, 
 M. A. Robb, J. R. Cheeseman, G. Scalmani, V. Barone, 
 G. A. Petersson, H. Nakatsuji, X. Li, M. Caricato, A. V. Marenich, 
 J. Bloino, B. G. Janesko, R. Gomperts, B. Mennucci, H. P. Hratchian, 
 J. V. Ortiz, A. F. Izmaylov, J. L. Sonnenberg, D. Williams-Young, 
 F. Ding, F. Lipparini, F. Egidi, J. Goings, B. Peng, A. Petrone, 
 T. Henderson, D. Ranasinghe, V. G. Zakrzewski, J. Gao, N. Rega, 
 G. Zheng, W. Liang, M. Hada, M. Ehara, K. Toyota, R. Fukuda, 
 J. Hasegawa, M. Ishida, T. Nakajima, Y. Honda, O. Kitao, H. Nakai, 
 T. Vreven, K. Throssell, J. A. Montgomery, Jr., J. E. Peralta, 
 F. Ogliaro, M. J. Bearpark, J. J. Heyd, E. N. Brothers, K. N. Kudin, 
 V. N. Staroverov, T. A. Keith, R. Kobayashi, J. Normand, 
 K. Raghavachari, A. P. Rendell, J. C. Burant, S. S. Iyengar, 
 J. Tomasi, M. Cossi, J. M. Millam, M. Klene, C. Adamo, R. Cammi, 
 J. W. Ochterski, R. L. Martin, K. Morokuma, O. Farkas, 
 J. B. Foresman, and D. J. Fox, Gaussian, Inc., Wallingford CT, 2016.
 
 ******************************************
 Gaussian 16:  ES64L-G16RevB.01 20-Dec-2017
                 4-Dec-2023 
 ******************************************
 %nproc=15
 Will use up to   15 processors via shared memory.
 -------------------------
 #P B3LYP/6-311+g(d) force
 -------------------------
 1/10=7,30=1,38=1/1,3;
 2/12=2,17=6,18=5,40=1/2;
 3/5=4,6=6,7=11,11=2,25=1,30=1,71=1,74=-5/1,2,3;
 4//1;
 5/5=2,38=5/2;
 6/7=2,8=2,9=2,10=2,28=1/1;
 7/29=1/1,2,3,16;
 1/10=7,30=1/3;
 99//99;
 Leave Link    1 at Mon Dec  4 03:10:43 2023, MaxMem=           0 cpu:               0.3 elap:               0.0
 (Enter /home/sekinelabo/g16/l101.exe)
 -----
 DPGEN
 -----
 Symbolic Z-matrix:
 Charge =  0 Multiplicity = 2
 Na                    12.2663   14.6747   12.9802 
 Na                    14.0118   12.8229   10.3906 
 Na                    13.0715   11.2487   13.4001 
 Na                    16.7733   12.1783   12.6114 
 Na                    10.3244   11.6281   11.2895 
 Na                    11.0975   9.24977   14.0638 
 Na                    8.51009   14.2524   11.3191 
 
 ITRead=  0  0  0  0  0  0  0
 MicOpt= -1 -1 -1 -1 -1 -1 -1
 NAtoms=      7 NQM=        7 NQMF=       0 NMMI=      0 NMMIF=      0
                NMic=       0 NMicF=      0.
                    Isotopes and Nuclear Properties:
 (Nuclear quadrupole moments (NQMom) in fm**2, nuclear magnetic moments (NMagM)
  in nuclear magnetons)

  Atom         1           2           3           4           5           6           7
 IAtWgt=          23          23          23          23          23          23          23
 AtmWgt=  22.9897697  22.9897697  22.9897697  22.9897697  22.9897697  22.9897697  22.9897697
 NucSpn=           3           3           3           3           3           3           3
 AtZEff=  -0.0000000  -0.0000000  -0.0000000  -0.0000000  -0.0000000  -0.0000000  -0.0000000
 NQMom=   10.4000000  10.4000000  10.4000000  10.4000000  10.4000000  10.4000000  10.4000000
 NMagM=    2.2175200   2.2175200   2.2175200   2.2175200   2.2175200   2.2175200   2.2175200
 AtZNuc=  11.0000000  11.0000000  11.0000000  11.0000000  11.0000000  11.0000000  11.0000000
 Leave Link  101 at Mon Dec  4 03:10:43 2023, MaxMem=  1879048192 cpu:               2.5 elap:               0.2
 (Enter /home/sekinelabo/g16/l103.exe)

 GradGradGradGradGradGradGradGradGradGradGradGradGradGradGradGradGradGrad
 Berny optimization.
 Initialization pass.
 Trust Radius=3.00D-01 FncErr=1.00D-07 GrdErr=1.00D-07 EigMax=2.50D+02 EigMin=1.00D-04
 Number of steps in this run=      2 maximum allowed number of steps=      2.
 GradGradGradGradGradGradGradGradGradGradGradGradGradGradGradGradGradGrad

 Leave Link  103 at Mon Dec  4 03:10:43 2023, MaxMem=  1879048192 cpu:               0.2 elap:               0.0
 (Enter /home/sekinelabo/g16/l202.exe)
                          Input orientation:                          
 ---------------------------------------------------------------------
 Center     Atomic      Atomic             Coordinates (Angstroms)
 Number     Number       Type             X           Y           Z
 ---------------------------------------------------------------------
      1         11           0       12.266300   14.674700   12.980200
      2         11           0       14.011800   12.822900   10.390600
      3         11           0       13.071500   11.248700   13.400100
      4         11           0       16.773300   12.178300   12.611400
      5         11           0       10.324400   11.628100   11.289500
      6         11           0       11.097500    9.249770   14.063800
      7         11           0        8.510090   14.252400   11.319100
 ---------------------------------------------------------------------
                    Distance matrix (angstroms):
                    1          2          3          4          5
     1  Na   0.000000
     2  Na   3.630697   0.000000
     3  Na   3.544311   3.524111   0.000000
     4  Na   5.165373   3.601853   3.897374   0.000000
     5  Na   3.988886   3.979006   3.484987   6.605941   0.000000
     6  Na   5.654215   5.895151   2.886675   6.549844   3.735087
     7  Na   4.128765   5.759722   5.844590   8.616993   3.190540
                    6          7
     6  Na   0.000000
     7  Na   6.265331   0.000000
 Stoichiometry    Na7(2)
 Framework group  C1[X(Na7)]
 Deg. of freedom    15
 Full point group                 C1      NOp   1
 Largest Abelian subgroup         C1      NOp   1
 Largest concise Abelian subgroup C1      NOp   1
                         Standard orientation:                         
 ---------------------------------------------------------------------
 Center     Atomic      Atomic             Coordinates (Angstroms)
 Number     Number       Type             X           Y           Z
 ---------------------------------------------------------------------
      1         11           0        0.325833   -1.775267    1.698347
      2         11           0       -1.397821   -1.633365   -1.493963
      3         11           0       -1.047294    1.259676    0.487653
      4         11           0       -4.450155   -0.603940    0.117522
      5         11           0        1.937392    0.508744   -1.147244
      6         11           0        0.505263    3.677972    0.215063
      7         11           0        4.126782   -1.433821    0.122622
 ---------------------------------------------------------------------
 Rotational constants (GHZ):           0.7241060           0.4331987           0.3251265
 Leave Link  202 at Mon Dec  4 03:10:43 2023, MaxMem=  1879048192 cpu:               0.0 elap:               0.0
 (Enter /home/sekinelabo/g16/l301.exe)
 Standard basis: 6-311+G(d) (5D, 7F)
 Ernie: Thresh=  0.10000D-02 Tol=  0.10000D-05 Strict=F.
 There are   217 symmetry adapted cartesian basis functions of A   symmetry.
 There are   210 symmetry adapted basis functions of A   symmetry.
   210 basis functions,   350 primitive gaussians,   217 cartesian basis functions
    39 alpha electrons       38 beta electrons
       nuclear repulsion energy       307.2697577780 Hartrees.
 IExCor=  402 DFT=T Ex+Corr=B3LYP ExCW=0 ScaHFX=  0.200000
 ScaDFX=  0.800000  0.720000  1.000000  0.810000 ScalE2=  1.000000  1.000000
 IRadAn=      5 IRanWt=     -1 IRanGd=            0 ICorTp=0 IEmpDi=  4
 NAtoms=    7 NActive=    7 NUniq=    7 SFac= 1.00D+00 NAtFMM=   60 NAOKFM=F Big=F
 Integral buffers will be    131072 words long.
 Raffenetti 2 integral format.
 Two-electron integral symmetry is turned on.
 Leave Link  301 at Mon Dec  4 03:10:43 2023, MaxMem=  1879048192 cpu:               0.5 elap:               0.0
 (Enter /home/sekinelabo/g16/l302.exe)
 NPDir=0 NMtPBC=     1 NCelOv=     1 NCel=       1 NClECP=     1 NCelD=      1
         NCelK=      1 NCelE2=     1 NClLst=     1 CellRange=     0.0.
 One-electron integrals computed using PRISM.
 One-electron integral symmetry used in STVInt
 NBasis=   210 RedAO= T EigKep=  3.25D-06  NBF=   210
 NBsUse=   210 1.00D-06 EigRej= -1.00D+00 NBFU=   210
 Precomputing XC quadrature grid using
 IXCGrd= 4 IRadAn=           5 IRanWt=          -1 IRanGd=           0 AccXCQ= 0.00D+00.
 Generated NRdTot=       0 NPtTot=           0 NUsed=           0 NTot=          32
 NSgBfM=   209   209   209   209   209 MxSgAt=     7 MxSgA2=     7.
 Leave Link  302 at Mon Dec  4 03:10:43 2023, MaxMem=  1879048192 cpu:               2.0 elap:               0.1
 (Enter /home/sekinelabo/g16/l303.exe)
 DipDrv:  MaxL=1.
 Leave Link  303 at Mon Dec  4 03:10:43 2023, MaxMem=  1879048192 cpu:               0.5 elap:               0.0
 (Enter /home/sekinelabo/g16/l401.exe)
 ExpMin= 7.60D-03 ExpMax= 3.62D+04 ExpMxC= 1.21D+03 IAcc=3 IRadAn=         5 AccDes= 0.00D+00
 Harris functional with IExCor=  402 and IRadAn=       5 diagonalized for initial guess.
 HarFok:  IExCor=  402 AccDes= 0.00D+00 IRadAn=         5 IDoV= 1 UseB2=F ITyADJ=14
 ICtDFT=  3500011 ScaDFX=  1.000000  1.000000  1.000000  1.000000
 FoFCou: FMM=F IPFlag=           0 FMFlag=      100000 FMFlg1=           0
         NFxFlg=           0 DoJE=T BraDBF=F KetDBF=T FulRan=T
         wScrn=  0.000000 ICntrl=       500 IOpCl=  0 I1Cent=   200000004 NGrid=           0
         NMat0=    1 NMatS0=      1 NMatT0=    0 NMatD0=    1 NMtDS0=    0 NMtDT0=    0
 Petite list used in FoFCou.
 Harris En= -1135.88563155160    
 JPrj=0 DoOrth=F DoCkMO=F.
 Initial guess <Sx>= 0.0000 <Sy>= 0.0000 <Sz>= 0.5000 <S**2>= 0.7500 S= 0.5000
 Leave Link  401 at Mon Dec  4 03:10:44 2023, MaxMem=  1879048192 cpu:               4.3 elap:               0.3
 (Enter /home/sekinelabo/g16/l502.exe)
 Keep R1 and R2 ints in memory in canonical form, NReq=506573307.
 FoFCou: FMM=F IPFlag=           0 FMFlag=           0 FMFlg1=           0
         NFxFlg=           0 DoJE=F BraDBF=F KetDBF=F FulRan=T
         wScrn=  0.000000 ICntrl=       600 IOpCl=  0 I1Cent=           0 NGrid=           0
         NMat0=    1 NMatS0=  22155 NMatT0=    0 NMatD0=    1 NMtDS0=    0 NMtDT0=    0
 Symmetry not used in FoFCou.
 Two-electron integral symmetry not used.
 UHF open shell SCF:
 Using DIIS extrapolation, IDIIS=  1040.
 NGot=  1879048192 LenX=  1388082593 LenY=  1388035063
 Requested convergence on RMS density matrix=1.00D-08 within 128 cycles.
 Requested convergence on MAX density matrix=1.00D-06.
 Requested convergence on             energy=1.00D-06.
 No special actions if energy rises.

 Cycle   1  Pass 1  IDiag  1:
 E= -1136.08200427668    
 DIIS: error= 1.09D-02 at cycle   1 NSaved=   1.
 NSaved= 1 IEnMin= 1 EnMin= -1136.08200427668     IErMin= 1 ErrMin= 1.09D-02
 ErrMax= 1.09D-02  0.00D+00 EMaxC= 1.00D-01 BMatC= 1.88D-01 BMatP= 1.88D-01
 IDIUse=3 WtCom= 8.91D-01 WtEn= 1.09D-01
 Coeff-Com:  0.100D+01
 Coeff-En:   0.100D+01
 Coeff:      0.100D+01
 Gap=     0.025 Goal=   None    Shift=    0.000
 Gap=     0.041 Goal=   None    Shift=    0.000
 GapD=    0.025 DampG=0.250 DampE=0.500 DampFc=0.2500 IDamp=-1.
 Damping current iteration by 2.50D-01
 RMSDP=1.24D-02 MaxDP=1.10D+00              OVMax= 2.79D-01

 Cycle   2  Pass 1  IDiag  1:
 E= -1136.09306565591     Delta-E=       -0.011061379236 Rises=F Damp=T
 DIIS: error= 7.65D-03 at cycle   2 NSaved=   2.
 NSaved= 2 IEnMin= 2 EnMin= -1136.09306565591     IErMin= 2 ErrMin= 7.65D-03
 ErrMax= 7.65D-03  0.00D+00 EMaxC= 1.00D-01 BMatC= 7.18D-02 BMatP= 1.88D-01
 IDIUse=3 WtCom= 9.24D-01 WtEn= 7.65D-02
 Coeff-Com: -0.126D+01 0.226D+01
 Coeff-En:   0.000D+00 0.100D+01
 Coeff:     -0.116D+01 0.216D+01
 Gap=     0.030 Goal=   None    Shift=    0.000
 Gap=     0.054 Goal=   None    Shift=    0.000
 RMSDP=5.16D-03 MaxDP=4.28D-01 DE=-1.11D-02 OVMax= 2.80D-01

 Cycle   3  Pass 1  IDiag  1:
 E= -1136.11011615342     Delta-E=       -0.017050497505 Rises=F Damp=F
 DIIS: error= 3.86D-03 at cycle   3 NSaved=   3.
 NSaved= 3 IEnMin= 3 EnMin= -1136.11011615342     IErMin= 3 ErrMin= 3.86D-03
 ErrMax= 3.86D-03  0.00D+00 EMaxC= 1.00D-01 BMatC= 4.08D-03 BMatP= 7.18D-02
 IDIUse=3 WtCom= 9.61D-01 WtEn= 3.86D-02
 Coeff-Com: -0.296D+00 0.515D+00 0.781D+00
 Coeff-En:   0.000D+00 0.000D+00 0.100D+01
 Coeff:     -0.285D+00 0.495D+00 0.790D+00
 Gap=     0.028 Goal=   None    Shift=    0.000
 Gap=     0.050 Goal=   None    Shift=    0.000
 RMSDP=3.30D-03 MaxDP=1.36D-01 DE=-1.71D-02 OVMax= 1.54D-01

 Cycle   4  Pass 1  IDiag  1:
 E= -1136.10956848978     Delta-E=        0.000547663642 Rises=F Damp=F
 DIIS: error= 4.01D-03 at cycle   4 NSaved=   4.
 NSaved= 4 IEnMin= 3 EnMin= -1136.11011615342     IErMin= 3 ErrMin= 3.86D-03
 ErrMax= 4.01D-03  0.00D+00 EMaxC= 1.00D-01 BMatC= 4.64D-03 BMatP= 4.08D-03
 IDIUse=3 WtCom= 1.36D-01 WtEn= 8.64D-01
 Coeff-Com: -0.123D-01 0.178D-01 0.515D+00 0.479D+00
 Coeff-En:   0.000D+00 0.000D+00 0.524D+00 0.476D+00
 Coeff:     -0.167D-02 0.243D-02 0.523D+00 0.477D+00
 Gap=     0.028 Goal=   None    Shift=    0.000
 Gap=     0.047 Goal=   None    Shift=    0.000
 RMSDP=1.59D-03 MaxDP=7.90D-02 DE= 5.48D-04 OVMax= 8.39D-02

 Cycle   5  Pass 1  IDiag  1:
 E= -1136.11446243459     Delta-E=       -0.004893944809 Rises=F Damp=F
 DIIS: error= 3.61D-04 at cycle   5 NSaved=   5.
 NSaved= 5 IEnMin= 5 EnMin= -1136.11446243459     IErMin= 5 ErrMin= 3.61D-04
 ErrMax= 3.61D-04  0.00D+00 EMaxC= 1.00D-01 BMatC= 7.78D-05 BMatP= 4.08D-03
 IDIUse=3 WtCom= 9.96D-01 WtEn= 3.61D-03
 Coeff-Com: -0.403D-03-0.427D-03 0.267D+00 0.242D+00 0.492D+00
 Coeff-En:   0.000D+00 0.000D+00 0.000D+00 0.000D+00 0.100D+01
 Coeff:     -0.402D-03-0.425D-03 0.266D+00 0.241D+00 0.494D+00
 Gap=     0.028 Goal=   None    Shift=    0.000
 Gap=     0.047 Goal=   None    Shift=    0.000
 RMSDP=2.98D-04 MaxDP=1.26D-02 DE=-4.89D-03 OVMax= 1.53D-02

 Cycle   6  Pass 1  IDiag  1:
 E= -1136.11455466310     Delta-E=       -0.000092228515 Rises=F Damp=F
 DIIS: error= 1.92D-04 at cycle   6 NSaved=   6.
 NSaved= 6 IEnMin= 6 EnMin= -1136.11455466310     IErMin= 6 ErrMin= 1.92D-04
 ErrMax= 1.92D-04  0.00D+00 EMaxC= 1.00D-01 BMatC= 1.35D-05 BMatP= 7.78D-05
 IDIUse=3 WtCom= 9.98D-01 WtEn= 1.92D-03
 Coeff-Com:  0.164D-02-0.292D-02-0.133D-01-0.246D-01 0.255D+00 0.784D+00
 Coeff-En:   0.000D+00 0.000D+00 0.000D+00 0.000D+00 0.743D-01 0.926D+00
 Coeff:      0.164D-02-0.291D-02-0.133D-01-0.246D-01 0.255D+00 0.784D+00
 Gap=     0.029 Goal=   None    Shift=    0.000
 Gap=     0.047 Goal=   None    Shift=    0.000
 RMSDP=1.92D-04 MaxDP=1.03D-02 DE=-9.22D-05 OVMax= 9.46D-03

 Cycle   7  Pass 1  IDiag  1:
 E= -1136.11458667144     Delta-E=       -0.000032008344 Rises=F Damp=F
 DIIS: error= 7.64D-05 at cycle   7 NSaved=   7.
 NSaved= 7 IEnMin= 7 EnMin= -1136.11458667144     IErMin= 7 ErrMin= 7.64D-05
 ErrMax= 7.64D-05  0.00D+00 EMaxC= 1.00D-01 BMatC= 2.63D-06 BMatP= 1.35D-05
 IDIUse=1 WtCom= 1.00D+00 WtEn= 0.00D+00
 Coeff-Com:  0.806D-03-0.125D-02-0.430D-01-0.472D-01 0.405D-01 0.353D+00
 Coeff-Com:  0.697D+00
 Coeff:      0.806D-03-0.125D-02-0.430D-01-0.472D-01 0.405D-01 0.353D+00
 Coeff:      0.697D+00
 Gap=     0.029 Goal=   None    Shift=    0.000
 Gap=     0.047 Goal=   None    Shift=    0.000
 RMSDP=1.15D-04 MaxDP=6.15D-03 DE=-3.20D-05 OVMax= 6.95D-03

 Cycle   8  Pass 1  IDiag  1:
 E= -1136.11459712425     Delta-E=       -0.000010452807 Rises=F Damp=F
 DIIS: error= 4.76D-05 at cycle   8 NSaved=   8.
 NSaved= 8 IEnMin= 8 EnMin= -1136.11459712425     IErMin= 8 ErrMin= 4.76D-05
 ErrMax= 4.76D-05  0.00D+00 EMaxC= 1.00D-01 BMatC= 9.75D-07 BMatP= 2.63D-06
 IDIUse=1 WtCom= 1.00D+00 WtEn= 0.00D+00
 Coeff-Com:  0.464D-03-0.510D-03-0.143D-01-0.144D-01-0.619D-01-0.742D-01
 Coeff-Com:  0.328D+00 0.837D+00
 Coeff:      0.464D-03-0.510D-03-0.143D-01-0.144D-01-0.619D-01-0.742D-01
 Coeff:      0.328D+00 0.837D+00
 Gap=     0.029 Goal=   None    Shift=    0.000
 Gap=     0.048 Goal=   None    Shift=    0.000
 RMSDP=9.79D-05 MaxDP=5.81D-03 DE=-1.05D-05 OVMax= 7.78D-03

 Cycle   9  Pass 1  IDiag  1:
 E= -1136.11460465578     Delta-E=       -0.000007531529 Rises=F Damp=F
 DIIS: error= 3.14D-05 at cycle   9 NSaved=   9.
 NSaved= 9 IEnMin= 9 EnMin= -1136.11460465578     IErMin= 9 ErrMin= 3.14D-05
 ErrMax= 3.14D-05  0.00D+00 EMaxC= 1.00D-01 BMatC= 3.47D-07 BMatP= 9.75D-07
 IDIUse=1 WtCom= 1.00D+00 WtEn= 0.00D+00
 Coeff-Com:  0.624D-03-0.760D-03 0.957D-02 0.853D-02-0.258D-01-0.887D-01
 Coeff-Com: -0.237D+00-0.246D-01 0.136D+01
 Coeff:      0.624D-03-0.760D-03 0.957D-02 0.853D-02-0.258D-01-0.887D-01
 Coeff:     -0.237D+00-0.246D-01 0.136D+01
 Gap=     0.029 Goal=   None    Shift=    0.000
 Gap=     0.048 Goal=   None    Shift=    0.000
 RMSDP=1.12D-04 MaxDP=4.99D-03 DE=-7.53D-06 OVMax= 1.03D-02

 Cycle  10  Pass 1  IDiag  1:
 E= -1136.11461081167     Delta-E=       -0.000006155893 Rises=F Damp=F
 DIIS: error= 2.25D-05 at cycle  10 NSaved=  10.
 NSaved=10 IEnMin=10 EnMin= -1136.11461081167     IErMin=10 ErrMin= 2.25D-05
 ErrMax= 2.25D-05  0.00D+00 EMaxC= 1.00D-01 BMatC= 1.52D-07 BMatP= 3.47D-07
 IDIUse=1 WtCom= 1.00D+00 WtEn= 0.00D+00
 Coeff-Com:  0.150D-04-0.392D-04 0.882D-02 0.636D-02 0.168D-01 0.184D-01
 Coeff-Com: -0.164D+00-0.315D+00 0.222D+00 0.121D+01
 Coeff:      0.150D-04-0.392D-04 0.882D-02 0.636D-02 0.168D-01 0.184D-01
 Coeff:     -0.164D+00-0.315D+00 0.222D+00 0.121D+01
 Gap=     0.029 Goal=   None    Shift=    0.000
 Gap=     0.048 Goal=   None    Shift=    0.000
 RMSDP=8.21D-05 MaxDP=3.45D-03 DE=-6.16D-06 OVMax= 8.53D-03

 Cycle  11  Pass 1  IDiag  1:
 E= -1136.11461369320     Delta-E=       -0.000002881528 Rises=F Damp=F
 DIIS: error= 1.19D-05 at cycle  11 NSaved=  11.
 NSaved=11 IEnMin=11 EnMin= -1136.11461369320     IErMin=11 ErrMin= 1.19D-05
 ErrMax= 1.19D-05  0.00D+00 EMaxC= 1.00D-01 BMatC= 8.14D-08 BMatP= 1.52D-07
 IDIUse=1 WtCom= 1.00D+00 WtEn= 0.00D+00
 Coeff-Com: -0.353D-03 0.424D-03 0.886D-03-0.125D-02 0.246D-01 0.647D-01
 Coeff-Com:  0.455D-01-0.198D+00-0.643D+00 0.708D+00 0.999D+00
 Coeff:     -0.353D-03 0.424D-03 0.886D-03-0.125D-02 0.246D-01 0.647D-01
 Coeff:      0.455D-01-0.198D+00-0.643D+00 0.708D+00 0.999D+00
 Gap=     0.029 Goal=   None    Shift=    0.000
 Gap=     0.048 Goal=   None    Shift=    0.000
 RMSDP=7.12D-05 MaxDP=3.72D-03 DE=-2.88D-06 OVMax= 7.33D-03

 Cycle  12  Pass 1  IDiag  1:
 E= -1136.11461494313     Delta-E=       -0.000001249925 Rises=F Damp=F
 DIIS: error= 5.90D-06 at cycle  12 NSaved=  12.
 NSaved=12 IEnMin=12 EnMin= -1136.11461494313     IErMin=12 ErrMin= 5.90D-06
 ErrMax= 5.90D-06  0.00D+00 EMaxC= 1.00D-01 BMatC= 1.56D-08 BMatP= 8.14D-08
 IDIUse=1 WtCom= 1.00D+00 WtEn= 0.00D+00
 Coeff-Com: -0.791D-04 0.847D-04-0.950D-03-0.169D-02 0.601D-02 0.254D-01
 Coeff-Com:  0.571D-01-0.296D-01-0.308D+00 0.381D-01 0.352D+00 0.862D+00
 Coeff:     -0.791D-04 0.847D-04-0.950D-03-0.169D-02 0.601D-02 0.254D-01
 Coeff:      0.571D-01-0.296D-01-0.308D+00 0.381D-01 0.352D+00 0.862D+00
 Gap=     0.029 Goal=   None    Shift=    0.000
 Gap=     0.048 Goal=   None    Shift=    0.000
 RMSDP=2.52D-05 MaxDP=1.37D-03 DE=-1.25D-06 OVMax= 2.81D-03

 Cycle  13  Pass 1  IDiag  1:
 E= -1136.11461512821     Delta-E=       -0.000000185080 Rises=F Damp=F
 DIIS: error= 2.69D-06 at cycle  13 NSaved=  13.
 NSaved=13 IEnMin=13 EnMin= -1136.11461512821     IErMin=13 ErrMin= 2.69D-06
 ErrMax= 2.69D-06  0.00D+00 EMaxC= 1.00D-01 BMatC= 4.40D-09 BMatP= 1.56D-08
 IDIUse=1 WtCom= 1.00D+00 WtEn= 0.00D+00
 Coeff-Com:  0.110D-03-0.143D-03-0.668D-03-0.498D-03-0.517D-02-0.774D-02
 Coeff-Com:  0.122D-01 0.478D-01 0.446D-01-0.150D+00-0.182D+00 0.268D+00
 Coeff-Com:  0.973D+00
 Coeff:      0.110D-03-0.143D-03-0.668D-03-0.498D-03-0.517D-02-0.774D-02
 Coeff:      0.122D-01 0.478D-01 0.446D-01-0.150D+00-0.182D+00 0.268D+00
 Coeff:      0.973D+00
 Gap=     0.029 Goal=   None    Shift=    0.000
 Gap=     0.048 Goal=   None    Shift=    0.000
 RMSDP=1.29D-05 MaxDP=8.28D-04 DE=-1.85D-07 OVMax= 1.34D-03

 Cycle  14  Pass 1  IDiag  1:
 E= -1136.11461517049     Delta-E=       -0.000000042281 Rises=F Damp=F
 DIIS: error= 1.28D-06 at cycle  14 NSaved=  14.
 NSaved=14 IEnMin=14 EnMin= -1136.11461517049     IErMin=14 ErrMin= 1.28D-06
 ErrMax= 1.28D-06  0.00D+00 EMaxC= 1.00D-01 BMatC= 8.66D-10 BMatP= 4.40D-09
 IDIUse=1 WtCom= 1.00D+00 WtEn= 0.00D+00
 Coeff-Com:  0.615D-04-0.776D-04 0.148D-03 0.249D-03-0.208D-02-0.836D-02
 Coeff-Com: -0.143D-01 0.160D-01 0.882D-01-0.232D-01-0.115D+00-0.197D+00
 Coeff-Com:  0.665D-01 0.119D+01
 Coeff:      0.615D-04-0.776D-04 0.148D-03 0.249D-03-0.208D-02-0.836D-02
 Coeff:     -0.143D-01 0.160D-01 0.882D-01-0.232D-01-0.115D+00-0.197D+00
 Coeff:      0.665D-01 0.119D+01
 Gap=     0.029 Goal=   None    Shift=    0.000
 Gap=     0.048 Goal=   None    Shift=    0.000
 RMSDP=5.48D-06 MaxDP=2.59D-04 DE=-4.23D-08 OVMax= 5.26D-04

 Cycle  15  Pass 1  IDiag  1:
 E= -1136.11461518094     Delta-E=       -0.000000010457 Rises=F Damp=F
 DIIS: error= 6.61D-07 at cycle  15 NSaved=  15.
 NSaved=15 IEnMin=15 EnMin= -1136.11461518094     IErMin=15 ErrMin= 6.61D-07
 ErrMax= 6.61D-07  0.00D+00 EMaxC= 1.00D-01 BMatC= 2.13D-10 BMatP= 8.66D-10
 IDIUse=1 WtCom= 1.00D+00 WtEn= 0.00D+00
 Coeff-Com: -0.331D-04 0.426D-04 0.229D-03 0.877D-04 0.849D-03 0.223D-02
 Coeff-Com:  0.982D-03-0.109D-01-0.265D-01 0.339D-01 0.572D-01-0.281D-01
 Coeff-Com: -0.192D+00-0.208D+00 0.137D+01
 Coeff:     -0.331D-04 0.426D-04 0.229D-03 0.877D-04 0.849D-03 0.223D-02
 Coeff:      0.982D-03-0.109D-01-0.265D-01 0.339D-01 0.572D-01-0.281D-01
 Coeff:     -0.192D+00-0.208D+00 0.137D+01
 Gap=     0.029 Goal=   None    Shift=    0.000
 Gap=     0.048 Goal=   None    Shift=    0.000
 RMSDP=2.72D-06 MaxDP=1.38D-04 DE=-1.05D-08 OVMax= 2.50D-04

 Cycle  16  Pass 1  IDiag  1:
 E= -1136.11461518394     Delta-E=       -0.000000002997 Rises=F Damp=F
 DIIS: error= 3.94D-07 at cycle  16 NSaved=  16.
 NSaved=16 IEnMin=16 EnMin= -1136.11461518394     IErMin=16 ErrMin= 3.94D-07
 ErrMax= 3.94D-07  0.00D+00 EMaxC= 1.00D-01 BMatC= 5.67D-11 BMatP= 2.13D-10
 IDIUse=1 WtCom= 1.00D+00 WtEn= 0.00D+00
 Coeff-Com: -0.619D-05 0.716D-05-0.136D-04-0.346D-04 0.279D-03 0.175D-02
 Coeff-Com:  0.282D-02-0.358D-02-0.148D-01 0.426D-02 0.127D-01 0.476D-01
 Coeff-Com:  0.210D-01-0.252D+00-0.231D+00 0.141D+01
 Coeff:     -0.619D-05 0.716D-05-0.136D-04-0.346D-04 0.279D-03 0.175D-02
 Coeff:      0.282D-02-0.358D-02-0.148D-01 0.426D-02 0.127D-01 0.476D-01
 Coeff:      0.210D-01-0.252D+00-0.231D+00 0.141D+01
 Gap=     0.029 Goal=   None    Shift=    0.000
 Gap=     0.048 Goal=   None    Shift=    0.000
 RMSDP=1.49D-06 MaxDP=1.24D-04 DE=-3.00D-09 OVMax= 1.07D-04

 Cycle  17  Pass 1  IDiag  1:
 E= -1136.11461518487     Delta-E=       -0.000000000932 Rises=F Damp=F
 DIIS: error= 2.25D-07 at cycle  17 NSaved=  17.
 NSaved=17 IEnMin=17 EnMin= -1136.11461518487     IErMin=17 ErrMin= 2.25D-07
 ErrMax= 2.25D-07  0.00D+00 EMaxC= 1.00D-01 BMatC= 1.71D-11 BMatP= 5.67D-11
 IDIUse=1 WtCom= 1.00D+00 WtEn= 0.00D+00
 Coeff-Com:  0.157D-04-0.207D-04-0.847D-04-0.278D-04-0.238D-03-0.920D-03
 Coeff-Com: -0.125D-02 0.407D-02 0.126D-01-0.147D-01-0.196D-01 0.552D-02
 Coeff-Com:  0.625D-01 0.110D+00-0.485D+00-0.666D-01 0.139D+01
 Coeff:      0.157D-04-0.207D-04-0.847D-04-0.278D-04-0.238D-03-0.920D-03
 Coeff:     -0.125D-02 0.407D-02 0.126D-01-0.147D-01-0.196D-01 0.552D-02
 Coeff:      0.625D-01 0.110D+00-0.485D+00-0.666D-01 0.139D+01
 Gap=     0.029 Goal=   None    Shift=    0.000
 Gap=     0.048 Goal=   None    Shift=    0.000
 RMSDP=9.44D-07 MaxDP=9.73D-05 DE=-9.32D-10 OVMax= 5.75D-05

 Cycle  18  Pass 1  IDiag  1:
 E= -1136.11461518516     Delta-E=       -0.000000000285 Rises=F Damp=F
 DIIS: error= 1.20D-07 at cycle  18 NSaved=  18.
 NSaved=18 IEnMin=18 EnMin= -1136.11461518516     IErMin=18 ErrMin= 1.20D-07
 ErrMax= 1.20D-07  0.00D+00 EMaxC= 1.00D-01 BMatC= 4.08D-12 BMatP= 1.71D-11
 IDIUse=1 WtCom= 1.00D+00 WtEn= 0.00D+00
 Coeff-Com:  0.403D-05-0.503D-05-0.146D-04 0.361D-06-0.153D-03-0.550D-03
 Coeff-Com: -0.946D-03 0.206D-02 0.549D-02-0.455D-02-0.743D-02-0.471D-02
 Coeff-Com:  0.115D-01 0.668D-01-0.561D-01-0.298D+00 0.269D+00 0.102D+01
 Coeff:      0.403D-05-0.503D-05-0.146D-04 0.361D-06-0.153D-03-0.550D-03
 Coeff:     -0.946D-03 0.206D-02 0.549D-02-0.455D-02-0.743D-02-0.471D-02
 Coeff:      0.115D-01 0.668D-01-0.561D-01-0.298D+00 0.269D+00 0.102D+01
 Gap=     0.029 Goal=   None    Shift=    0.000
 Gap=     0.048 Goal=   None    Shift=    0.000
 RMSDP=4.13D-07 MaxDP=4.99D-05 DE=-2.85D-10 OVMax= 2.01D-05

 Cycle  19  Pass 1  IDiag  1:
 E= -1136.11461518519     Delta-E=       -0.000000000035 Rises=F Damp=F
 DIIS: error= 5.22D-08 at cycle  19 NSaved=  19.
 NSaved=19 IEnMin=19 EnMin= -1136.11461518519     IErMin=19 ErrMin= 5.22D-08
 ErrMax= 5.22D-08  0.00D+00 EMaxC= 1.00D-01 BMatC= 1.10D-12 BMatP= 4.08D-12
 IDIUse=1 WtCom= 1.00D+00 WtEn= 0.00D+00
 Coeff-Com: -0.369D-05 0.493D-05 0.808D-05-0.279D-05 0.341D-04 0.195D-03
 Coeff-Com:  0.259D-03-0.739D-03-0.264D-02 0.280D-02 0.401D-02-0.731D-03
 Coeff-Com: -0.156D-01-0.206D-01 0.127D+00-0.643D-01-0.296D+00 0.234D+00
 Coeff-Com:  0.103D+01
 Coeff:     -0.369D-05 0.493D-05 0.808D-05-0.279D-05 0.341D-04 0.195D-03
 Coeff:      0.259D-03-0.739D-03-0.264D-02 0.280D-02 0.401D-02-0.731D-03
 Coeff:     -0.156D-01-0.206D-01 0.127D+00-0.643D-01-0.296D+00 0.234D+00
 Coeff:      0.103D+01
 Gap=     0.029 Goal=   None    Shift=    0.000
 Gap=     0.048 Goal=   None    Shift=    0.000
 RMSDP=2.28D-07 MaxDP=2.62D-05 DE=-3.46D-11 OVMax= 8.94D-06

 Cycle  20  Pass 1  IDiag  1:
 E= -1136.11461518521     Delta-E=       -0.000000000020 Rises=F Damp=F
 DIIS: error= 3.10D-08 at cycle  20 NSaved=  20.
 NSaved=20 IEnMin=20 EnMin= -1136.11461518521     IErMin=20 ErrMin= 3.10D-08
 ErrMax= 3.10D-08  0.00D+00 EMaxC= 1.00D-01 BMatC= 2.74D-13 BMatP= 1.10D-12
 IDIUse=1 WtCom= 1.00D+00 WtEn= 0.00D+00
 Coeff-Com:  0.162D-06-0.239D-06 0.247D-05 0.165D-05 0.211D-04 0.969D-04
 Coeff-Com:  0.951D-04-0.265D-03-0.540D-03 0.601D-03 0.753D-04 0.853D-03
 Coeff-Com:  0.138D-02-0.740D-02-0.259D-01 0.100D+00-0.200D-01-0.300D+00
 Coeff-Com: -0.181D+00 0.143D+01
 Coeff:      0.162D-06-0.239D-06 0.247D-05 0.165D-05 0.211D-04 0.969D-04
 Coeff:      0.951D-04-0.265D-03-0.540D-03 0.601D-03 0.753D-04 0.853D-03
 Coeff:      0.138D-02-0.740D-02-0.259D-01 0.100D+00-0.200D-01-0.300D+00
 Coeff:     -0.181D+00 0.143D+01
 Gap=     0.029 Goal=   None    Shift=    0.000
 Gap=     0.048 Goal=   None    Shift=    0.000
 RMSDP=1.34D-07 MaxDP=1.46D-05 DE=-1.96D-11 OVMax= 6.08D-06

 Cycle  21  Pass 1  IDiag  1:
 E= -1136.11461518521     Delta-E=        0.000000000000 Rises=F Damp=F
 DIIS: error= 1.72D-08 at cycle  21 NSaved=  20.
 NSaved=20 IEnMin=19 EnMin= -1136.11461518521     IErMin=20 ErrMin= 1.72D-08
 ErrMax= 1.72D-08  0.00D+00 EMaxC= 1.00D-01 BMatC= 7.59D-14 BMatP= 2.74D-13
 IDIUse=1 WtCom= 1.00D+00 WtEn= 0.00D+00
 Coeff-Com:  0.259D-07-0.201D-05 0.177D-06 0.290D-05 0.107D-04-0.485D-04
 Coeff-Com:  0.924D-04 0.189D-03-0.456D-03-0.665D-04 0.828D-03 0.244D-02
 Coeff-Com: -0.407D-03-0.166D-01 0.626D-02 0.667D-01-0.427D-01-0.187D+00
 Coeff-Com: -0.139D+00 0.131D+01
 Coeff:      0.259D-07-0.201D-05 0.177D-06 0.290D-05 0.107D-04-0.485D-04
 Coeff:      0.924D-04 0.189D-03-0.456D-03-0.665D-04 0.828D-03 0.244D-02
 Coeff:     -0.407D-03-0.166D-01 0.626D-02 0.667D-01-0.427D-01-0.187D+00
 Coeff:     -0.139D+00 0.131D+01
 Gap=     0.029 Goal=   None    Shift=    0.000
 Gap=     0.048 Goal=   None    Shift=    0.000
 RMSDP=4.85D-08 MaxDP=4.79D-06 DE= 4.55D-13 OVMax= 3.33D-06

 Cycle  22  Pass 1  IDiag  1:
 E= -1136.11461518520     Delta-E=        0.000000000012 Rises=F Damp=F
 DIIS: error= 5.54D-09 at cycle  22 NSaved=  20.
 NSaved=20 IEnMin=18 EnMin= -1136.11461518521     IErMin=20 ErrMin= 5.54D-09
 ErrMax= 5.54D-09  0.00D+00 EMaxC= 1.00D-01 BMatC= 1.91D-14 BMatP= 7.59D-14
 IDIUse=1 WtCom= 1.00D+00 WtEn= 0.00D+00
 Coeff-Com: -0.208D-05-0.484D-06-0.540D-05-0.295D-04-0.314D-04 0.124D-03
 Coeff-Com:  0.233D-03-0.316D-03-0.232D-03 0.177D-03 0.691D-03 0.309D-02
 Coeff-Com: -0.348D-02-0.182D-01 0.223D-01 0.598D-01 0.568D-02-0.403D+00
 Coeff-Com:  0.271D+00 0.106D+01
 Coeff:     -0.208D-05-0.484D-06-0.540D-05-0.295D-04-0.314D-04 0.124D-03
 Coeff:      0.233D-03-0.316D-03-0.232D-03 0.177D-03 0.691D-03 0.309D-02
 Coeff:     -0.348D-02-0.182D-01 0.223D-01 0.598D-01 0.568D-02-0.403D+00
 Coeff:      0.271D+00 0.106D+01
 Gap=     0.029 Goal=   None    Shift=    0.000
 Gap=     0.048 Goal=   None    Shift=    0.000
 RMSDP=2.18D-08 MaxDP=1.26D-06 DE= 1.23D-11 OVMax= 1.86D-06

 Cycle  23  Pass 1  IDiag  1:
 E= -1136.11461518521     Delta-E=       -0.000000000008 Rises=F Damp=F
 DIIS: error= 3.17D-09 at cycle  23 NSaved=  20.
 NSaved=20 IEnMin=17 EnMin= -1136.11461518521     IErMin=20 ErrMin= 3.17D-09
 ErrMax= 3.17D-09  0.00D+00 EMaxC= 1.00D-01 BMatC= 3.30D-15 BMatP= 1.91D-14
 IDIUse=1 WtCom= 1.00D+00 WtEn= 0.00D+00
 Large coefficients: NSaved= 20 BigCof=    0.00 CofMax=   10.00 Det=-6.18D-15
 Inversion failed.  Reducing to 19 matrices.
 Large coefficients: NSaved= 19 BigCof=    0.00 CofMax=   10.00 Det=-8.04D-15
 Inversion failed.  Reducing to 18 matrices.
 Large coefficients: NSaved= 18 BigCof=    0.00 CofMax=   10.00 Det=-8.11D-15
 Inversion failed.  Reducing to 17 matrices.
 Large coefficients: NSaved= 17 BigCof=    0.00 CofMax=   10.00 Det=-9.37D-15
 Inversion failed.  Reducing to 16 matrices.
 Large coefficients: NSaved= 16 BigCof=    0.00 CofMax=   10.00 Det=-9.62D-15
 Inversion failed.  Reducing to 15 matrices.
 Coeff-Com: -0.189D-04-0.104D-04-0.306D-04 0.405D-04-0.235D-03-0.241D-03
 Coeff-Com:  0.149D-02-0.282D-02-0.487D-02 0.136D-01 0.173D-01-0.191D-01
 Coeff-Com: -0.207D+00 0.151D+00 0.105D+01
 Coeff:     -0.189D-04-0.104D-04-0.306D-04 0.405D-04-0.235D-03-0.241D-03
 Coeff:      0.149D-02-0.282D-02-0.487D-02 0.136D-01 0.173D-01-0.191D-01
 Coeff:     -0.207D+00 0.151D+00 0.105D+01
 Gap=     0.029 Goal=   None    Shift=    0.000
 Gap=     0.048 Goal=   None    Shift=    0.000
 RMSDP=1.15D-08 MaxDP=5.42D-07 DE=-7.73D-12 OVMax= 8.14D-07

 Cycle  24  Pass 1  IDiag  1:
 E= -1136.11461518521     Delta-E=       -0.000000000002 Rises=F Damp=F
 DIIS: error= 1.15D-09 at cycle  24 NSaved=  16.
 NSaved=16 IEnMin=12 EnMin= -1136.11461518521     IErMin=16 ErrMin= 1.15D-09
 ErrMax= 1.15D-09  0.00D+00 EMaxC= 1.00D-01 BMatC= 8.07D-16 BMatP= 3.30D-15
 IDIUse=1 WtCom= 1.00D+00 WtEn= 0.00D+00
 Large coefficients: NSaved= 16 BigCof=    0.00 CofMax=   10.00 Det=-1.03D-15
 Inversion failed.  Reducing to 15 matrices.
 Coeff-Com:  0.279D-04-0.857D-05-0.100D-03-0.410D-04 0.703D-04 0.929D-03
 Coeff-Com:  0.453D-03-0.407D-02-0.373D-02 0.102D-01 0.402D-01-0.715D-01
 Coeff-Com: -0.143D+00 0.780D-01 0.109D+01
 Coeff:      0.279D-04-0.857D-05-0.100D-03-0.410D-04 0.703D-04 0.929D-03
 Coeff:      0.453D-03-0.407D-02-0.373D-02 0.102D-01 0.402D-01-0.715D-01
 Coeff:     -0.143D+00 0.780D-01 0.109D+01
 Gap=     0.029 Goal=   None    Shift=    0.000
 Gap=     0.048 Goal=   None    Shift=    0.000
 RMSDP=8.29D-09 MaxDP=7.12D-07 DE=-2.27D-12 OVMax= 5.53D-07

 SCF Done:  E(UB3LYP) =  -1136.11461519     A.U. after   24 cycles
            NFock= 24  Conv=0.83D-08     -V/T= 2.0028
 <Sx>= 0.0000 <Sy>= 0.0000 <Sz>= 0.5000 <S**2>= 0.7797 S= 0.5147
 <L.S>= 0.000000000000E+00
 KE= 1.132886212848D+03 PE=-3.343745703180D+03 EE= 7.674751173683D+02
 Annihilation of the first spin contaminant:
 S**2 before annihilation     0.7797,   after     0.7505
 Leave Link  502 at Mon Dec  4 03:11:03 2023, MaxMem=  1879048192 cpu:             213.4 elap:              19.3
 (Enter /home/sekinelabo/g16/l601.exe)
 Copying SCF densities to generalized density rwf, IOpCl= 1 IROHF=0.

 **********************************************************************

            Population analysis using the SCF Density.

 **********************************************************************

 Orbital symmetries:
 Alpha Orbitals:
       Occupied  (A) (A) (A) (A) (A) (A) (A) (A) (A) (A) (A) (A)
                 (A) (A) (A) (A) (A) (A) (A) (A) (A) (A) (A) (A)
                 (A) (A) (A) (A) (A) (A) (A) (A) (A) (A) (A) (A)
                 (A) (A) (A)
       Virtual   (A) (A) (A) (A) (A) (A) (A) (A) (A) (A) (A) (A)
                 (A) (A) (A) (A) (A) (A) (A) (A) (A) (A) (A) (A)
                 (A) (A) (A) (A) (A) (A) (A) (A) (A) (A) (A) (A)
                 (A) (A) (A) (A) (A) (A) (A) (A) (A) (A) (A) (A)
                 (A) (A) (A) (A) (A) (A) (A) (A) (A) (A) (A) (A)
                 (A) (A) (A) (A) (A) (A) (A) (A) (A) (A) (A) (A)
                 (A) (A) (A) (A) (A) (A) (A) (A) (A) (A) (A) (A)
                 (A) (A) (A) (A) (A) (A) (A) (A) (A) (A) (A) (A)
                 (A) (A) (A) (A) (A) (A) (A) (A) (A) (A) (A) (A)
                 (A) (A) (A) (A) (A) (A) (A) (A) (A) (A) (A) (A)
                 (A) (A) (A) (A) (A) (A) (A) (A) (A) (A) (A) (A)
                 (A) (A) (A) (A) (A) (A) (A) (A) (A) (A) (A) (A)
                 (A) (A) (A) (A) (A) (A) (A) (A) (A) (A) (A) (A)
                 (A) (A) (A) (A) (A) (A) (A) (A) (A) (A) (A) (A)
                 (A) (A) (A)
 Beta  Orbitals:
       Occupied  (A) (A) (A) (A) (A) (A) (A) (A) (A) (A) (A) (A)
                 (A) (A) (A) (A) (A) (A) (A) (A) (A) (A) (A) (A)
                 (A) (A) (A) (A) (A) (A) (A) (A) (A) (A) (A) (A)
                 (A) (A)
       Virtual   (A) (A) (A) (A) (A) (A) (A) (A) (A) (A) (A) (A)
                 (A) (A) (A) (A) (A) (A) (A) (A) (A) (A) (A) (A)
                 (A) (A) (A) (A) (A) (A) (A) (A) (A) (A) (A) (A)
                 (A) (A) (A) (A) (A) (A) (A) (A) (A) (A) (A) (A)
                 (A) (A) (A) (A) (A) (A) (A) (A) (A) (A) (A) (A)
                 (A) (A) (A) (A) (A) (A) (A) (A) (A) (A) (A) (A)
                 (A) (A) (A) (A) (A) (A) (A) (A) (A) (A) (A) (A)
                 (A) (A) (A) (A) (A) (A) (A) (A) (A) (A) (A) (A)
                 (A) (A) (A) (A) (A) (A) (A) (A) (A) (A) (A) (A)
                 (A) (A) (A) (A) (A) (A) (A) (A) (A) (A) (A) (A)
                 (A) (A) (A) (A) (A) (A) (A) (A) (A) (A) (A) (A)
                 (A) (A) (A) (A) (A) (A) (A) (A) (A) (A) (A) (A)
                 (A) (A) (A) (A) (A) (A) (A) (A) (A) (A) (A) (A)
                 (A) (A) (A) (A) (A) (A) (A) (A) (A) (A) (A) (A)
                 (A) (A) (A) (A)
 The electronic state is 2-A.
 Alpha  occ. eigenvalues --  -38.45458 -38.44706 -38.44084 -38.44032 -38.43773
 Alpha  occ. eigenvalues --  -38.43206 -38.43138  -2.21245  -2.20483  -2.19919
 Alpha  occ. eigenvalues --   -2.19830  -2.19635  -2.19097  -2.19048  -1.14949
 Alpha  occ. eigenvalues --   -1.14905  -1.14863  -1.14144  -1.14139  -1.14088
 Alpha  occ. eigenvalues --   -1.13582  -1.13554  -1.13523  -1.13518  -1.13483
 Alpha  occ. eigenvalues --   -1.13456  -1.13337  -1.13306  -1.13224  -1.12936
 Alpha  occ. eigenvalues --   -1.12790  -1.12762  -1.12685  -1.12675  -1.12568
 Alpha  occ. eigenvalues --   -0.17612  -0.13334  -0.12190  -0.10363
 Alpha virt. eigenvalues --   -0.07477  -0.05038  -0.04507  -0.03171  -0.03057
 Alpha virt. eigenvalues --   -0.02572  -0.02008  -0.01403  -0.00811  -0.00484
 Alpha virt. eigenvalues --   -0.00247  -0.00171   0.00157   0.00503   0.00626
 Alpha virt. eigenvalues --    0.00856   0.01009   0.01056   0.01181   0.01245
 Alpha virt. eigenvalues --    0.01294   0.01379   0.01548   0.01768   0.01821
 Alpha virt. eigenvalues --    0.02040   0.02189   0.02267   0.02444   0.02488
 Alpha virt. eigenvalues --    0.02529   0.02609   0.02864   0.02939   0.03088
 Alpha virt. eigenvalues --    0.03168   0.03230   0.03329   0.03385   0.03504
 Alpha virt. eigenvalues --    0.03578   0.03923   0.04072   0.04319   0.04537
 Alpha virt. eigenvalues --    0.04763   0.04931   0.05161   0.05436   0.05562
 Alpha virt. eigenvalues --    0.05691   0.06201   0.06663   0.06703   0.07265
 Alpha virt. eigenvalues --    0.07374   0.07471   0.07936   0.08211   0.08542
 Alpha virt. eigenvalues --    0.08719   0.09246   0.09395   0.10625   0.10973
 Alpha virt. eigenvalues --    0.11163   0.11667   0.11797   0.12179   0.12584
 Alpha virt. eigenvalues --    0.12729   0.13185   0.13529   0.13827   0.14125
 Alpha virt. eigenvalues --    0.14493   0.14826   0.15171   0.15451   0.18307
 Alpha virt. eigenvalues --    0.26256   0.27503   0.27936   0.28665   0.30012
 Alpha virt. eigenvalues --    0.30632   0.31549   0.31959   0.32824   0.33446
 Alpha virt. eigenvalues --    0.33849   0.35110   0.35622   0.36072   0.37066
 Alpha virt. eigenvalues --    0.37606   0.38206   0.39123   0.39636   0.40804
 Alpha virt. eigenvalues --    0.41246   0.41621   0.42683   0.42763   0.43647
 Alpha virt. eigenvalues --    0.43679   0.43888   0.43996   0.44482   0.44605
 Alpha virt. eigenvalues --    0.45072   0.45376   0.45826   0.46259   0.46723
 Alpha virt. eigenvalues --    0.47530   0.48025   0.48232   0.48731   0.50153
 Alpha virt. eigenvalues --    0.50490   0.50769   0.51902   0.52378   0.53589
 Alpha virt. eigenvalues --    0.54170   0.54614   0.56028   0.57641   0.58786
 Alpha virt. eigenvalues --    0.59569   0.60187   0.60455   0.61885   0.67448
 Alpha virt. eigenvalues --    0.77554   2.03387   2.08429   2.11362   2.13255
 Alpha virt. eigenvalues --    2.16732   2.19152   2.22938   4.43065   4.44173
 Alpha virt. eigenvalues --    4.44362   4.44713   4.44801   4.45266   4.45410
 Alpha virt. eigenvalues --    4.45945   4.46527   4.46991   4.47444   4.47650
 Alpha virt. eigenvalues --    4.48585   4.48868   4.49318   4.50350   4.50992
 Alpha virt. eigenvalues --    4.52323   4.55351   4.60016   4.72731  96.23116
 Alpha virt. eigenvalues --   96.28901  96.32236  96.35149  96.38684  96.41870
 Alpha virt. eigenvalues --   96.46980
  Beta  occ. eigenvalues --  -38.45468 -38.44652 -38.43995 -38.43989 -38.43752
  Beta  occ. eigenvalues --  -38.43211 -38.43126  -2.21267  -2.20383  -2.19763
  Beta  occ. eigenvalues --   -2.19742  -2.19598  -2.19084  -2.19053  -1.14968
  Beta  occ. eigenvalues --   -1.14907  -1.14871  -1.14074  -1.14066  -1.14024
  Beta  occ. eigenvalues --   -1.13474  -1.13457  -1.13437  -1.13435  -1.13412
  Beta  occ. eigenvalues --   -1.13398  -1.13311  -1.13272  -1.13192  -1.12937
  Beta  occ. eigenvalues --   -1.12782  -1.12732  -1.12685  -1.12680  -1.12568
  Beta  occ. eigenvalues --   -0.17152  -0.12691  -0.12038
  Beta virt. eigenvalues --   -0.07230  -0.06818  -0.04930  -0.04152  -0.02869
  Beta virt. eigenvalues --   -0.02602  -0.02305  -0.01592  -0.01252  -0.00634
  Beta virt. eigenvalues --   -0.00161  -0.00102   0.00053   0.00294   0.00557
  Beta virt. eigenvalues --    0.00746   0.00899   0.01099   0.01155   0.01262
  Beta virt. eigenvalues --    0.01363   0.01395   0.01446   0.01602   0.01855
  Beta virt. eigenvalues --    0.01869   0.02257   0.02279   0.02391   0.02534
  Beta virt. eigenvalues --    0.02548   0.02582   0.02674   0.02928   0.02971
  Beta virt. eigenvalues --    0.03143   0.03213   0.03287   0.03366   0.03426
  Beta virt. eigenvalues --    0.03595   0.03623   0.04032   0.04236   0.04451
  Beta virt. eigenvalues --    0.04612   0.04826   0.05062   0.05201   0.05548
  Beta virt. eigenvalues --    0.05642   0.05785   0.06314   0.06708   0.06826
  Beta virt. eigenvalues --    0.07347   0.07397   0.07620   0.08000   0.08493
  Beta virt. eigenvalues --    0.08640   0.08903   0.09322   0.09581   0.10969
  Beta virt. eigenvalues --    0.11070   0.11535   0.11868   0.11994   0.12344
  Beta virt. eigenvalues --    0.12768   0.12821   0.13294   0.13645   0.13894
  Beta virt. eigenvalues --    0.14266   0.14707   0.15032   0.15357   0.15590
  Beta virt. eigenvalues --    0.18407   0.26491   0.27636   0.28238   0.29134
  Beta virt. eigenvalues --    0.30362   0.31219   0.31738   0.32184   0.33102
  Beta virt. eigenvalues --    0.33789   0.34102   0.35589   0.35945   0.36306
  Beta virt. eigenvalues --    0.37415   0.37920   0.38494   0.39444   0.40022
  Beta virt. eigenvalues --    0.40856   0.41402   0.41958   0.42780   0.42933
  Beta virt. eigenvalues --    0.43621   0.43815   0.44079   0.44157   0.44611
  Beta virt. eigenvalues --    0.44798   0.45174   0.45454   0.45993   0.46414
  Beta virt. eigenvalues --    0.46823   0.47689   0.48215   0.48365   0.48883
  Beta virt. eigenvalues --    0.50307   0.50692   0.50851   0.52134   0.52498
  Beta virt. eigenvalues --    0.53733   0.54410   0.54794   0.56163   0.57752
  Beta virt. eigenvalues --    0.58954   0.59779   0.60388   0.60531   0.61913
  Beta virt. eigenvalues --    0.67566   0.77546   2.03516   2.08615   2.11571
  Beta virt. eigenvalues --    2.13275   2.16933   2.19199   2.22986   4.43126
  Beta virt. eigenvalues --    4.44210   4.44419   4.44722   4.44879   4.45332
  Beta virt. eigenvalues --    4.45472   4.45993   4.46550   4.47032   4.47503
  Beta virt. eigenvalues --    4.47696   4.48599   4.48899   4.49373   4.50439
  Beta virt. eigenvalues --    4.51050   4.52349   4.55408   4.60070   4.72731
  Beta virt. eigenvalues --   96.23156  96.28963  96.32304  96.35156  96.38749
  Beta virt. eigenvalues --   96.41890  96.46996
          Condensed to atoms (all electrons):
               1          2          3          4          5          6
     1  Na  11.652516  -0.117752  -0.372656  -0.047743  -0.524740   0.297798
     2  Na  -0.117752  10.749696  -0.438298   0.000764   0.134764   0.439394
     3  Na  -0.372656  -0.438298  15.442161   0.398521  -0.401635  -2.602242
     4  Na  -0.047743   0.000764   0.398521  10.629252   0.115176  -0.440074
     5  Na  -0.524740   0.134764  -0.401635   0.115176  11.722691   0.002288
     6  Na   0.297798   0.439394  -2.602242  -0.440074   0.002288  12.659634
     7  Na   0.043142  -0.018158   0.533859   0.051822   0.007089  -0.347832
               7
     1  Na   0.043142
     2  Na  -0.018158
     3  Na   0.533859
     4  Na   0.051822
     5  Na   0.007089
     6  Na  -0.347832
     7  Na  10.717072
          Atomic-Atomic Spin Densities.
               1          2          3          4          5          6
     1  Na   0.925036  -0.168433   0.158435  -0.077584  -0.574533  -0.034477
     2  Na  -0.168433   0.012437  -0.043707   0.059465   0.149532   0.037629
     3  Na   0.158435  -0.043707   0.638137   0.123135  -0.292388  -0.515507
     4  Na  -0.077584   0.059465   0.123135   0.176732  -0.010225  -0.001909
     5  Na  -0.574533   0.149532  -0.292388  -0.010225   0.776127   0.152938
     6  Na  -0.034477   0.037629  -0.515507  -0.001909   0.152938   0.360003
     7  Na  -0.047784  -0.008490   0.102362   0.009561   0.064521  -0.088093
               7
     1  Na  -0.047784
     2  Na  -0.008490
     3  Na   0.102362
     4  Na   0.009561
     5  Na   0.064521
     6  Na  -0.088093
     7  Na   0.122629
 Mulliken charges and spin densities:
               1          2
     1  Na   0.069434   0.180660
     2  Na   0.249591   0.038434
     3  Na  -1.559711   0.170467
     4  Na   0.292282   0.279176
     5  Na  -0.055634   0.265973
     6  Na   0.991033  -0.089415
     7  Na   0.013005   0.154706
 Sum of Mulliken charges =  -0.00000   1.00000
 Mulliken charges and spin densities with hydrogens summed into heavy atoms:
               1          2
     1  Na   0.069434   0.180660
     2  Na   0.249591   0.038434
     3  Na  -1.559711   0.170467
     4  Na   0.292282   0.279176
     5  Na  -0.055634   0.265973
     6  Na   0.991033  -0.089415
     7  Na   0.013005   0.154706
 Electronic spatial extent (au):  <R**2>=           3069.0844
 Charge=             -0.0000 electrons
 Dipole moment (field-independent basis, Debye):
    X=             -0.5119    Y=             -0.8159    Z=              0.4314  Tot=              1.0554
 Quadrupole moment (field-independent basis, Debye-Ang):
   XX=            -65.4737   YY=            -67.4111   ZZ=            -66.3949
   XY=             -0.2485   XZ=             -0.3790   YZ=              1.0916
 Traceless Quadrupole moment (field-independent basis, Debye-Ang):
   XX=              0.9529   YY=             -0.9845   ZZ=              0.0317
   XY=             -0.2485   XZ=             -0.3790   YZ=              1.0916
 Octapole moment (field-independent basis, Debye-Ang**2):
  XXX=            -17.2583  YYY=             23.4785  ZZZ=             -4.4394  XYY=             15.1848
  XXY=            -13.7992  XXZ=             39.4135  XZZ=             -2.8526  YZZ=            -13.4895
  YYZ=              3.3096  XYZ=             -8.2027
 Hexadecapole moment (field-independent basis, Debye-Ang**3):
 XXXX=          -2665.5858 YYYY=          -1570.2232 ZZZZ=           -645.6491 XXXY=            -93.7389
 XXXZ=            -25.9142 YYYX=             42.2520 YYYZ=             29.2520 ZZZX=              6.2816
 ZZZY=              8.8454 XXYY=           -785.7408 XXZZ=           -645.2282 YYZZ=           -388.8008
 XXYZ=            -30.7745 YYXZ=             18.0950 ZZXY=             13.5809
 N-N= 3.072697577780D+02 E-N=-3.343745702843D+03  KE= 1.132886212848D+03
                          Isotropic Fermi Contact Couplings
        Atom                 a.u.       MegaHertz       Gauss      10(-4) cm-1
     1  Na(23)             0.40866     483.45623     172.50921     161.26364
     2  Na(23)            -0.07953     -94.08131     -33.57055     -31.38215
     3  Na(23)             0.02402      28.41214      10.13816       9.47727
     4  Na(23)             0.23115     273.46259      97.57825      91.21730
     5  Na(23)             0.06060      71.68690      25.57967      23.91217
     6  Na(23)            -0.02839     -33.58874     -11.98530     -11.20400
     7  Na(23)             0.14450     170.94559      60.99764      57.02131
 --------------------------------------------------------
       Center         ----  Spin Dipole Couplings  ----
                      3XX-RR        3YY-RR        3ZZ-RR
 --------------------------------------------------------
     1   Atom       -0.000052      0.005598     -0.005546
     2   Atom        0.004030     -0.013417      0.009387
     3   Atom       -0.001951     -0.003558      0.005509
     4   Atom       -0.004626     -0.000571      0.005197
     5   Atom        0.020944     -0.014829     -0.006115
     6   Atom       -0.002206      0.001030      0.001176
     7   Atom       -0.008571      0.001833      0.006739
 --------------------------------------------------------
                        XY            XZ            YZ
 --------------------------------------------------------
     1   Atom       -0.005730      0.000307      0.000251
     2   Atom       -0.004499      0.020177     -0.006792
     3   Atom       -0.015279      0.011218     -0.022424
     4   Atom       -0.000057      0.004196     -0.000989
     5   Atom       -0.008610     -0.015353      0.000255
     6   Atom        0.000566     -0.001487      0.000030
     7   Atom        0.003063     -0.003163     -0.009966
 --------------------------------------------------------


 ---------------------------------------------------------------------------------
              Anisotropic Spin Dipole Couplings in Principal Axis System
 ---------------------------------------------------------------------------------

       Atom             a.u.   MegaHertz   Gauss  10(-4) cm-1        Axes

              Baa    -0.0056    -0.794    -0.283    -0.265 -0.1614 -0.1044  0.9814
     1 Na(23) Bbb    -0.0035    -0.500    -0.178    -0.167  0.8338  0.5176  0.1922
              Bcc     0.0092     1.294     0.462     0.432 -0.5280  0.8492  0.0035
 
              Baa    -0.0156    -2.198    -0.784    -0.733 -0.2596  0.8579  0.4434
     2 Na(23) Bbb    -0.0130    -1.843    -0.657    -0.615  0.7201  0.4779 -0.5030
              Bcc     0.0286     4.041     1.442     1.348  0.6434 -0.1888  0.7419
 
              Baa    -0.0235    -3.312    -1.182    -1.105  0.3098  0.8061  0.5041
     3 Na(23) Bbb    -0.0100    -1.415    -0.505    -0.472  0.8300  0.0294 -0.5570
              Bcc     0.0335     4.727     1.687     1.577  0.4639 -0.5910  0.6600
 
              Baa    -0.0062    -0.874    -0.312    -0.292  0.9356 -0.0519 -0.3493
     4 Na(23) Bbb    -0.0007    -0.096    -0.034    -0.032  0.0925  0.9906  0.1007
              Bcc     0.0069     0.970     0.346     0.323  0.3408 -0.1265  0.9316
 
              Baa    -0.0183    -2.583    -0.922    -0.862  0.3489  0.8366  0.4224
     5 Na(23) Bbb    -0.0110    -1.557    -0.556    -0.519  0.2529 -0.5180  0.8171
              Bcc     0.0293     4.140     1.477     1.381  0.9024 -0.1783 -0.3923
 
              Baa    -0.0028    -0.401    -0.143    -0.134  0.9285 -0.1383  0.3446
     6 Na(23) Bbb     0.0011     0.150     0.054     0.050  0.0402  0.9601  0.2769
              Bcc     0.0018     0.251     0.090     0.084 -0.3691 -0.2432  0.8970
 
              Baa    -0.0094    -1.332    -0.475    -0.444  0.9754 -0.2121  0.0601
     7 Na(23) Bbb    -0.0059    -0.836    -0.298    -0.279  0.1270  0.7637  0.6330
              Bcc     0.0154     2.168     0.774     0.723 -0.1801 -0.6098  0.7718
 

 ---------------------------------------------------------------------------------

 No NMR shielding tensors so no spin-rotation constants.
 Leave Link  601 at Mon Dec  4 03:11:03 2023, MaxMem=  1879048192 cpu:               2.3 elap:               0.2
 (Enter /home/sekinelabo/g16/l701.exe)
 ... and contract with generalized density number  0.
 Compute integral first derivatives.
 Leave Link  701 at Mon Dec  4 03:11:04 2023, MaxMem=  1879048192 cpu:               1.6 elap:               0.1
 (Enter /home/sekinelabo/g16/l702.exe)
 L702 exits ... SP integral derivatives will be done elsewhere.
 Leave Link  702 at Mon Dec  4 03:11:04 2023, MaxMem=  1879048192 cpu:               0.5 elap:               0.0
 (Enter /home/sekinelabo/g16/l703.exe)
 Integral derivatives from FoFJK, PRISM(SPDF).
 Compute integral first derivatives, UseDBF=F ICtDFT=           0.
 Calling FoFJK, ICntrl=      2127 FMM=F ISym2X=0 I1Cent= 0 IOpClX= 1 NMat=1 NMatS=1 NMatT=0.
 FoFJK:  IHMeth= 1 ICntrl=    2127 DoSepK=F KAlg= 0 I1Cent=           0 FoldK=F
 IRaf=         0 NMat=       1 IRICut=       1 DoRegI=T DoRafI=F ISym2E= 0 IDoP0=0 IntGTp=1.
 FoFCou: FMM=F IPFlag=           0 FMFlag=      100000 FMFlg1=         800
         NFxFlg=           0 DoJE=F BraDBF=F KetDBF=F FulRan=T
         wScrn=  0.000000 ICntrl=      2127 IOpCl=  1 I1Cent=           0 NGrid=           0
         NMat0=    1 NMatS0=      1 NMatT0=    0 NMatD0=    1 NMtDS0=    0 NMtDT0=    0
 Symmetry not used in FoFCou.
 Leave Link  703 at Mon Dec  4 03:11:06 2023, MaxMem=  1879048192 cpu:              31.6 elap:               2.1
 (Enter /home/sekinelabo/g16/l716.exe)
 Dipole        =-2.01391228D-01-3.21008177D-01 1.69737136D-01
 ***** Axes restored to original set *****
 -------------------------------------------------------------------
 Center     Atomic                   Forces (Hartrees/Bohr)
 Number     Number              X              Y              Z
 -------------------------------------------------------------------
      1       11          -0.001692896   -0.000646559   -0.002426834
      2       11           0.003001267    0.001438648    0.003939427
      3       11           0.006662750    0.003781902   -0.000854808
      4       11          -0.003395030    0.000188037   -0.003099452
      5       11          -0.000762271   -0.000729151    0.002710380
      6       11          -0.005377196   -0.004654053    0.000455210
      7       11           0.001563376    0.000621175   -0.000723922
 -------------------------------------------------------------------
 Cartesian Forces:  Max     0.006662750 RMS     0.002919217
 Z-matrix is all fixed cartesians, so copy forces.
 Force constants in Cartesian coordinates: 
                1             2             3             4             5 
      1  0.540282D-01
      2  0.425387D-02  0.630801D-01
      3  0.480242D-02  0.126049D-01  0.485984D-01
      4 -0.124290D-01 -0.650611D-02 -0.110120D-02  0.590416D-01
      5  0.850400D-02 -0.106786D-01 -0.179133D-01  0.984769D-03  0.468069D-01
      6  0.272116D-02  0.152172D-02 -0.214797D-01 -0.196981D-02 -0.708296D-02
      7 -0.250220D-01 -0.603703D-02 -0.261590D-02 -0.168041D-01 -0.528317D-02
      8  0.437070D-02 -0.259581D-01  0.135409D-01  0.768735D-03 -0.185210D-01
      9  0.162866D-02 -0.999027D-02 -0.127019D-01 -0.558427D-02  0.746112D-02
     10 -0.318353D-02  0.179680D-03 -0.116270D-02 -0.131774D-01 -0.282313D-02
     11  0.699419D-02  0.538378D-03  0.949250D-03  0.325082D-02 -0.642586D-02
     12  0.266469D-02 -0.632612D-03  0.348192D-02 -0.137838D-01  0.379669D-02
     13 -0.868611D-02  0.672833D-03 -0.127238D-02 -0.172661D-01 -0.237435D-02
     14 -0.913764D-02 -0.158277D-01 -0.731725D-02  0.681571D-03 -0.160341D-01
     15 -0.523917D-02 -0.332563D-02 -0.144715D-01  0.144643D-01  0.913709D-02
     16  0.557619D-02 -0.321600D-03  0.106682D-02  0.380382D-02 -0.312485D-02
     17 -0.413572D-02 -0.310410D-02  0.444910D-02 -0.250262D-03  0.145454D-02
     18  0.605170D-03 -0.115535D-02  0.413186D-02  0.411004D-02  0.563486D-02
     19 -0.102838D-01  0.775835D-02  0.282948D-03 -0.316880D-02  0.411673D-02
     20 -0.108494D-01 -0.804997D-02 -0.631348D-02  0.107048D-02  0.339810D-02
     21 -0.718293D-02  0.977294D-03 -0.755911D-02  0.386473D-02 -0.103345D-02
                6             7             8             9            10 
      6  0.799929D-01
      7  0.258316D-02  0.127989D+00
      8 -0.708953D-03  0.697354D-02  0.124993D+00
      9 -0.311378D-01  0.826362D-02 -0.124748D-01  0.117209D+00
     10  0.667364D-02 -0.143734D-01  0.452738D-02 -0.688069D-02  0.312773D-01
     11  0.377050D-02 -0.399831D-02 -0.202163D-01  0.153104D-02 -0.115935D-02
     12 -0.210590D-01  0.101427D-01  0.343645D-02 -0.173745D-01  0.271238D-02
     13 -0.127333D-01 -0.251436D-01 -0.627618D-02 -0.336619D-02 -0.185153D-02
     14  0.732653D-04  0.404624D-02 -0.235685D-01  0.205657D-02  0.448016D-03
     15 -0.122174D-01 -0.686539D-02 -0.548244D-02 -0.294346D-01 -0.168049D-02
     16  0.394380D-02 -0.460611D-01 -0.136512D-01  0.516657D-02  0.131788D-02
     17  0.145292D-02  0.104047D-03 -0.402640D-01  0.899319D-02 -0.118270D-02
     18  0.366866D-02 -0.910346D-02 -0.257538D-02 -0.299261D-01  0.344702D-03
     19 -0.121863D-02 -0.585090D-03  0.328706D-02  0.772305D-03 -0.937040D-05
     20  0.973520D-03  0.419468D-02  0.353517D-02  0.242316D-02  0.100995D-04
     21  0.223228D-02 -0.240478D-02  0.426425D-02  0.336584D-02 -0.683970D-05
               11            12            13            14            15 
     11  0.172782D-01
     12 -0.544481D-02  0.247934D-01
     13 -0.503357D-03 -0.245926D-02  0.865704D-01
     14  0.383092D-02 -0.140687D-02  0.896428D-03  0.951423D-01
     15 -0.190861D-02  0.719040D-02  0.106717D-01  0.736644D-02  0.895080D-01
     16 -0.463937D-02  0.718376D-03 -0.126089D-01  0.989075D-02 -0.687360D-02
     17  0.492688D-02  0.246213D-03 -0.519301D-02 -0.112015D-01 -0.595341D-02
     18  0.110660D-02  0.291349D-02  0.541942D-02  0.101209D-01 -0.192733D-01
     19  0.553699D-04  0.486012D-05 -0.210141D-01 -0.682537D-02 -0.447738D-02
     20  0.677910D-04  0.493907D-05  0.127776D-01 -0.323414D-01  0.166557D-03
     21 -0.395477D-05  0.543261D-04  0.374001D-02 -0.108931D-01 -0.213016D-01
               16            17            18            19            20 
     16  0.471523D-01
     17  0.112450D-01  0.486356D-01
     18 -0.667234D-03 -0.125795D-01  0.346957D-01
     19  0.819843D-03 -0.587356D-03 -0.708645D-03  0.342414D-01
     20  0.601301D-03 -0.447493D-03 -0.552138D-03 -0.780479D-02  0.338379D-01
     21 -0.335472D-02  0.339150D-02  0.378974D-02  0.534454D-02  0.329744D-02
               21 
     21  0.194186D-01
 Leave Link  716 at Mon Dec  4 03:11:06 2023, MaxMem=  1879048192 cpu:               0.4 elap:               0.0
 (Enter /home/sekinelabo/g16/l103.exe)

 GradGradGradGradGradGradGradGradGradGradGradGradGradGradGradGradGradGrad
 Berny optimization.
 Search for a local minimum.
 Step number   1 out of a maximum of    2
 All quantities printed in internal units (Hartrees-Bohrs-Radians)
 Second derivative matrix not updated -- first step.
 ITU=  0
     Eigenvalues ---    0.02195   0.02333   0.02851   0.03383   0.05436
     Eigenvalues ---    0.05825   0.06627   0.07445   0.09402   0.10235
     Eigenvalues ---    0.11560   0.12328   0.14113   0.16484   0.17411
 Angle between quadratic step and forces=  36.07 degrees.
 Linear search not attempted -- first point.
 B after Tr=     0.000000    0.000000   -0.000000
         Rot=    1.000000   -0.000000    0.000000    0.000000 Ang=   0.00 deg.
 Variable       Old X    -DE/DX   Delta X   Delta X   Delta X     New X
                                 (Linear)    (Quad)   (Total)
    X1       23.17995  -0.00169   0.00000  -0.00914  -0.00914  23.17081
    Y1       27.73116  -0.00065   0.00000  -0.00031  -0.00031  27.73085
    Z1       24.52902  -0.00243   0.00000  -0.00121  -0.00121  24.52781
    X2       26.47846   0.00300   0.00000   0.02689   0.02689  26.50536
    Y2       24.23177   0.00144   0.00000   0.03326   0.03326  24.26502
    Z2       19.63539   0.00394   0.00000   0.05194   0.05194  19.68733
    X3       24.70156   0.00666   0.00000   0.03845   0.03845  24.74001
    Y3       21.25696   0.00378   0.00000   0.01638   0.01638  21.27334
    Z3       25.32252  -0.00085   0.00000   0.01086   0.01086  25.33338
    X4       31.69694  -0.00340   0.00000  -0.07918  -0.07918  31.61776
    Y4       23.01365   0.00019   0.00000   0.01809   0.01809  23.03174
    Z4       23.83209  -0.00310   0.00000  -0.07880  -0.07880  23.75329
    X5       19.51029  -0.00076   0.00000   0.01172   0.01172  19.52201
    Y5       21.97392  -0.00073   0.00000  -0.00850  -0.00850  21.96543
    Z5       21.33406   0.00271   0.00000   0.03186   0.03186  21.36593
    X6       20.97124  -0.00538   0.00000  -0.04862  -0.04862  20.92262
    Y6       17.47953  -0.00465   0.00000  -0.06635  -0.06635  17.41318
    Z6       26.57673   0.00046   0.00000   0.02564   0.02564  26.60237
    X7       16.08174   0.00156   0.00000   0.05987   0.05987  16.14161
    Y7       26.93313   0.00062   0.00000   0.00744   0.00744  26.94057
    Z7       21.39000  -0.00072   0.00000  -0.04029  -0.04029  21.34971
         Item               Value     Threshold  Converged?
 Maximum Force            0.006663     0.000450     NO 
 RMS     Force            0.002919     0.000300     NO 
 Maximum Displacement     0.079179     0.001800     NO 
 RMS     Displacement     0.039758     0.001200     NO 
 Predicted change in Energy=-9.849986D-04
 GradGradGradGradGradGradGradGradGradGradGradGradGradGradGradGradGradGrad

 Leave Link  103 at Mon Dec  4 03:11:06 2023, MaxMem=  1879048192 cpu:               0.2 elap:               0.0
 (Enter /home/sekinelabo/g16/l9999.exe)
 1\1\GINC-SEKINELABO-XA7R-R37\Force\UB3LYP\6-311+G(d)\Na7(2)\SEKINELABO
 \04-Dec-2023\0\\#P B3LYP/6-311+g(d) force\\DPGEN\\0,2\Na,12.2663,14.67
 47,12.9802\Na,14.0118,12.8229,10.3906\Na,13.0715,11.2487,13.4001\Na,16
 .7733,12.1783,12.6114\Na,10.3244,11.6281,11.2895\Na,11.0975,9.24977,14
 .0638\Na,8.51009,14.2524,11.3191\\Version=ES64L-G16RevB.01\State=2-A\H
 F=-1136.1146152\S2=0.779672\S2-1=0.\S2A=0.750515\RMSD=8.291e-09\RMSF=2
 .919e-03\Dipole=0.2540641,0.3270422,0.0301702\Quadrupole=0.581895,-1.1
 77611,0.595716,-0.3085387,0.3127745,-0.2410848\PG=C01 [X(Na7)]\\@


 CHEMISTRY BEGAN BY SAYING IT WOULD CHANGE THE BASER
 METALS INTO GOLD.  BY NOT DOING THAT IT HAS DONE MUCH
 GREATER THINGS.  --  RALPH WALDO EMERSON
 Job cpu time:       0 days  0 hours  4 minutes 21.1 seconds.
 Elapsed time:       0 days  0 hours  0 minutes 22.5 seconds.
 File lengths (MBytes):  RWF=     32 Int=      0 D2E=      0 Chk=      4 Scr=      1
 Normal termination of Gaussian 16 at Mon Dec  4 03:11:06 2023.
