 Set GAUSS_MDEF to "14GB".
 Entering Gaussian System, Link 0=g16
 Initial command:
 /home/sekinelabo/g16/l1.exe "/home/sekinelabo/g16temp/Gau-327287.inp" -scrdir="/home/sekinelabo/g16temp/"
 Entering Link 1 = /home/sekinelabo/g16/l1.exe PID=    327289.
  
 Copyright (c) 1988-2017, Gaussian, Inc.  All Rights Reserved.
  
 This is part of the Gaussian(R) 16 program.  It is based on
 the Gaussian(R) 09 system (copyright 2009, Gaussian, Inc.),
 the Gaussian(R) 03 system (copyright 2003, Gaussian, Inc.),
 the Gaussian(R) 98 system (copyright 1998, Gaussian, Inc.),
 the Gaussian(R) 94 system (copyright 1995, Gaussian, Inc.),
 the Gaussian 92(TM) system (copyright 1992, Gaussian, Inc.),
 the Gaussian 90(TM) system (copyright 1990, Gaussian, Inc.),
 the Gaussian 88(TM) system (copyright 1988, Gaussian, Inc.),
 the Gaussian 86(TM) system (copyright 1986, Carnegie Mellon
 University), and the Gaussian 82(TM) system (copyright 1983,
 Carnegie Mellon University). Gaussian is a federally registered
 trademark of Gaussian, Inc.
  
 This software contains proprietary and confidential information,
 including trade secrets, belonging to Gaussian, Inc.
  
 This software is provided under written license and may be
 used, copied, transmitted, or stored only in accord with that
 written license.
  
 The following legend is applicable only to US Government
 contracts under FAR:
  
                    RESTRICTED RIGHTS LEGEND
  
 Use, reproduction and disclosure by the US Government is
 subject to restrictions as set forth in subparagraphs (a)
 and (c) of the Commercial Computer Software - Restricted
 Rights clause in FAR 52.227-19.
  
 Gaussian, Inc.
 340 Quinnipiac St., Bldg. 40, Wallingford CT 06492
  
  
 ---------------------------------------------------------------
 Warning -- This program may not be used in any manner that
 competes with the business of Gaussian, Inc. or will provide
 assistance to any competitor of Gaussian, Inc.  The licensee
 of this program is prohibited from giving any competitor of
 Gaussian, Inc. access to this program.  By using this program,
 the user acknowledges that Gaussian, Inc. is engaged in the
 business of creating and licensing software in the field of
 computational chemistry and represents and warrants to the
 licensee that it is not a competitor of Gaussian, Inc. and that
 it will not use this program in any manner prohibited above.
 ---------------------------------------------------------------
  

 Cite this work as:
 Gaussian 16, Revision B.01,
 M. J. Frisch, G. W. Trucks, H. B. Schlegel, G. E. Scuseria, 
 M. A. Robb, J. R. Cheeseman, G. Scalmani, V. Barone, 
 G. A. Petersson, H. Nakatsuji, X. Li, M. Caricato, A. V. Marenich, 
 J. Bloino, B. G. Janesko, R. Gomperts, B. Mennucci, H. P. Hratchian, 
 J. V. Ortiz, A. F. Izmaylov, J. L. Sonnenberg, D. Williams-Young, 
 F. Ding, F. Lipparini, F. Egidi, J. Goings, B. Peng, A. Petrone, 
 T. Henderson, D. Ranasinghe, V. G. Zakrzewski, J. Gao, N. Rega, 
 G. Zheng, W. Liang, M. Hada, M. Ehara, K. Toyota, R. Fukuda, 
 J. Hasegawa, M. Ishida, T. Nakajima, Y. Honda, O. Kitao, H. Nakai, 
 T. Vreven, K. Throssell, J. A. Montgomery, Jr., J. E. Peralta, 
 F. Ogliaro, M. J. Bearpark, J. J. Heyd, E. N. Brothers, K. N. Kudin, 
 V. N. Staroverov, T. A. Keith, R. Kobayashi, J. Normand, 
 K. Raghavachari, A. P. Rendell, J. C. Burant, S. S. Iyengar, 
 J. Tomasi, M. Cossi, J. M. Millam, M. Klene, C. Adamo, R. Cammi, 
 J. W. Ochterski, R. L. Martin, K. Morokuma, O. Farkas, 
 J. B. Foresman, and D. J. Fox, Gaussian, Inc., Wallingford CT, 2016.
 
 ******************************************
 Gaussian 16:  ES64L-G16RevB.01 20-Dec-2017
                 3-Dec-2023 
 ******************************************
 %nproc=15
 Will use up to   15 processors via shared memory.
 -------------------------
 #P B3LYP/6-311+g(d) force
 -------------------------
 1/10=7,30=1,38=1/1,3;
 2/12=2,17=6,18=5,40=1/2;
 3/5=4,6=6,7=11,11=2,25=1,30=1,71=1,74=-5/1,2,3;
 4//1;
 5/5=2,38=5/2;
 6/7=2,8=2,9=2,10=2,28=1/1;
 7/29=1/1,2,3,16;
 1/10=7,30=1/3;
 99//99;
 Leave Link    1 at Sun Dec  3 13:43:35 2023, MaxMem=           0 cpu:               0.3 elap:               0.0
 (Enter /home/sekinelabo/g16/l101.exe)
 -----
 DPGEN
 -----
 Symbolic Z-matrix:
 Charge =  0 Multiplicity = 2
 Na                    12.0442   15.0437   11.7914 
 Na                    13.5453   13.4239   8.55855 
 Na                    11.0818   8.12902   9.76405 
 Na                    10.3706   10.9466   15.7011 
 Na                    10.3684   14.5008   14.3089 
 Na                    9.99671   8.61325   12.5048 
 Na                    13.7259   10.4756   8.50403 
 
 ITRead=  0  0  0  0  0  0  0
 MicOpt= -1 -1 -1 -1 -1 -1 -1
 NAtoms=      7 NQM=        7 NQMF=       0 NMMI=      0 NMMIF=      0
                NMic=       0 NMicF=      0.
                    Isotopes and Nuclear Properties:
 (Nuclear quadrupole moments (NQMom) in fm**2, nuclear magnetic moments (NMagM)
  in nuclear magnetons)

  Atom         1           2           3           4           5           6           7
 IAtWgt=          23          23          23          23          23          23          23
 AtmWgt=  22.9897697  22.9897697  22.9897697  22.9897697  22.9897697  22.9897697  22.9897697
 NucSpn=           3           3           3           3           3           3           3
 AtZEff=  -0.0000000  -0.0000000  -0.0000000  -0.0000000  -0.0000000  -0.0000000  -0.0000000
 NQMom=   10.4000000  10.4000000  10.4000000  10.4000000  10.4000000  10.4000000  10.4000000
 NMagM=    2.2175200   2.2175200   2.2175200   2.2175200   2.2175200   2.2175200   2.2175200
 AtZNuc=  11.0000000  11.0000000  11.0000000  11.0000000  11.0000000  11.0000000  11.0000000
 Leave Link  101 at Sun Dec  3 13:43:36 2023, MaxMem=  1879048192 cpu:               2.5 elap:               0.2
 (Enter /home/sekinelabo/g16/l103.exe)

 GradGradGradGradGradGradGradGradGradGradGradGradGradGradGradGradGradGrad
 Berny optimization.
 Initialization pass.
 Trust Radius=3.00D-01 FncErr=1.00D-07 GrdErr=1.00D-07 EigMax=2.50D+02 EigMin=1.00D-04
 Number of steps in this run=      2 maximum allowed number of steps=      2.
 GradGradGradGradGradGradGradGradGradGradGradGradGradGradGradGradGradGrad

 Leave Link  103 at Sun Dec  3 13:43:36 2023, MaxMem=  1879048192 cpu:               0.2 elap:               0.0
 (Enter /home/sekinelabo/g16/l202.exe)
                          Input orientation:                          
 ---------------------------------------------------------------------
 Center     Atomic      Atomic             Coordinates (Angstroms)
 Number     Number       Type             X           Y           Z
 ---------------------------------------------------------------------
      1         11           0       12.044200   15.043700   11.791400
      2         11           0       13.545300   13.423900    8.558550
      3         11           0       11.081800    8.129020    9.764050
      4         11           0       10.370600   10.946600   15.701100
      5         11           0       10.368400   14.500800   14.308900
      6         11           0        9.996710    8.613250   12.504800
      7         11           0       13.725900   10.475600    8.504030
 ---------------------------------------------------------------------
                    Distance matrix (angstroms):
                    1          2          3          4          5
     1  Na   0.000000
     2  Na   3.915147   0.000000
     3  Na   7.269743   5.963038   0.000000
     4  Na   5.905330   8.199497   6.610078   0.000000
     5  Na   3.072597   6.657247   7.859019   3.817141   0.000000
     6  Na   6.786151   7.162942   2.987241   3.975003   6.168969
     7  Na   5.873879   2.954329   3.753046   7.954728   7.821225
                    6          7
     6  Na   0.000000
     7  Na   5.777661   0.000000
 Stoichiometry    Na7(2)
 Framework group  C1[X(Na7)]
 Deg. of freedom    15
 Full point group                 C1      NOp   1
 Largest Abelian subgroup         C1      NOp   1
 Largest concise Abelian subgroup C1      NOp   1
                         Standard orientation:                         
 ---------------------------------------------------------------------
 Center     Atomic      Atomic             Coordinates (Angstroms)
 Number     Number       Type             X           Y           Z
 ---------------------------------------------------------------------
      1         11           0        1.117074   -3.298050   -0.215730
      2         11           0       -2.776757   -2.943608   -0.013697
      3         11           0       -2.516732    2.989322   -0.552715
      4         11           0        3.828210    1.829662    0.892977
      5         11           0        3.756856   -1.743070   -0.449059
      6         11           0        0.429526    3.451184   -0.379918
      7         11           0       -3.838176   -0.285439    0.718142
 ---------------------------------------------------------------------
 Rotational constants (GHZ):           0.4498449           0.3604398           0.2077109
 Leave Link  202 at Sun Dec  3 13:43:36 2023, MaxMem=  1879048192 cpu:               0.0 elap:               0.0
 (Enter /home/sekinelabo/g16/l301.exe)
 Standard basis: 6-311+G(d) (5D, 7F)
 Ernie: Thresh=  0.10000D-02 Tol=  0.10000D-05 Strict=F.
 There are   217 symmetry adapted cartesian basis functions of A   symmetry.
 There are   210 symmetry adapted basis functions of A   symmetry.
   210 basis functions,   350 primitive gaussians,   217 cartesian basis functions
    39 alpha electrons       38 beta electrons
       nuclear repulsion energy       262.8688066397 Hartrees.
 IExCor=  402 DFT=T Ex+Corr=B3LYP ExCW=0 ScaHFX=  0.200000
 ScaDFX=  0.800000  0.720000  1.000000  0.810000 ScalE2=  1.000000  1.000000
 IRadAn=      5 IRanWt=     -1 IRanGd=            0 ICorTp=0 IEmpDi=  4
 NAtoms=    7 NActive=    7 NUniq=    7 SFac= 1.00D+00 NAtFMM=   60 NAOKFM=F Big=F
 Integral buffers will be    131072 words long.
 Raffenetti 2 integral format.
 Two-electron integral symmetry is turned on.
 Leave Link  301 at Sun Dec  3 13:43:36 2023, MaxMem=  1879048192 cpu:               0.5 elap:               0.0
 (Enter /home/sekinelabo/g16/l302.exe)
 NPDir=0 NMtPBC=     1 NCelOv=     1 NCel=       1 NClECP=     1 NCelD=      1
         NCelK=      1 NCelE2=     1 NClLst=     1 CellRange=     0.0.
 One-electron integrals computed using PRISM.
 One-electron integral symmetry used in STVInt
 NBasis=   210 RedAO= T EigKep=  8.67D-06  NBF=   210
 NBsUse=   210 1.00D-06 EigRej= -1.00D+00 NBFU=   210
 Precomputing XC quadrature grid using
 IXCGrd= 4 IRadAn=           5 IRanWt=          -1 IRanGd=           0 AccXCQ= 0.00D+00.
 Generated NRdTot=       0 NPtTot=           0 NUsed=           0 NTot=          32
 NSgBfM=   197   197   197   197   197 MxSgAt=     7 MxSgA2=     7.
 Leave Link  302 at Sun Dec  3 13:43:36 2023, MaxMem=  1879048192 cpu:               1.9 elap:               0.1
 (Enter /home/sekinelabo/g16/l303.exe)
 DipDrv:  MaxL=1.
 Leave Link  303 at Sun Dec  3 13:43:36 2023, MaxMem=  1879048192 cpu:               0.5 elap:               0.0
 (Enter /home/sekinelabo/g16/l401.exe)
 ExpMin= 7.60D-03 ExpMax= 3.62D+04 ExpMxC= 1.21D+03 IAcc=3 IRadAn=         5 AccDes= 0.00D+00
 Harris functional with IExCor=  402 and IRadAn=       5 diagonalized for initial guess.
 HarFok:  IExCor=  402 AccDes= 0.00D+00 IRadAn=         5 IDoV= 1 UseB2=F ITyADJ=14
 ICtDFT=  3500011 ScaDFX=  1.000000  1.000000  1.000000  1.000000
 FoFCou: FMM=F IPFlag=           0 FMFlag=      100000 FMFlg1=           0
         NFxFlg=           0 DoJE=T BraDBF=F KetDBF=T FulRan=T
         wScrn=  0.000000 ICntrl=       500 IOpCl=  0 I1Cent=   200000004 NGrid=           0
         NMat0=    1 NMatS0=      1 NMatT0=    0 NMatD0=    1 NMtDS0=    0 NMtDT0=    0
 Petite list used in FoFCou.
 Harris En= -1135.87589044458    
 JPrj=0 DoOrth=F DoCkMO=F.
 Initial guess <Sx>= 0.0000 <Sy>= 0.0000 <Sz>= 0.5000 <S**2>= 0.7500 S= 0.5000
 Leave Link  401 at Sun Dec  3 13:43:36 2023, MaxMem=  1879048192 cpu:               4.1 elap:               0.3
 (Enter /home/sekinelabo/g16/l502.exe)
 Keep R1 and R2 ints in memory in canonical form, NReq=506573279.
 FoFCou: FMM=F IPFlag=           0 FMFlag=           0 FMFlg1=           0
         NFxFlg=           0 DoJE=F BraDBF=F KetDBF=F FulRan=T
         wScrn=  0.000000 ICntrl=       600 IOpCl=  0 I1Cent=           0 NGrid=           0
         NMat0=    1 NMatS0=  22155 NMatT0=    0 NMatD0=    1 NMtDS0=    0 NMtDT0=    0
 Symmetry not used in FoFCou.
 Two-electron integral symmetry not used.
 UHF open shell SCF:
 Using DIIS extrapolation, IDIIS=  1040.
 NGot=  1879048192 LenX=  1388082621 LenY=  1388035091
 Requested convergence on RMS density matrix=1.00D-08 within 128 cycles.
 Requested convergence on MAX density matrix=1.00D-06.
 Requested convergence on             energy=1.00D-06.
 No special actions if energy rises.

 Cycle   1  Pass 1  IDiag  1:
 E= -1136.08265046536    
 DIIS: error= 1.07D-02 at cycle   1 NSaved=   1.
 NSaved= 1 IEnMin= 1 EnMin= -1136.08265046536     IErMin= 1 ErrMin= 1.07D-02
 ErrMax= 1.07D-02  0.00D+00 EMaxC= 1.00D-01 BMatC= 1.82D-01 BMatP= 1.82D-01
 IDIUse=3 WtCom= 8.93D-01 WtEn= 1.07D-01
 Coeff-Com:  0.100D+01
 Coeff-En:   0.100D+01
 Coeff:      0.100D+01
 Gap=     0.034 Goal=   None    Shift=    0.000
 Gap=     0.047 Goal=   None    Shift=    0.000
 GapD=    0.034 DampG=0.250 DampE=0.500 DampFc=0.2500 IDamp=-1.
 Damping current iteration by 2.50D-01
 RMSDP=2.77D-03 MaxDP=7.86D-02              OVMax= 9.93D-02

 Cycle   2  Pass 1  IDiag  1:
 E= -1136.09007724839     Delta-E=       -0.007426783031 Rises=F Damp=T
 DIIS: error= 7.39D-03 at cycle   2 NSaved=   2.
 NSaved= 2 IEnMin= 2 EnMin= -1136.09007724839     IErMin= 2 ErrMin= 7.39D-03
 ErrMax= 7.39D-03  0.00D+00 EMaxC= 1.00D-01 BMatC= 7.05D-02 BMatP= 1.82D-01
 IDIUse=3 WtCom= 9.26D-01 WtEn= 7.39D-02
 Coeff-Com: -0.131D+01 0.231D+01
 Coeff-En:   0.000D+00 0.100D+01
 Coeff:     -0.121D+01 0.221D+01
 Gap=     0.034 Goal=   None    Shift=    0.000
 Gap=     0.050 Goal=   None    Shift=    0.000
 RMSDP=3.19D-03 MaxDP=1.19D-01 DE=-7.43D-03 OVMax= 4.68D-02

 Cycle   3  Pass 1  IDiag  1:
 E= -1136.10560145054     Delta-E=       -0.015524202149 Rises=F Damp=F
 DIIS: error= 2.84D-04 at cycle   3 NSaved=   3.
 NSaved= 3 IEnMin= 3 EnMin= -1136.10560145054     IErMin= 3 ErrMin= 2.84D-04
 ErrMax= 2.84D-04  0.00D+00 EMaxC= 1.00D-01 BMatC= 9.19D-05 BMatP= 7.05D-02
 IDIUse=3 WtCom= 9.97D-01 WtEn= 2.84D-03
 Coeff-Com:  0.350D-02-0.116D-02 0.998D+00
 Coeff-En:   0.000D+00 0.000D+00 0.100D+01
 Coeff:      0.349D-02-0.116D-02 0.998D+00
 Gap=     0.035 Goal=   None    Shift=    0.000
 Gap=     0.050 Goal=   None    Shift=    0.000
 RMSDP=4.21D-04 MaxDP=1.65D-02 DE=-1.55D-02 OVMax= 2.67D-02

 Cycle   4  Pass 1  IDiag  1:
 E= -1136.10563774619     Delta-E=       -0.000036295647 Rises=F Damp=F
 DIIS: error= 4.76D-04 at cycle   4 NSaved=   4.
 NSaved= 4 IEnMin= 4 EnMin= -1136.10563774619     IErMin= 3 ErrMin= 2.84D-04
 ErrMax= 4.76D-04  0.00D+00 EMaxC= 1.00D-01 BMatC= 9.33D-05 BMatP= 9.19D-05
 IDIUse=3 WtCom= 9.95D-01 WtEn= 4.76D-03
 Coeff-Com:  0.518D-02-0.726D-02 0.505D+00 0.497D+00
 Coeff-En:   0.000D+00 0.000D+00 0.367D+00 0.633D+00
 Coeff:      0.516D-02-0.722D-02 0.505D+00 0.497D+00
 Gap=     0.036 Goal=   None    Shift=    0.000
 Gap=     0.050 Goal=   None    Shift=    0.000
 RMSDP=2.40D-04 MaxDP=1.03D-02 DE=-3.63D-05 OVMax= 1.72D-02

 Cycle   5  Pass 1  IDiag  1:
 E= -1136.10573558306     Delta-E=       -0.000097836878 Rises=F Damp=F
 DIIS: error= 2.11D-04 at cycle   5 NSaved=   5.
 NSaved= 5 IEnMin= 5 EnMin= -1136.10573558306     IErMin= 5 ErrMin= 2.11D-04
 ErrMax= 2.11D-04  0.00D+00 EMaxC= 1.00D-01 BMatC= 1.06D-05 BMatP= 9.19D-05
 IDIUse=3 WtCom= 9.98D-01 WtEn= 2.11D-03
 Coeff-Com:  0.192D-03-0.962D-03 0.101D+00 0.235D+00 0.665D+00
 Coeff-En:   0.000D+00 0.000D+00 0.000D+00 0.464D-01 0.954D+00
 Coeff:      0.191D-03-0.959D-03 0.101D+00 0.234D+00 0.665D+00
 Gap=     0.036 Goal=   None    Shift=    0.000
 Gap=     0.050 Goal=   None    Shift=    0.000
 RMSDP=9.73D-05 MaxDP=3.83D-03 DE=-9.78D-05 OVMax= 8.59D-03

 Cycle   6  Pass 1  IDiag  1:
 E= -1136.10575643416     Delta-E=       -0.000020851091 Rises=F Damp=F
 DIIS: error= 9.16D-05 at cycle   6 NSaved=   6.
 NSaved= 6 IEnMin= 6 EnMin= -1136.10575643416     IErMin= 6 ErrMin= 9.16D-05
 ErrMax= 9.16D-05  0.00D+00 EMaxC= 1.00D-01 BMatC= 2.90D-06 BMatP= 1.06D-05
 IDIUse=1 WtCom= 1.00D+00 WtEn= 0.00D+00
 Coeff-Com: -0.207D-02 0.246D-02-0.107D+00-0.376D-01 0.336D+00 0.808D+00
 Coeff:     -0.207D-02 0.246D-02-0.107D+00-0.376D-01 0.336D+00 0.808D+00
 Gap=     0.036 Goal=   None    Shift=    0.000
 Gap=     0.050 Goal=   None    Shift=    0.000
 RMSDP=5.76D-05 MaxDP=2.97D-03 DE=-2.09D-05 OVMax= 5.52D-03

 Cycle   7  Pass 1  IDiag  1:
 E= -1136.10576528101     Delta-E=       -0.000008846854 Rises=F Damp=F
 DIIS: error= 3.14D-05 at cycle   7 NSaved=   7.
 NSaved= 7 IEnMin= 7 EnMin= -1136.10576528101     IErMin= 7 ErrMin= 3.14D-05
 ErrMax= 3.14D-05  0.00D+00 EMaxC= 1.00D-01 BMatC= 5.10D-07 BMatP= 2.90D-06
 IDIUse=1 WtCom= 1.00D+00 WtEn= 0.00D+00
 Coeff-Com: -0.386D-03 0.572D-03-0.640D-01-0.661D-01-0.353D-01 0.280D+00
 Coeff-Com:  0.885D+00
 Coeff:     -0.386D-03 0.572D-03-0.640D-01-0.661D-01-0.353D-01 0.280D+00
 Coeff:      0.885D+00
 Gap=     0.036 Goal=   None    Shift=    0.000
 Gap=     0.050 Goal=   None    Shift=    0.000
 RMSDP=3.43D-05 MaxDP=1.44D-03 DE=-8.85D-06 OVMax= 3.16D-03

 Cycle   8  Pass 1  IDiag  1:
 E= -1136.10576781022     Delta-E=       -0.000002529208 Rises=F Damp=F
 DIIS: error= 2.05D-05 at cycle   8 NSaved=   8.
 NSaved= 8 IEnMin= 8 EnMin= -1136.10576781022     IErMin= 8 ErrMin= 2.05D-05
 ErrMax= 2.05D-05  0.00D+00 EMaxC= 1.00D-01 BMatC= 1.20D-07 BMatP= 5.10D-07
 IDIUse=1 WtCom= 1.00D+00 WtEn= 0.00D+00
 Coeff-Com:  0.709D-03-0.871D-03-0.281D-02-0.152D-01-0.753D-01-0.566D-01
 Coeff-Com:  0.260D+00 0.890D+00
 Coeff:      0.709D-03-0.871D-03-0.281D-02-0.152D-01-0.753D-01-0.566D-01
 Coeff:      0.260D+00 0.890D+00
 Gap=     0.036 Goal=   None    Shift=    0.000
 Gap=     0.051 Goal=   None    Shift=    0.000
 RMSDP=1.93D-05 MaxDP=7.32D-04 DE=-2.53D-06 OVMax= 1.58D-03

 Cycle   9  Pass 1  IDiag  1:
 E= -1136.10576864820     Delta-E=       -0.000000837986 Rises=F Damp=F
 DIIS: error= 1.95D-05 at cycle   9 NSaved=   9.
 NSaved= 9 IEnMin= 9 EnMin= -1136.10576864820     IErMin= 9 ErrMin= 1.95D-05
 ErrMax= 1.95D-05  0.00D+00 EMaxC= 1.00D-01 BMatC= 4.53D-08 BMatP= 1.20D-07
 IDIUse=1 WtCom= 1.00D+00 WtEn= 0.00D+00
 Coeff-Com:  0.290D-03-0.379D-03 0.128D-01 0.103D-01-0.978D-02-0.739D-01
 Coeff-Com: -0.155D+00 0.249D+00 0.967D+00
 Coeff:      0.290D-03-0.379D-03 0.128D-01 0.103D-01-0.978D-02-0.739D-01
 Coeff:     -0.155D+00 0.249D+00 0.967D+00
 Gap=     0.036 Goal=   None    Shift=    0.000
 Gap=     0.050 Goal=   None    Shift=    0.000
 RMSDP=1.44D-05 MaxDP=5.15D-04 DE=-8.38D-07 OVMax= 1.62D-03

 Cycle  10  Pass 1  IDiag  1:
 E= -1136.10576904376     Delta-E=       -0.000000395558 Rises=F Damp=F
 DIIS: error= 1.18D-05 at cycle  10 NSaved=  10.
 NSaved=10 IEnMin=10 EnMin= -1136.10576904376     IErMin=10 ErrMin= 1.18D-05
 ErrMax= 1.18D-05  0.00D+00 EMaxC= 1.00D-01 BMatC= 2.40D-08 BMatP= 4.53D-08
 IDIUse=1 WtCom= 1.00D+00 WtEn= 0.00D+00
 Coeff-Com: -0.448D-03 0.557D-03 0.675D-02 0.132D-01 0.436D-01 0.347D-02
 Coeff-Com: -0.246D+00-0.426D+00 0.533D+00 0.107D+01
 Coeff:     -0.448D-03 0.557D-03 0.675D-02 0.132D-01 0.436D-01 0.347D-02
 Coeff:     -0.246D+00-0.426D+00 0.533D+00 0.107D+01
 Gap=     0.036 Goal=   None    Shift=    0.000
 Gap=     0.050 Goal=   None    Shift=    0.000
 RMSDP=1.56D-05 MaxDP=7.25D-04 DE=-3.96D-07 OVMax= 1.30D-03

 Cycle  11  Pass 1  IDiag  1:
 E= -1136.10576927503     Delta-E=       -0.000000231273 Rises=F Damp=F
 DIIS: error= 7.42D-06 at cycle  11 NSaved=  11.
 NSaved=11 IEnMin=11 EnMin= -1136.10576927503     IErMin=11 ErrMin= 7.42D-06
 ErrMax= 7.42D-06  0.00D+00 EMaxC= 1.00D-01 BMatC= 6.40D-09 BMatP= 2.40D-08
 IDIUse=1 WtCom= 1.00D+00 WtEn= 0.00D+00
 Coeff-Com: -0.339D-03 0.426D-03 0.147D-03 0.436D-02 0.269D-01 0.210D-01
 Coeff-Com: -0.932D-01-0.291D+00 0.142D-01 0.587D+00 0.730D+00
 Coeff:     -0.339D-03 0.426D-03 0.147D-03 0.436D-02 0.269D-01 0.210D-01
 Coeff:     -0.932D-01-0.291D+00 0.142D-01 0.587D+00 0.730D+00
 Gap=     0.036 Goal=   None    Shift=    0.000
 Gap=     0.050 Goal=   None    Shift=    0.000
 RMSDP=6.18D-06 MaxDP=2.14D-04 DE=-2.31D-07 OVMax= 6.98D-04

 Cycle  12  Pass 1  IDiag  1:
 E= -1136.10576931087     Delta-E=       -0.000000035839 Rises=F Damp=F
 DIIS: error= 1.43D-06 at cycle  12 NSaved=  12.
 NSaved=12 IEnMin=12 EnMin= -1136.10576931087     IErMin=12 ErrMin= 1.43D-06
 ErrMax= 1.43D-06  0.00D+00 EMaxC= 1.00D-01 BMatC= 7.67D-10 BMatP= 6.40D-09
 IDIUse=1 WtCom= 1.00D+00 WtEn= 0.00D+00
 Coeff-Com:  0.274D-04-0.374D-04-0.129D-02-0.151D-02-0.197D-02 0.292D-02
 Coeff-Com:  0.300D-01 0.131D-01-0.123D+00-0.690D-01 0.235D+00 0.916D+00
 Coeff:      0.274D-04-0.374D-04-0.129D-02-0.151D-02-0.197D-02 0.292D-02
 Coeff:      0.300D-01 0.131D-01-0.123D+00-0.690D-01 0.235D+00 0.916D+00
 Gap=     0.036 Goal=   None    Shift=    0.000
 Gap=     0.050 Goal=   None    Shift=    0.000
 RMSDP=2.32D-06 MaxDP=1.18D-04 DE=-3.58D-08 OVMax= 1.98D-04

 Cycle  13  Pass 1  IDiag  1:
 E= -1136.10576931506     Delta-E=       -0.000000004184 Rises=F Damp=F
 DIIS: error= 6.11D-07 at cycle  13 NSaved=  13.
 NSaved=13 IEnMin=13 EnMin= -1136.10576931506     IErMin=13 ErrMin= 6.11D-07
 ErrMax= 6.11D-07  0.00D+00 EMaxC= 1.00D-01 BMatC= 1.11D-10 BMatP= 7.67D-10
 IDIUse=1 WtCom= 1.00D+00 WtEn= 0.00D+00
 Coeff-Com:  0.665D-04-0.850D-04-0.319D-03-0.111D-02-0.458D-02-0.279D-02
 Coeff-Com:  0.245D-01 0.433D-01-0.376D-01-0.103D+00-0.283D-01 0.252D+00
 Coeff-Com:  0.858D+00
 Coeff:      0.665D-04-0.850D-04-0.319D-03-0.111D-02-0.458D-02-0.279D-02
 Coeff:      0.245D-01 0.433D-01-0.376D-01-0.103D+00-0.283D-01 0.252D+00
 Coeff:      0.858D+00
 Gap=     0.036 Goal=   None    Shift=    0.000
 Gap=     0.050 Goal=   None    Shift=    0.000
 RMSDP=6.19D-07 MaxDP=2.29D-05 DE=-4.18D-09 OVMax= 5.40D-05

 Cycle  14  Pass 1  IDiag  1:
 E= -1136.10576931560     Delta-E=       -0.000000000543 Rises=F Damp=F
 DIIS: error= 3.10D-07 at cycle  14 NSaved=  14.
 NSaved=14 IEnMin=14 EnMin= -1136.10576931560     IErMin=14 ErrMin= 3.10D-07
 ErrMax= 3.10D-07  0.00D+00 EMaxC= 1.00D-01 BMatC= 2.10D-11 BMatP= 1.11D-10
 IDIUse=1 WtCom= 1.00D+00 WtEn= 0.00D+00
 Coeff-Com: -0.130D-05 0.237D-05 0.279D-03 0.207D-03 0.923D-04-0.105D-02
 Coeff-Com: -0.406D-02 0.805D-04 0.217D-01 0.762D-02-0.481D-01-0.185D+00
 Coeff-Com:  0.506D-01 0.116D+01
 Coeff:     -0.130D-05 0.237D-05 0.279D-03 0.207D-03 0.923D-04-0.105D-02
 Coeff:     -0.406D-02 0.805D-04 0.217D-01 0.762D-02-0.481D-01-0.185D+00
 Coeff:      0.506D-01 0.116D+01
 Gap=     0.036 Goal=   None    Shift=    0.000
 Gap=     0.050 Goal=   None    Shift=    0.000
 RMSDP=4.09D-07 MaxDP=1.55D-05 DE=-5.43D-10 OVMax= 3.24D-05

 Cycle  15  Pass 1  IDiag  1:
 E= -1136.10576931578     Delta-E=       -0.000000000178 Rises=F Damp=F
 DIIS: error= 1.48D-07 at cycle  15 NSaved=  15.
 NSaved=15 IEnMin=15 EnMin= -1136.10576931578     IErMin=15 ErrMin= 1.48D-07
 ErrMax= 1.48D-07  0.00D+00 EMaxC= 1.00D-01 BMatC= 3.75D-12 BMatP= 2.10D-11
 IDIUse=1 WtCom= 1.00D+00 WtEn= 0.00D+00
 Coeff-Com: -0.174D-04 0.225D-04 0.492D-04 0.231D-03 0.999D-03 0.427D-03
 Coeff-Com: -0.458D-02-0.829D-02 0.496D-02 0.203D-01 0.113D-01-0.381D-01
 Coeff-Com: -0.183D+00-0.497D-01 0.125D+01
 Coeff:     -0.174D-04 0.225D-04 0.492D-04 0.231D-03 0.999D-03 0.427D-03
 Coeff:     -0.458D-02-0.829D-02 0.496D-02 0.203D-01 0.113D-01-0.381D-01
 Coeff:     -0.183D+00-0.497D-01 0.125D+01
 Gap=     0.036 Goal=   None    Shift=    0.000
 Gap=     0.050 Goal=   None    Shift=    0.000
 RMSDP=2.00D-07 MaxDP=7.96D-06 DE=-1.78D-10 OVMax= 1.47D-05

 Cycle  16  Pass 1  IDiag  1:
 E= -1136.10576931582     Delta-E=       -0.000000000043 Rises=F Damp=F
 DIIS: error= 7.47D-08 at cycle  16 NSaved=  16.
 NSaved=16 IEnMin=16 EnMin= -1136.10576931582     IErMin=16 ErrMin= 7.47D-08
 ErrMax= 7.47D-08  0.00D+00 EMaxC= 1.00D-01 BMatC= 7.60D-13 BMatP= 3.75D-12
 IDIUse=1 WtCom= 1.00D+00 WtEn= 0.00D+00
 Coeff-Com:  0.363D-05-0.486D-05-0.417D-04-0.475D-04-0.147D-03 0.352D-04
 Coeff-Com:  0.101D-02 0.119D-02-0.265D-02-0.437D-02 0.276D-02 0.309D-01
 Coeff-Com:  0.233D-01-0.161D+00-0.143D+00 0.125D+01
 Coeff:      0.363D-05-0.486D-05-0.417D-04-0.475D-04-0.147D-03 0.352D-04
 Coeff:      0.101D-02 0.119D-02-0.265D-02-0.437D-02 0.276D-02 0.309D-01
 Coeff:      0.233D-01-0.161D+00-0.143D+00 0.125D+01
 Gap=     0.036 Goal=   None    Shift=    0.000
 Gap=     0.050 Goal=   None    Shift=    0.000
 RMSDP=7.55D-08 MaxDP=3.36D-06 DE=-4.34D-11 OVMax= 7.16D-06

 Cycle  17  Pass 1  IDiag  1:
 E= -1136.10576931582     Delta-E=       -0.000000000002 Rises=F Damp=F
 DIIS: error= 3.43D-08 at cycle  17 NSaved=  17.
 NSaved=17 IEnMin=17 EnMin= -1136.10576931582     IErMin=17 ErrMin= 3.43D-08
 ErrMax= 3.43D-08  0.00D+00 EMaxC= 1.00D-01 BMatC= 2.69D-13 BMatP= 7.60D-13
 IDIUse=1 WtCom= 1.00D+00 WtEn= 0.00D+00
 Coeff-Com:  0.648D-05-0.843D-05-0.203D-04-0.809D-04-0.321D-03-0.133D-03
 Coeff-Com:  0.140D-02 0.309D-02-0.151D-02-0.739D-02-0.352D-02 0.148D-01
 Coeff-Com:  0.605D-01 0.892D-02-0.418D+00 0.125D+00 0.122D+01
 Coeff:      0.648D-05-0.843D-05-0.203D-04-0.809D-04-0.321D-03-0.133D-03
 Coeff:      0.140D-02 0.309D-02-0.151D-02-0.739D-02-0.352D-02 0.148D-01
 Coeff:      0.605D-01 0.892D-02-0.418D+00 0.125D+00 0.122D+01
 Gap=     0.036 Goal=   None    Shift=    0.000
 Gap=     0.050 Goal=   None    Shift=    0.000
 RMSDP=4.81D-08 MaxDP=1.78D-06 DE=-1.82D-12 OVMax= 5.01D-06

 Cycle  18  Pass 1  IDiag  1:
 E= -1136.10576931584     Delta-E=       -0.000000000014 Rises=F Damp=F
 DIIS: error= 1.51D-08 at cycle  18 NSaved=  18.
 NSaved=18 IEnMin=18 EnMin= -1136.10576931584     IErMin=18 ErrMin= 1.51D-08
 ErrMax= 1.51D-08  0.00D+00 EMaxC= 1.00D-01 BMatC= 6.59D-14 BMatP= 2.69D-13
 IDIUse=1 WtCom= 1.00D+00 WtEn= 0.00D+00
 Coeff-Com: -0.117D-05 0.158D-05 0.102D-04 0.146D-04 0.454D-04-0.180D-04
 Coeff-Com: -0.319D-03-0.363D-03 0.126D-02 0.949D-03-0.179D-02-0.989D-02
 Coeff-Com: -0.215D-02 0.564D-01 0.199D-02-0.365D+00 0.123D+00 0.120D+01
 Coeff:     -0.117D-05 0.158D-05 0.102D-04 0.146D-04 0.454D-04-0.180D-04
 Coeff:     -0.319D-03-0.363D-03 0.126D-02 0.949D-03-0.179D-02-0.989D-02
 Coeff:     -0.215D-02 0.564D-01 0.199D-02-0.365D+00 0.123D+00 0.120D+01
 Gap=     0.036 Goal=   None    Shift=    0.000
 Gap=     0.050 Goal=   None    Shift=    0.000
 RMSDP=2.43D-08 MaxDP=1.11D-06 DE=-1.36D-11 OVMax= 2.48D-06

 Cycle  19  Pass 1  IDiag  1:
 E= -1136.10576931584     Delta-E=       -0.000000000009 Rises=F Damp=F
 DIIS: error= 6.25D-09 at cycle  19 NSaved=  19.
 NSaved=19 IEnMin=19 EnMin= -1136.10576931584     IErMin=19 ErrMin= 6.25D-09
 ErrMax= 6.25D-09  0.00D+00 EMaxC= 1.00D-01 BMatC= 1.35D-14 BMatP= 6.59D-14
 IDIUse=1 WtCom= 1.00D+00 WtEn= 0.00D+00
 Coeff-Com: -0.145D-05 0.190D-05 0.577D-05 0.190D-04 0.709D-04 0.134D-04
 Coeff-Com: -0.350D-03-0.560D-03 0.525D-03 0.150D-02 0.150D-03-0.485D-02
 Coeff-Com: -0.121D-01 0.840D-02 0.912D-01-0.973D-01-0.210D+00 0.146D+00
 Coeff-Com:  0.108D+01
 Coeff:     -0.145D-05 0.190D-05 0.577D-05 0.190D-04 0.709D-04 0.134D-04
 Coeff:     -0.350D-03-0.560D-03 0.525D-03 0.150D-02 0.150D-03-0.485D-02
 Coeff:     -0.121D-01 0.840D-02 0.912D-01-0.973D-01-0.210D+00 0.146D+00
 Coeff:      0.108D+01
 Gap=     0.036 Goal=   None    Shift=    0.000
 Gap=     0.050 Goal=   None    Shift=    0.000
 RMSDP=9.90D-09 MaxDP=3.40D-07 DE=-8.64D-12 OVMax= 9.18D-07

 SCF Done:  E(UB3LYP) =  -1136.10576932     A.U. after   19 cycles
            NFock= 19  Conv=0.99D-08     -V/T= 2.0028
 <Sx>= 0.0000 <Sy>= 0.0000 <Sz>= 0.5000 <S**2>= 0.7774 S= 0.5136
 <L.S>= 0.000000000000E+00
 KE= 1.132877957756D+03 PE=-3.254595070221D+03 EE= 7.227425365095D+02
 Annihilation of the first spin contaminant:
 S**2 before annihilation     0.7774,   after     0.7505
 Leave Link  502 at Sun Dec  3 13:43:52 2023, MaxMem=  1879048192 cpu:             171.1 elap:              15.4
 (Enter /home/sekinelabo/g16/l601.exe)
 Copying SCF densities to generalized density rwf, IOpCl= 1 IROHF=0.

 **********************************************************************

            Population analysis using the SCF Density.

 **********************************************************************

 Orbital symmetries:
 Alpha Orbitals:
       Occupied  (A) (A) (A) (A) (A) (A) (A) (A) (A) (A) (A) (A)
                 (A) (A) (A) (A) (A) (A) (A) (A) (A) (A) (A) (A)
                 (A) (A) (A) (A) (A) (A) (A) (A) (A) (A) (A) (A)
                 (A) (A) (A)
       Virtual   (A) (A) (A) (A) (A) (A) (A) (A) (A) (A) (A) (A)
                 (A) (A) (A) (A) (A) (A) (A) (A) (A) (A) (A) (A)
                 (A) (A) (A) (A) (A) (A) (A) (A) (A) (A) (A) (A)
                 (A) (A) (A) (A) (A) (A) (A) (A) (A) (A) (A) (A)
                 (A) (A) (A) (A) (A) (A) (A) (A) (A) (A) (A) (A)
                 (A) (A) (A) (A) (A) (A) (A) (A) (A) (A) (A) (A)
                 (A) (A) (A) (A) (A) (A) (A) (A) (A) (A) (A) (A)
                 (A) (A) (A) (A) (A) (A) (A) (A) (A) (A) (A) (A)
                 (A) (A) (A) (A) (A) (A) (A) (A) (A) (A) (A) (A)
                 (A) (A) (A) (A) (A) (A) (A) (A) (A) (A) (A) (A)
                 (A) (A) (A) (A) (A) (A) (A) (A) (A) (A) (A) (A)
                 (A) (A) (A) (A) (A) (A) (A) (A) (A) (A) (A) (A)
                 (A) (A) (A) (A) (A) (A) (A) (A) (A) (A) (A) (A)
                 (A) (A) (A) (A) (A) (A) (A) (A) (A) (A) (A) (A)
                 (A) (A) (A)
 Beta  Orbitals:
       Occupied  (A) (A) (A) (A) (A) (A) (A) (A) (A) (A) (A) (A)
                 (A) (A) (A) (A) (A) (A) (A) (A) (A) (A) (A) (A)
                 (A) (A) (A) (A) (A) (A) (A) (A) (A) (A) (A) (A)
                 (A) (A)
       Virtual   (A) (A) (A) (A) (A) (A) (A) (A) (A) (A) (A) (A)
                 (A) (A) (A) (A) (A) (A) (A) (A) (A) (A) (A) (A)
                 (A) (A) (A) (A) (A) (A) (A) (A) (A) (A) (A) (A)
                 (A) (A) (A) (A) (A) (A) (A) (A) (A) (A) (A) (A)
                 (A) (A) (A) (A) (A) (A) (A) (A) (A) (A) (A) (A)
                 (A) (A) (A) (A) (A) (A) (A) (A) (A) (A) (A) (A)
                 (A) (A) (A) (A) (A) (A) (A) (A) (A) (A) (A) (A)
                 (A) (A) (A) (A) (A) (A) (A) (A) (A) (A) (A) (A)
                 (A) (A) (A) (A) (A) (A) (A) (A) (A) (A) (A) (A)
                 (A) (A) (A) (A) (A) (A) (A) (A) (A) (A) (A) (A)
                 (A) (A) (A) (A) (A) (A) (A) (A) (A) (A) (A) (A)
                 (A) (A) (A) (A) (A) (A) (A) (A) (A) (A) (A) (A)
                 (A) (A) (A) (A) (A) (A) (A) (A) (A) (A) (A) (A)
                 (A) (A) (A) (A) (A) (A) (A) (A) (A) (A) (A) (A)
                 (A) (A) (A) (A)
 The electronic state is 2-A.
 Alpha  occ. eigenvalues --  -38.44958 -38.44769 -38.44593 -38.44589 -38.44487
 Alpha  occ. eigenvalues --  -38.44454 -38.44011  -2.20775  -2.20561  -2.20384
 Alpha  occ. eigenvalues --   -2.20375  -2.20297  -2.20272  -2.19846  -1.14508
 Alpha  occ. eigenvalues --   -1.14427  -1.14407  -1.14273  -1.14228  -1.14210
 Alpha  occ. eigenvalues --   -1.14139  -1.14051  -1.14029  -1.14022  -1.14004
 Alpha  occ. eigenvalues --   -1.13991  -1.13945  -1.13934  -1.13931  -1.13918
 Alpha  occ. eigenvalues --   -1.13907  -1.13886  -1.13508  -1.13484  -1.13471
 Alpha  occ. eigenvalues --   -0.15618  -0.14024  -0.13668  -0.11123
 Alpha virt. eigenvalues --   -0.07517  -0.04688  -0.04415  -0.03708  -0.03480
 Alpha virt. eigenvalues --   -0.02395  -0.02233  -0.01935  -0.01484  -0.00916
 Alpha virt. eigenvalues --   -0.00458  -0.00169   0.00043   0.00398   0.00658
 Alpha virt. eigenvalues --    0.00829   0.00877   0.00946   0.01109   0.01172
 Alpha virt. eigenvalues --    0.01290   0.01481   0.01576   0.01703   0.01770
 Alpha virt. eigenvalues --    0.01908   0.02020   0.02091   0.02195   0.02413
 Alpha virt. eigenvalues --    0.02476   0.02483   0.02628   0.02797   0.02948
 Alpha virt. eigenvalues --    0.02986   0.03057   0.03322   0.03337   0.03416
 Alpha virt. eigenvalues --    0.03518   0.03615   0.03843   0.03999   0.04154
 Alpha virt. eigenvalues --    0.04585   0.04660   0.04974   0.05298   0.05768
 Alpha virt. eigenvalues --    0.06457   0.06574   0.06668   0.06863   0.07072
 Alpha virt. eigenvalues --    0.07301   0.07519   0.07686   0.07780   0.08083
 Alpha virt. eigenvalues --    0.08225   0.08402   0.08525   0.09180   0.09382
 Alpha virt. eigenvalues --    0.09653   0.09995   0.10228   0.10421   0.10943
 Alpha virt. eigenvalues --    0.11523   0.12127   0.12451   0.13187   0.13609
 Alpha virt. eigenvalues --    0.13873   0.14229   0.16306   0.17092   0.17448
 Alpha virt. eigenvalues --    0.27593   0.27734   0.28776   0.29125   0.29844
 Alpha virt. eigenvalues --    0.31004   0.31466   0.31561   0.32167   0.32397
 Alpha virt. eigenvalues --    0.32694   0.33151   0.33226   0.34075   0.34496
 Alpha virt. eigenvalues --    0.35311   0.35906   0.37255   0.38082   0.38579
 Alpha virt. eigenvalues --    0.39764   0.40358   0.40993   0.41910   0.42104
 Alpha virt. eigenvalues --    0.42546   0.42842   0.43178   0.43442   0.43555
 Alpha virt. eigenvalues --    0.43710   0.43937   0.44173   0.44417   0.44801
 Alpha virt. eigenvalues --    0.45117   0.45533   0.45962   0.46629   0.47313
 Alpha virt. eigenvalues --    0.47702   0.48403   0.48455   0.48862   0.49304
 Alpha virt. eigenvalues --    0.49960   0.50465   0.50950   0.51160   0.51500
 Alpha virt. eigenvalues --    0.53979   0.55379   0.58010   0.69490   0.72213
 Alpha virt. eigenvalues --    0.73469   2.02446   2.07368   2.08315   2.09392
 Alpha virt. eigenvalues --    2.13180   2.15913   2.17468   4.41428   4.41961
 Alpha virt. eigenvalues --    4.42046   4.43420   4.43493   4.43734   4.43899
 Alpha virt. eigenvalues --    4.44294   4.44792   4.45415   4.45909   4.46245
 Alpha virt. eigenvalues --    4.46590   4.46765   4.47081   4.47804   4.48209
 Alpha virt. eigenvalues --    4.49559   4.62873   4.66095   4.66948  96.21677
 Alpha virt. eigenvalues --   96.27749  96.29023  96.30071  96.35870  96.38660
 Alpha virt. eigenvalues --   96.40744
  Beta  occ. eigenvalues --  -38.44937 -38.44765 -38.44585 -38.44492 -38.44438
  Beta  occ. eigenvalues --  -38.44435 -38.43972  -2.20741  -2.20559  -2.20383
  Beta  occ. eigenvalues --   -2.20247  -2.20202  -2.20187  -2.19774  -1.14473
  Beta  occ. eigenvalues --   -1.14406  -1.14379  -1.14251  -1.14232  -1.14194
  Beta  occ. eigenvalues --   -1.14106  -1.14056  -1.14011  -1.13908  -1.13902
  Beta  occ. eigenvalues --   -1.13894  -1.13883  -1.13880  -1.13878  -1.13873
  Beta  occ. eigenvalues --   -1.13869  -1.13825  -1.13459  -1.13436  -1.13423
  Beta  occ. eigenvalues --   -0.15150  -0.13269  -0.12927
  Beta virt. eigenvalues --   -0.07879  -0.07654  -0.04232  -0.03958  -0.03525
  Beta virt. eigenvalues --   -0.03081  -0.02194  -0.02039  -0.01749  -0.01332
  Beta virt. eigenvalues --   -0.00544  -0.00180   0.00066   0.00266   0.00374
  Beta virt. eigenvalues --    0.00764   0.00932   0.00978   0.00999   0.01159
  Beta virt. eigenvalues --    0.01246   0.01353   0.01548   0.01634   0.01756
  Beta virt. eigenvalues --    0.01827   0.01957   0.02134   0.02227   0.02299
  Beta virt. eigenvalues --    0.02479   0.02523   0.02573   0.02682   0.02866
  Beta virt. eigenvalues --    0.02983   0.03043   0.03121   0.03356   0.03403
  Beta virt. eigenvalues --    0.03467   0.03572   0.03656   0.03926   0.04011
  Beta virt. eigenvalues --    0.04226   0.04701   0.04765   0.05074   0.05404
  Beta virt. eigenvalues --    0.05856   0.06540   0.06660   0.06733   0.06928
  Beta virt. eigenvalues --    0.07166   0.07365   0.07643   0.07820   0.07849
  Beta virt. eigenvalues --    0.08278   0.08325   0.08558   0.08838   0.09217
  Beta virt. eigenvalues --    0.09535   0.09983   0.10194   0.10294   0.10522
  Beta virt. eigenvalues --    0.10971   0.11651   0.12426   0.12487   0.13429
  Beta virt. eigenvalues --    0.13775   0.14043   0.14333   0.16382   0.17220
  Beta virt. eigenvalues --    0.17622   0.27901   0.28127   0.29194   0.29471
  Beta virt. eigenvalues --    0.30088   0.31300   0.31755   0.31813   0.32445
  Beta virt. eigenvalues --    0.32654   0.32832   0.33446   0.33610   0.34295
  Beta virt. eigenvalues --    0.34840   0.35784   0.36322   0.37737   0.38545
  Beta virt. eigenvalues --    0.38853   0.39924   0.40630   0.41152   0.42044
  Beta virt. eigenvalues --    0.42160   0.42600   0.43052   0.43243   0.43505
  Beta virt. eigenvalues --    0.43620   0.43837   0.43978   0.44321   0.44613
  Beta virt. eigenvalues --    0.44973   0.45163   0.45585   0.46058   0.46727
  Beta virt. eigenvalues --    0.47361   0.47871   0.48459   0.48744   0.48979
  Beta virt. eigenvalues --    0.49386   0.50051   0.50619   0.51060   0.51315
  Beta virt. eigenvalues --    0.51602   0.54185   0.55606   0.58238   0.69607
  Beta virt. eigenvalues --    0.72293   0.73529   2.02606   2.07459   2.08521
  Beta virt. eigenvalues --    2.09619   2.13225   2.15994   2.17551   4.41475
  Beta virt. eigenvalues --    4.42021   4.42095   4.43444   4.43521   4.43755
  Beta virt. eigenvalues --    4.43938   4.44345   4.44930   4.45457   4.45945
  Beta virt. eigenvalues --    4.46347   4.46620   4.46816   4.47199   4.47838
  Beta virt. eigenvalues --    4.48260   4.49588   4.62940   4.66142   4.66993
  Beta virt. eigenvalues --   96.21730  96.27780  96.29094  96.30145  96.35895
  Beta virt. eigenvalues --   96.38693  96.40776
          Condensed to atoms (all electrons):
               1          2          3          4          5          6
     1  Na  11.406272  -0.062393  -0.090112  -0.120582   0.257653  -0.104491
     2  Na  -0.062393  11.447684  -0.228713  -0.022832  -0.170962  -0.332930
     3  Na  -0.090112  -0.228713  10.918159  -0.142192  -0.070454   0.302136
     4  Na  -0.120582  -0.022832  -0.142192  10.904712   0.171183   0.175858
     5  Na   0.257653  -0.170962  -0.070454   0.171183  10.804852  -0.032551
     6  Na  -0.104491  -0.332930   0.302136   0.175858  -0.032551  11.119521
     7  Na  -0.130309   0.277846   0.125231  -0.028848  -0.098031  -0.040417
               7
     1  Na  -0.130309
     2  Na   0.277846
     3  Na   0.125231
     4  Na  -0.028848
     5  Na  -0.098031
     6  Na  -0.040417
     7  Na  11.130618
          Atomic-Atomic Spin Densities.
               1          2          3          4          5          6
     1  Na   0.504304  -0.240256   0.054251  -0.122841   0.037405   0.023018
     2  Na  -0.240256   0.238409  -0.095119   0.052345   0.004712  -0.008676
     3  Na   0.054251  -0.095119   0.205158  -0.032508   0.004171   0.073796
     4  Na  -0.122841   0.052345  -0.032508   0.527001  -0.003401   0.039754
     5  Na   0.037405   0.004712   0.004171  -0.003401  -0.103258  -0.002230
     6  Na   0.023018  -0.008676   0.073796   0.039754  -0.002230  -0.063453
     7  Na  -0.019468   0.104733  -0.062160   0.002467   0.006636  -0.009878
               7
     1  Na  -0.019468
     2  Na   0.104733
     3  Na  -0.062160
     4  Na   0.002467
     5  Na   0.006636
     6  Na  -0.009878
     7  Na   0.078332
 Mulliken charges and spin densities:
               1          2
     1  Na  -0.156038   0.236414
     2  Na   0.092301   0.056148
     3  Na   0.185944   0.147589
     4  Na   0.062700   0.462817
     5  Na   0.138310  -0.055964
     6  Na  -0.087126   0.052332
     7  Na  -0.236091   0.100664
 Sum of Mulliken charges =  -0.00000   1.00000
 Mulliken charges and spin densities with hydrogens summed into heavy atoms:
               1          2
     1  Na  -0.156038   0.236414
     2  Na   0.092301   0.056148
     3  Na   0.185944   0.147589
     4  Na   0.062700   0.462817
     5  Na   0.138310  -0.055964
     6  Na  -0.087126   0.052332
     7  Na  -0.236091   0.100664
 Electronic spatial extent (au):  <R**2>=           4386.3743
 Charge=             -0.0000 electrons
 Dipole moment (field-independent basis, Debye):
    X=             -0.4140    Y=             -0.2629    Z=              0.0420  Tot=              0.4923
 Quadrupole moment (field-independent basis, Debye-Ang):
   XX=            -61.2652   YY=            -67.8721   ZZ=            -72.6752
   XY=             -0.1695   XZ=             -0.8053   YZ=              1.1656
 Traceless Quadrupole moment (field-independent basis, Debye-Ang):
   XX=              6.0056   YY=             -0.6012   ZZ=             -5.4044
   XY=             -0.1695   XZ=             -0.8053   YZ=              1.1656
 Octapole moment (field-independent basis, Debye-Ang**2):
  XXX=              0.3287  YYY=            -26.4042  ZZZ=              1.4174  XYY=            -12.0448
  XXY=             13.1555  XXZ=              3.2561  XZZ=             -1.6188  YZZ=              2.0497
  YYZ=             -5.7117  XYZ=              0.5702
 Hexadecapole moment (field-independent basis, Debye-Ang**3):
 XXXX=          -3625.3537 YYYY=          -3123.1053 ZZZZ=           -405.7864 XXXY=           -187.2839
 XXXZ=            -45.3059 YYYX=            127.0536 YYYZ=             -7.9886 ZZZX=             -7.2678
 ZZZY=              5.5914 XXYY=          -1165.8750 XXZZ=           -698.6238 YYZZ=           -614.5827
 XXYZ=             37.8955 YYXZ=             24.7094 ZZXY=             -0.3883
 N-N= 2.628688066397D+02 E-N=-3.254595069622D+03  KE= 1.132877957756D+03
                          Isotropic Fermi Contact Couplings
        Atom                 a.u.       MegaHertz       Gauss      10(-4) cm-1
     1  Na(23)             0.21641     256.01588      91.35283      85.39771
     2  Na(23)             0.04439      52.51280      18.73787      17.51638
     3  Na(23)             0.16738     198.01078      70.65517      66.04929
     4  Na(23)             0.43736     517.40910     184.62443     172.58910
     5  Na(23)            -0.04478     -52.97643     -18.90331     -17.67104
     6  Na(23)            -0.04183     -49.49042     -17.65941     -16.50823
     7  Na(23)             0.06203      73.38204      26.18454      24.47761
 --------------------------------------------------------
       Center         ----  Spin Dipole Couplings  ----
                      3XX-RR        3YY-RR        3ZZ-RR
 --------------------------------------------------------
     1   Atom        0.006634     -0.004679     -0.001955
     2   Atom        0.005543      0.001167     -0.006710
     3   Atom        0.000990      0.000179     -0.001168
     4   Atom        0.000939     -0.002309      0.001370
     5   Atom       -0.002787      0.025251     -0.022464
     6   Atom        0.041376     -0.021544     -0.019832
     7   Atom       -0.010410      0.020564     -0.010154
 --------------------------------------------------------
                        XY            XZ            YZ
 --------------------------------------------------------
     1   Atom       -0.001721     -0.003797     -0.000236
     2   Atom       -0.012988     -0.005847      0.004855
     3   Atom        0.003025     -0.000919      0.000442
     4   Atom       -0.000011     -0.000552     -0.002384
     5   Atom        0.030982      0.004707      0.008027
     6   Atom       -0.009151      0.014466     -0.002177
     7   Atom        0.002636      0.000394      0.000402
 --------------------------------------------------------


 ---------------------------------------------------------------------------------
              Anisotropic Spin Dipole Couplings in Principal Axis System
 ---------------------------------------------------------------------------------

       Atom             a.u.   MegaHertz   Gauss  10(-4) cm-1        Axes

              Baa    -0.0052    -0.738    -0.264    -0.246  0.2423  0.9063  0.3463
     1 Na(23) Bbb    -0.0030    -0.427    -0.152    -0.142  0.2708 -0.4059  0.8729
              Bcc     0.0083     1.165     0.416     0.389  0.9316 -0.1177 -0.3438
 
              Baa    -0.0098    -1.387    -0.495    -0.463  0.6600  0.7476  0.0735
     2 Na(23) Bbb    -0.0090    -1.267    -0.452    -0.423  0.1681 -0.2423  0.9555
              Bcc     0.0188     2.654     0.947     0.885  0.7322 -0.6183 -0.2856
 
              Baa    -0.0030    -0.419    -0.149    -0.140 -0.6031  0.6462 -0.4676
     3 Na(23) Bbb    -0.0007    -0.100    -0.036    -0.033 -0.2472  0.4060  0.8798
              Bcc     0.0037     0.518     0.185     0.173  0.7584  0.6462 -0.0851
 
              Baa    -0.0035    -0.494    -0.176    -0.165  0.0575  0.8939  0.4446
     4 Na(23) Bbb     0.0008     0.115     0.041     0.038  0.9604 -0.1711  0.2199
              Bcc     0.0027     0.379     0.135     0.126 -0.2726 -0.4143  0.8683
 
              Baa    -0.0239    -3.369    -1.202    -1.124  0.2176 -0.2896  0.9321
     5 Na(23) Bbb    -0.0226    -3.196    -1.140    -1.066  0.8153 -0.4711 -0.3367
              Bcc     0.0465     6.565     2.343     2.190  0.5366  0.8332  0.1336
 
              Baa    -0.0231    -3.266    -1.165    -1.090 -0.1480  0.3922  0.9079
     6 Na(23) Bbb    -0.0228    -3.220    -1.149    -1.074  0.2105  0.9095 -0.3586
              Bcc     0.0459     6.486     2.315     2.164  0.9663 -0.1381  0.2171
 
              Baa    -0.0108    -1.529    -0.545    -0.510  0.8778 -0.0676 -0.4743
     7 Na(23) Bbb    -0.0100    -1.407    -0.502    -0.469  0.4716 -0.0523  0.8802
              Bcc     0.0208     2.936     1.048     0.979  0.0843  0.9963  0.0140
 

 ---------------------------------------------------------------------------------

 No NMR shielding tensors so no spin-rotation constants.
 Leave Link  601 at Sun Dec  3 13:43:52 2023, MaxMem=  1879048192 cpu:               2.3 elap:               0.2
 (Enter /home/sekinelabo/g16/l701.exe)
 ... and contract with generalized density number  0.
 Compute integral first derivatives.
 Leave Link  701 at Sun Dec  3 13:43:52 2023, MaxMem=  1879048192 cpu:               1.5 elap:               0.1
 (Enter /home/sekinelabo/g16/l702.exe)
 L702 exits ... SP integral derivatives will be done elsewhere.
 Leave Link  702 at Sun Dec  3 13:43:52 2023, MaxMem=  1879048192 cpu:               0.5 elap:               0.0
 (Enter /home/sekinelabo/g16/l703.exe)
 Integral derivatives from FoFJK, PRISM(SPDF).
 Compute integral first derivatives, UseDBF=F ICtDFT=           0.
 Calling FoFJK, ICntrl=      2127 FMM=F ISym2X=0 I1Cent= 0 IOpClX= 1 NMat=1 NMatS=1 NMatT=0.
 FoFJK:  IHMeth= 1 ICntrl=    2127 DoSepK=F KAlg= 0 I1Cent=           0 FoldK=F
 IRaf=         0 NMat=       1 IRICut=       1 DoRegI=T DoRafI=F ISym2E= 0 IDoP0=0 IntGTp=1.
 FoFCou: FMM=F IPFlag=           0 FMFlag=      100000 FMFlg1=         800
         NFxFlg=           0 DoJE=F BraDBF=F KetDBF=F FulRan=T
         wScrn=  0.000000 ICntrl=      2127 IOpCl=  1 I1Cent=           0 NGrid=           0
         NMat0=    1 NMatS0=      1 NMatT0=    0 NMatD0=    1 NMtDS0=    0 NMtDT0=    0
 Symmetry not used in FoFCou.
 Leave Link  703 at Sun Dec  3 13:43:54 2023, MaxMem=  1879048192 cpu:              28.0 elap:               1.9
 (Enter /home/sekinelabo/g16/l716.exe)
 Dipole        =-1.62896543D-01-1.03444538D-01 1.65176130D-02
 ***** Axes restored to original set *****
 -------------------------------------------------------------------
 Center     Atomic                   Forces (Hartrees/Bohr)
 Number     Number              X              Y              Z
 -------------------------------------------------------------------
      1       11           0.001640871   -0.000562337   -0.002652787
      2       11          -0.000487711    0.004697871    0.000635888
      3       11           0.001500329   -0.000596830   -0.003839519
      4       11          -0.000278744    0.000642706   -0.002395407
      5       11          -0.001134628   -0.002738095    0.002163228
      6       11          -0.000555194    0.002638215    0.005048976
      7       11          -0.000684924   -0.004081530    0.001039621
 -------------------------------------------------------------------
 Cartesian Forces:  Max     0.005048976 RMS     0.002398109
 Z-matrix is all fixed cartesians, so copy forces.
 Force constants in Cartesian coordinates: 
                1             2             3             4             5 
      1  0.147328D-01
      2  0.478188D-02  0.337368D-01
      3 -0.177789D-01 -0.162735D-02  0.312712D-01
      4 -0.399207D-02 -0.461968D-02  0.411573D-02  0.121920D-01
      5 -0.798353D-03 -0.144135D-01 -0.249587D-02  0.675364D-03  0.495506D-01
      6  0.457751D-02  0.528073D-02 -0.109304D-01 -0.112435D-01 -0.368954D-02
      7 -0.857117D-04 -0.455659D-05 -0.375152D-04  0.346991D-02  0.236292D-03
      8 -0.186024D-05  0.000000D+00  0.000000D+00 -0.448394D-02 -0.311923D-03
      9 -0.183327D-03 -0.974599D-05 -0.802404D-04 -0.106912D-02 -0.850568D-04
     10  0.126188D-02 -0.352358D-02  0.801217D-04 -0.546852D-04  0.153621D-04
     11 -0.448248D-03  0.163571D-02  0.543594D-04 -0.156113D-04  0.438552D-05
     12 -0.114634D-02  0.418142D-02  0.138650D-03 -0.397683D-04  0.111717D-04
     13 -0.126139D-01  0.121881D-02  0.143923D-01  0.642009D-03  0.458452D-03
     14 -0.358539D-02 -0.211850D-01  0.415813D-02  0.216813D-02  0.490091D-02
     15  0.147768D-01 -0.278437D-02 -0.228125D-01  0.894919D-03  0.136206D-02
     16 -0.482337D-04 -0.137696D-04 -0.350767D-04 -0.301792D-04  0.000000D+00
     17  0.169541D-05  0.000000D+00  0.123294D-05  0.251992D-04  0.000000D+00
     18  0.440450D-05  0.125738D-05  0.320306D-05 -0.164004D-04  0.000000D+00
     19  0.745205D-03  0.216089D-02 -0.736683D-03 -0.122270D-01 -0.586462D-03
     20  0.502746D-04  0.225603D-03 -0.896929D-04  0.625053D-02 -0.397310D-01
     21 -0.250195D-03 -0.504194D-02  0.241006D-02  0.735817D-02  0.489759D-02
                6             7             8             9            10 
      6  0.220022D-01
      7 -0.128381D-02  0.198932D-01
      8  0.201475D-02  0.101673D-01  0.256079D-01
      9  0.105813D-02 -0.119680D-01  0.114808D-01  0.391648D-01
     10 -0.330889D-04  0.308825D-02  0.295630D-02  0.700357D-03  0.479190D-02
     11 -0.944610D-05  0.167181D-02  0.250580D-02  0.219167D-03  0.990704D-03
     12 -0.240630D-04 -0.158170D-02 -0.217509D-02 -0.241921D-03 -0.183489D-02
     13  0.683977D-04 -0.655258D-04  0.607355D-04 -0.366730D-04 -0.326692D-02
     14 -0.144885D-02  0.230323D-05 -0.213485D-05  0.128905D-05  0.413763D-02
     15 -0.266915D-03  0.598355D-05 -0.554612D-05  0.334882D-05  0.154294D-02
     16 -0.645497D-04 -0.144154D-01 -0.985623D-02  0.735808D-02 -0.575074D-02
     17  0.538981D-04 -0.636349D-02 -0.158103D-01 -0.111653D-01 -0.463460D-02
     18 -0.350785D-04  0.128928D-01 -0.486952D-02 -0.325368D-01 -0.417569D-03
     19  0.797907D-02 -0.118848D-01  0.115768D-02  0.519868D-02 -0.696952D-04
     20 -0.220155D-02 -0.570967D-02 -0.119892D-01 -0.441140D-03  0.581945D-04
     21 -0.118039D-01  0.197221D-02 -0.644458D-02 -0.736727D-02 -0.378747D-04
               11            12            13            14            15 
     11  0.172243D-01
     12 -0.228732D-02  0.228922D-01
     13  0.153975D-02  0.260905D-02  0.152030D-01
     14 -0.123551D-01 -0.349003D-02 -0.280851D-02  0.299917D-01
     15  0.509581D-02 -0.110525D-01 -0.173022D-01 -0.213688D-03  0.316537D-01
     16 -0.380301D-02  0.203266D-02  0.205155D-03  0.566580D-04  0.144320D-03
     17 -0.896119D-02  0.372728D-02 -0.463727D-03 -0.135203D-02 -0.345092D-02
     18 -0.310767D-02 -0.116911D-01  0.314530D-03  0.980377D-03  0.250235D-02
     19  0.646000D-04 -0.390064D-04 -0.103847D-03  0.291726D-04 -0.628357D-04
     20 -0.539402D-04  0.325698D-04 -0.552070D-05  0.155087D-05 -0.334046D-05
     21  0.351058D-04 -0.211974D-04 -0.454529D-04  0.127686D-04 -0.275026D-04
               16            17            18            19            20 
     16  0.199635D-01
     17  0.118520D-01  0.234683D-01
     18 -0.128815D-01  0.676609D-02  0.411118D-01
     19  0.758352D-04 -0.417118D-03  0.103720D-03  0.234643D-01
     20  0.176496D-02  0.265422D-02  0.229824D-03 -0.240876D-02  0.488928D-01
     21  0.344608D-02  0.406773D-02  0.645660D-03 -0.124429D-01  0.247333D-02
               21 
     21  0.161641D-01
 Leave Link  716 at Sun Dec  3 13:43:54 2023, MaxMem=  1879048192 cpu:               0.4 elap:               0.0
 (Enter /home/sekinelabo/g16/l103.exe)

 GradGradGradGradGradGradGradGradGradGradGradGradGradGradGradGradGradGrad
 Berny optimization.
 Search for a local minimum.
 Step number   1 out of a maximum of    2
 All quantities printed in internal units (Hartrees-Bohrs-Radians)
 Second derivative matrix not updated -- first step.
 ITU=  0
     Eigenvalues ---    0.00125   0.00225   0.00668   0.00823   0.01021
     Eigenvalues ---    0.01157   0.01672   0.02194   0.02949   0.04776
     Eigenvalues ---    0.05858   0.06467   0.08076   0.08860   0.09427
 Quadratic step=3.596D-01 exceeds max=3.000D-01 adjusted using Lamda=-8.227D-04.
 Angle between NR and scaled steps=  10.82 degrees.
 Angle between quadratic step and forces=  51.87 degrees.
 Linear search not attempted -- first point.
 B after Tr=     0.000000   -0.000000    0.000000
         Rot=    1.000000    0.000000   -0.000000    0.000000 Ang=   0.00 deg.
 Variable       Old X    -DE/DX   Delta X   Delta X   Delta X     New X
                                 (Linear)    (Quad)   (Total)
    X1       22.76024   0.00164   0.00000   0.02520   0.02520  22.78544
    Y1       28.42847  -0.00056   0.00000  -0.07610  -0.07610  28.35238
    Z1       22.28252  -0.00265   0.00000  -0.04234  -0.04234  22.24018
    X2       25.59691  -0.00049   0.00000   0.02829   0.02829  25.62520
    Y2       25.36749   0.00470   0.00000   0.06630   0.06630  25.43379
    Z2       16.17332   0.00064   0.00000   0.04536   0.04536  16.21867
    X3       20.94157   0.00150   0.00000  -0.02343  -0.02343  20.91814
    Y3       15.36162  -0.00060   0.00000   0.06169   0.06169  15.42331
    Z3       18.45138  -0.00384   0.00000   0.00277   0.00277  18.45415
    X4       19.59759  -0.00028   0.00000   0.05653   0.05653  19.65412
    Y4       20.68608   0.00064   0.00000   0.01453   0.01453  20.70060
    Z4       29.67078  -0.00240   0.00000  -0.08276  -0.08276  29.58802
    X5       19.59344  -0.00113   0.00000  -0.06792  -0.06792  19.52551
    Y5       27.40254  -0.00274   0.00000  -0.15871  -0.15871  27.24383
    Z5       27.03990   0.00216   0.00000  -0.05015  -0.05015  26.98975
    X6       18.89104  -0.00056   0.00000   0.00957   0.00957  18.90062
    Y6       16.27668   0.00264   0.00000   0.12016   0.12016  16.39684
    Z6       23.63065   0.00505   0.00000   0.10620   0.10620  23.73685
    X7       25.93819  -0.00068   0.00000  -0.02824  -0.02824  25.90995
    Y7       19.79601  -0.00408   0.00000  -0.02787  -0.02787  19.76815
    Z7       16.07029   0.00104   0.00000   0.02093   0.02093  16.09122
         Item               Value     Threshold  Converged?
 Maximum Force            0.005049     0.000450     NO 
 RMS     Force            0.002398     0.000300     NO 
 Maximum Displacement     0.158706     0.001800     NO 
 RMS     Displacement     0.065547     0.001200     NO 
 Predicted change in Energy=-1.056143D-03
 GradGradGradGradGradGradGradGradGradGradGradGradGradGradGradGradGradGrad

 Leave Link  103 at Sun Dec  3 13:43:54 2023, MaxMem=  1879048192 cpu:               0.2 elap:               0.0
 (Enter /home/sekinelabo/g16/l9999.exe)
 1\1\GINC-SEKINELABO-XA7R-R37\Force\UB3LYP\6-311+G(d)\Na7(2)\SEKINELABO
 \03-Dec-2023\0\\#P B3LYP/6-311+g(d) force\\DPGEN\\0,2\Na,12.0442,15.04
 37,11.7914\Na,13.5453,13.4239,8.55855\Na,11.0818,8.12902,9.76405\Na,10
 .3706,10.9466,15.7011\Na,10.3684,14.5008,14.3089\Na,9.99671,8.61325,12
 .5048\Na,13.7259,10.4756,8.50403\\Version=ES64L-G16RevB.01\State=2-A\H
 F=-1136.1057693\S2=0.777418\S2-1=0.\S2A=0.750466\RMSD=9.900e-09\RMSF=2
 .398e-03\Dipole=0.1076548,0.0399987,-0.1559469\Quadrupole=-2.6231188,0
 .3912138,2.231905,-0.8363097,-3.2470322,1.4196934\PG=C01 [X(Na7)]\\@


 HERE WE GO......
 SLIDING DOWN THE RAZOR BLADE OF LIFE......
                                 TOM LEHRER
 Job cpu time:       0 days  0 hours  3 minutes 34.9 seconds.
 Elapsed time:       0 days  0 hours  0 minutes 18.3 seconds.
 File lengths (MBytes):  RWF=     32 Int=      0 D2E=      0 Chk=      4 Scr=      1
 Normal termination of Gaussian 16 at Sun Dec  3 13:43:54 2023.
