 Set GAUSS_MDEF to "14GB".
 Entering Gaussian System, Link 0=g16
 Initial command:
 /home/sekinelabo/g16/l1.exe "/home/sekinelabo/g16temp/Gau-155228.inp" -scrdir="/home/sekinelabo/g16temp/"
 Entering Link 1 = /home/sekinelabo/g16/l1.exe PID=    155230.
  
 Copyright (c) 1988-2017, Gaussian, Inc.  All Rights Reserved.
  
 This is part of the Gaussian(R) 16 program.  It is based on
 the Gaussian(R) 09 system (copyright 2009, Gaussian, Inc.),
 the Gaussian(R) 03 system (copyright 2003, Gaussian, Inc.),
 the Gaussian(R) 98 system (copyright 1998, Gaussian, Inc.),
 the Gaussian(R) 94 system (copyright 1995, Gaussian, Inc.),
 the Gaussian 92(TM) system (copyright 1992, Gaussian, Inc.),
 the Gaussian 90(TM) system (copyright 1990, Gaussian, Inc.),
 the Gaussian 88(TM) system (copyright 1988, Gaussian, Inc.),
 the Gaussian 86(TM) system (copyright 1986, Carnegie Mellon
 University), and the Gaussian 82(TM) system (copyright 1983,
 Carnegie Mellon University). Gaussian is a federally registered
 trademark of Gaussian, Inc.
  
 This software contains proprietary and confidential information,
 including trade secrets, belonging to Gaussian, Inc.
  
 This software is provided under written license and may be
 used, copied, transmitted, or stored only in accord with that
 written license.
  
 The following legend is applicable only to US Government
 contracts under FAR:
  
                    RESTRICTED RIGHTS LEGEND
  
 Use, reproduction and disclosure by the US Government is
 subject to restrictions as set forth in subparagraphs (a)
 and (c) of the Commercial Computer Software - Restricted
 Rights clause in FAR 52.227-19.
  
 Gaussian, Inc.
 340 Quinnipiac St., Bldg. 40, Wallingford CT 06492
  
  
 ---------------------------------------------------------------
 Warning -- This program may not be used in any manner that
 competes with the business of Gaussian, Inc. or will provide
 assistance to any competitor of Gaussian, Inc.  The licensee
 of this program is prohibited from giving any competitor of
 Gaussian, Inc. access to this program.  By using this program,
 the user acknowledges that Gaussian, Inc. is engaged in the
 business of creating and licensing software in the field of
 computational chemistry and represents and warrants to the
 licensee that it is not a competitor of Gaussian, Inc. and that
 it will not use this program in any manner prohibited above.
 ---------------------------------------------------------------
  

 Cite this work as:
 Gaussian 16, Revision B.01,
 M. J. Frisch, G. W. Trucks, H. B. Schlegel, G. E. Scuseria, 
 M. A. Robb, J. R. Cheeseman, G. Scalmani, V. Barone, 
 G. A. Petersson, H. Nakatsuji, X. Li, M. Caricato, A. V. Marenich, 
 J. Bloino, B. G. Janesko, R. Gomperts, B. Mennucci, H. P. Hratchian, 
 J. V. Ortiz, A. F. Izmaylov, J. L. Sonnenberg, D. Williams-Young, 
 F. Ding, F. Lipparini, F. Egidi, J. Goings, B. Peng, A. Petrone, 
 T. Henderson, D. Ranasinghe, V. G. Zakrzewski, J. Gao, N. Rega, 
 G. Zheng, W. Liang, M. Hada, M. Ehara, K. Toyota, R. Fukuda, 
 J. Hasegawa, M. Ishida, T. Nakajima, Y. Honda, O. Kitao, H. Nakai, 
 T. Vreven, K. Throssell, J. A. Montgomery, Jr., J. E. Peralta, 
 F. Ogliaro, M. J. Bearpark, J. J. Heyd, E. N. Brothers, K. N. Kudin, 
 V. N. Staroverov, T. A. Keith, R. Kobayashi, J. Normand, 
 K. Raghavachari, A. P. Rendell, J. C. Burant, S. S. Iyengar, 
 J. Tomasi, M. Cossi, J. M. Millam, M. Klene, C. Adamo, R. Cammi, 
 J. W. Ochterski, R. L. Martin, K. Morokuma, O. Farkas, 
 J. B. Foresman, and D. J. Fox, Gaussian, Inc., Wallingford CT, 2016.
 
 ******************************************
 Gaussian 16:  ES64L-G16RevB.01 20-Dec-2017
                28-Nov-2023 
 ******************************************
 %nproc=15
 Will use up to   15 processors via shared memory.
 -------------------------
 #P B3LYP/6-311+g(d) force
 -------------------------
 1/10=7,30=1,38=1/1,3;
 2/12=2,17=6,18=5,40=1/2;
 3/5=4,6=6,7=11,11=2,25=1,30=1,71=1,74=-5/1,2,3;
 4//1;
 5/5=2,38=5/2;
 6/7=2,8=2,9=2,10=2,28=1/1;
 7/29=1/1,2,3,16;
 1/10=7,30=1/3;
 99//99;
 Leave Link    1 at Tue Nov 28 22:29:35 2023, MaxMem=           0 cpu:               0.3 elap:               0.0
 (Enter /home/sekinelabo/g16/l101.exe)
 -----
 DPGEN
 -----
 Symbolic Z-matrix:
 Charge =  0 Multiplicity = 2
 Na                    14.2276   15.1258   12.3323 
 Na                    15.7991   14.0777   9.7694 
 Na                    17.7095   13.974    12.0494 
 Na                    16.2726   14.056    16.1581 
 Na                    13.4153   14.9781   15.7889 
 Na                    15.0158   16.2222   19.7779 
 Na                    14.9855   18.9917   21.5494 
 
 ITRead=  0  0  0  0  0  0  0
 MicOpt= -1 -1 -1 -1 -1 -1 -1
 NAtoms=      7 NQM=        7 NQMF=       0 NMMI=      0 NMMIF=      0
                NMic=       0 NMicF=      0.
                    Isotopes and Nuclear Properties:
 (Nuclear quadrupole moments (NQMom) in fm**2, nuclear magnetic moments (NMagM)
  in nuclear magnetons)

  Atom         1           2           3           4           5           6           7
 IAtWgt=          23          23          23          23          23          23          23
 AtmWgt=  22.9897697  22.9897697  22.9897697  22.9897697  22.9897697  22.9897697  22.9897697
 NucSpn=           3           3           3           3           3           3           3
 AtZEff=  -0.0000000  -0.0000000  -0.0000000  -0.0000000  -0.0000000  -0.0000000  -0.0000000
 NQMom=   10.4000000  10.4000000  10.4000000  10.4000000  10.4000000  10.4000000  10.4000000
 NMagM=    2.2175200   2.2175200   2.2175200   2.2175200   2.2175200   2.2175200   2.2175200
 AtZNuc=  11.0000000  11.0000000  11.0000000  11.0000000  11.0000000  11.0000000  11.0000000
 Leave Link  101 at Tue Nov 28 22:29:35 2023, MaxMem=  1879048192 cpu:               2.3 elap:               0.2
 (Enter /home/sekinelabo/g16/l103.exe)

 GradGradGradGradGradGradGradGradGradGradGradGradGradGradGradGradGradGrad
 Berny optimization.
 Initialization pass.
 Trust Radius=3.00D-01 FncErr=1.00D-07 GrdErr=1.00D-07 EigMax=2.50D+02 EigMin=1.00D-04
 Number of steps in this run=      2 maximum allowed number of steps=      2.
 GradGradGradGradGradGradGradGradGradGradGradGradGradGradGradGradGradGrad

 Leave Link  103 at Tue Nov 28 22:29:35 2023, MaxMem=  1879048192 cpu:               0.2 elap:               0.0
 (Enter /home/sekinelabo/g16/l202.exe)
                          Input orientation:                          
 ---------------------------------------------------------------------
 Center     Atomic      Atomic             Coordinates (Angstroms)
 Number     Number       Type             X           Y           Z
 ---------------------------------------------------------------------
      1         11           0       14.227600   15.125800   12.332300
      2         11           0       15.799100   14.077700    9.769400
      3         11           0       17.709500   13.974000   12.049400
      4         11           0       16.272600   14.056000   16.158100
      5         11           0       13.415300   14.978100   15.788900
      6         11           0       15.015800   16.222200   19.777900
      7         11           0       14.985500   18.991700   21.549400
 ---------------------------------------------------------------------
                    Distance matrix (angstroms):
                    1          2          3          4          5
     1  Na   0.000000
     2  Na   3.183800   0.000000
     3  Na   3.678356   2.976371   0.000000
     4  Na   4.468024   6.406260   4.353484   0.000000
     5  Na   3.553833   6.536635   5.782061   3.025019   0.000000
     6  Na   7.567054  10.265598   8.487646   4.401695   4.474540
     7  Na  10.023698  12.789751  11.083659   7.421851   7.194294
                    6          7
     6  Na   0.000000
     7  Na   3.287744   0.000000
 Stoichiometry    Na7(2)
 Framework group  C1[X(Na7)]
 Deg. of freedom    15
 Full point group                 C1      NOp   1
 Largest Abelian subgroup         C1      NOp   1
 Largest concise Abelian subgroup C1      NOp   1
                         Standard orientation:                         
 ---------------------------------------------------------------------
 Center     Atomic      Atomic             Coordinates (Angstroms)
 Number     Number       Type             X           Y           Z
 ---------------------------------------------------------------------
      1         11           0       -2.774316   -1.602086    0.349885
      2         11           0       -5.691847   -0.358010    0.627141
      3         11           0       -3.797641    1.929969    0.437618
      4         11           0        0.223748    1.361689   -1.130281
      5         11           0        0.493455   -1.650110   -1.046216
      6         11           0        4.474684    0.345084   -0.609721
      7         11           0        7.071918   -0.026536    1.371575
 ---------------------------------------------------------------------
 Rotational constants (GHZ):           1.3364372           0.1688687           0.1616846
 Leave Link  202 at Tue Nov 28 22:29:35 2023, MaxMem=  1879048192 cpu:               0.0 elap:               0.0
 (Enter /home/sekinelabo/g16/l301.exe)
 Standard basis: 6-311+G(d) (5D, 7F)
 Ernie: Thresh=  0.10000D-02 Tol=  0.10000D-05 Strict=F.
 There are   217 symmetry adapted cartesian basis functions of A   symmetry.
 There are   210 symmetry adapted basis functions of A   symmetry.
   210 basis functions,   350 primitive gaussians,   217 cartesian basis functions
    39 alpha electrons       38 beta electrons
       nuclear repulsion energy       263.3931774844 Hartrees.
 IExCor=  402 DFT=T Ex+Corr=B3LYP ExCW=0 ScaHFX=  0.200000
 ScaDFX=  0.800000  0.720000  1.000000  0.810000 ScalE2=  1.000000  1.000000
 IRadAn=      5 IRanWt=     -1 IRanGd=            0 ICorTp=0 IEmpDi=  4
 NAtoms=    7 NActive=    7 NUniq=    7 SFac= 1.00D+00 NAtFMM=   60 NAOKFM=F Big=F
 Integral buffers will be    131072 words long.
 Raffenetti 2 integral format.
 Two-electron integral symmetry is turned on.
 Leave Link  301 at Tue Nov 28 22:29:35 2023, MaxMem=  1879048192 cpu:               0.5 elap:               0.0
 (Enter /home/sekinelabo/g16/l302.exe)
 NPDir=0 NMtPBC=     1 NCelOv=     1 NCel=       1 NClECP=     1 NCelD=      1
         NCelK=      1 NCelE2=     1 NClLst=     1 CellRange=     0.0.
 One-electron integrals computed using PRISM.
 One-electron integral symmetry used in STVInt
 NBasis=   210 RedAO= T EigKep=  9.75D-06  NBF=   210
 NBsUse=   210 1.00D-06 EigRej= -1.00D+00 NBFU=   210
 Precomputing XC quadrature grid using
 IXCGrd= 4 IRadAn=           5 IRanWt=          -1 IRanGd=           0 AccXCQ= 0.00D+00.
 Generated NRdTot=       0 NPtTot=           0 NUsed=           0 NTot=          32
 NSgBfM=   199   199   199   199   199 MxSgAt=     7 MxSgA2=     7.
 Leave Link  302 at Tue Nov 28 22:29:36 2023, MaxMem=  1879048192 cpu:               2.1 elap:               0.1
 (Enter /home/sekinelabo/g16/l303.exe)
 DipDrv:  MaxL=1.
 Leave Link  303 at Tue Nov 28 22:29:36 2023, MaxMem=  1879048192 cpu:               0.5 elap:               0.0
 (Enter /home/sekinelabo/g16/l401.exe)
 ExpMin= 7.60D-03 ExpMax= 3.62D+04 ExpMxC= 1.21D+03 IAcc=3 IRadAn=         5 AccDes= 0.00D+00
 Harris functional with IExCor=  402 and IRadAn=       5 diagonalized for initial guess.
 HarFok:  IExCor=  402 AccDes= 0.00D+00 IRadAn=         5 IDoV= 1 UseB2=F ITyADJ=14
 ICtDFT=  3500011 ScaDFX=  1.000000  1.000000  1.000000  1.000000
 FoFCou: FMM=F IPFlag=           0 FMFlag=      100000 FMFlg1=           0
         NFxFlg=           0 DoJE=T BraDBF=F KetDBF=T FulRan=T
         wScrn=  0.000000 ICntrl=       500 IOpCl=  0 I1Cent=   200000004 NGrid=           0
         NMat0=    1 NMatS0=      1 NMatT0=    0 NMatD0=    1 NMtDS0=    0 NMtDT0=    0
 Petite list used in FoFCou.
 Harris En= -1135.88201757714    
 JPrj=0 DoOrth=F DoCkMO=F.
 Initial guess <Sx>= 0.0000 <Sy>= 0.0000 <Sz>= 0.5000 <S**2>= 0.7500 S= 0.5000
 Leave Link  401 at Tue Nov 28 22:29:36 2023, MaxMem=  1879048192 cpu:               3.9 elap:               0.3
 (Enter /home/sekinelabo/g16/l502.exe)
 Keep R1 and R2 ints in memory in canonical form, NReq=506573293.
 FoFCou: FMM=F IPFlag=           0 FMFlag=           0 FMFlg1=           0
         NFxFlg=           0 DoJE=F BraDBF=F KetDBF=F FulRan=T
         wScrn=  0.000000 ICntrl=       600 IOpCl=  0 I1Cent=           0 NGrid=           0
         NMat0=    1 NMatS0=  22155 NMatT0=    0 NMatD0=    1 NMtDS0=    0 NMtDT0=    0
 Symmetry not used in FoFCou.
 Two-electron integral symmetry not used.
 UHF open shell SCF:
 Using DIIS extrapolation, IDIIS=  1040.
 NGot=  1879048192 LenX=  1388082607 LenY=  1388035077
 Requested convergence on RMS density matrix=1.00D-08 within 128 cycles.
 Requested convergence on MAX density matrix=1.00D-06.
 Requested convergence on             energy=1.00D-06.
 No special actions if energy rises.

 Cycle   1  Pass 1  IDiag  1:
 E= -1136.08721861029    
 DIIS: error= 1.03D-02 at cycle   1 NSaved=   1.
 NSaved= 1 IEnMin= 1 EnMin= -1136.08721861029     IErMin= 1 ErrMin= 1.03D-02
 ErrMax= 1.03D-02  0.00D+00 EMaxC= 1.00D-01 BMatC= 1.82D-01 BMatP= 1.82D-01
 IDIUse=3 WtCom= 8.97D-01 WtEn= 1.03D-01
 Coeff-Com:  0.100D+01
 Coeff-En:   0.100D+01
 Coeff:      0.100D+01
 Gap=     0.041 Goal=   None    Shift=    0.000
 Gap=     0.037 Goal=   None    Shift=    0.000
 GapD=    0.037 DampG=0.250 DampE=0.500 DampFc=0.2500 IDamp=-1.
 Damping current iteration by 2.50D-01
 RMSDP=5.80D-03 MaxDP=2.95D-01              OVMax= 1.65D-01

 Cycle   2  Pass 1  IDiag  1:
 E= -1136.09519552103     Delta-E=       -0.007976910741 Rises=F Damp=T
 DIIS: error= 7.28D-03 at cycle   2 NSaved=   2.
 NSaved= 2 IEnMin= 2 EnMin= -1136.09519552103     IErMin= 2 ErrMin= 7.28D-03
 ErrMax= 7.28D-03  0.00D+00 EMaxC= 1.00D-01 BMatC= 7.10D-02 BMatP= 1.82D-01
 IDIUse=3 WtCom= 9.27D-01 WtEn= 7.28D-02
 Coeff-Com: -0.132D+01 0.232D+01
 Coeff-En:   0.000D+00 0.100D+01
 Coeff:     -0.122D+01 0.222D+01
 Gap=     0.041 Goal=   None    Shift=    0.000
 Gap=     0.044 Goal=   None    Shift=    0.000
 RMSDP=3.95D-03 MaxDP=1.71D-01 DE=-7.98D-03 OVMax= 9.48D-02

 Cycle   3  Pass 1  IDiag  1:
 E= -1136.11149100153     Delta-E=       -0.016295480496 Rises=F Damp=F
 DIIS: error= 9.58D-04 at cycle   3 NSaved=   3.
 NSaved= 3 IEnMin= 3 EnMin= -1136.11149100153     IErMin= 3 ErrMin= 9.58D-04
 ErrMax= 9.58D-04  0.00D+00 EMaxC= 1.00D-01 BMatC= 5.11D-04 BMatP= 7.10D-02
 IDIUse=3 WtCom= 9.90D-01 WtEn= 9.58D-03
 Coeff-Com: -0.575D-01 0.988D-01 0.959D+00
 Coeff-En:   0.000D+00 0.000D+00 0.100D+01
 Coeff:     -0.570D-01 0.978D-01 0.959D+00
 Gap=     0.040 Goal=   None    Shift=    0.000
 Gap=     0.046 Goal=   None    Shift=    0.000
 RMSDP=1.02D-03 MaxDP=4.05D-02 DE=-1.63D-02 OVMax= 7.93D-02

 Cycle   4  Pass 1  IDiag  1:
 E= -1136.11081170098     Delta-E=        0.000679300550 Rises=F Damp=F
 DIIS: error= 1.39D-03 at cycle   4 NSaved=   4.
 NSaved= 4 IEnMin= 3 EnMin= -1136.11149100153     IErMin= 3 ErrMin= 9.58D-04
 ErrMax= 1.39D-03  0.00D+00 EMaxC= 1.00D-01 BMatC= 1.06D-03 BMatP= 5.11D-04
 IDIUse=3 WtCom= 2.12D-01 WtEn= 7.88D-01
 Coeff-Com: -0.242D-02 0.387D-02 0.593D+00 0.406D+00
 Coeff-En:   0.000D+00 0.000D+00 0.646D+00 0.354D+00
 Coeff:     -0.511D-03 0.819D-03 0.634D+00 0.365D+00
 Gap=     0.040 Goal=   None    Shift=    0.000
 Gap=     0.046 Goal=   None    Shift=    0.000
 RMSDP=5.33D-04 MaxDP=2.22D-02 DE= 6.79D-04 OVMax= 4.10D-02

 Cycle   5  Pass 1  IDiag  1:
 E= -1136.11219348061     Delta-E=       -0.001381779637 Rises=F Damp=F
 DIIS: error= 1.74D-04 at cycle   5 NSaved=   5.
 NSaved= 5 IEnMin= 5 EnMin= -1136.11219348061     IErMin= 5 ErrMin= 1.74D-04
 ErrMax= 1.74D-04  0.00D+00 EMaxC= 1.00D-01 BMatC= 1.37D-05 BMatP= 5.11D-04
 IDIUse=3 WtCom= 9.98D-01 WtEn= 1.74D-03
 Coeff-Com:  0.242D-02-0.394D-02 0.144D+00 0.289D-01 0.829D+00
 Coeff-En:   0.000D+00 0.000D+00 0.000D+00 0.000D+00 0.100D+01
 Coeff:      0.242D-02-0.393D-02 0.144D+00 0.289D-01 0.829D+00
 Gap=     0.041 Goal=   None    Shift=    0.000
 Gap=     0.045 Goal=   None    Shift=    0.000
 RMSDP=1.16D-04 MaxDP=4.80D-03 DE=-1.38D-03 OVMax= 7.31D-03

 Cycle   6  Pass 1  IDiag  1:
 E= -1136.11221573944     Delta-E=       -0.000022258824 Rises=F Damp=F
 DIIS: error= 1.06D-04 at cycle   6 NSaved=   6.
 NSaved= 6 IEnMin= 6 EnMin= -1136.11221573944     IErMin= 6 ErrMin= 1.06D-04
 ErrMax= 1.06D-04  0.00D+00 EMaxC= 1.00D-01 BMatC= 3.19D-06 BMatP= 1.37D-05
 IDIUse=3 WtCom= 9.99D-01 WtEn= 1.06D-03
 Coeff-Com:  0.518D-03-0.114D-02-0.370D-01-0.582D-01 0.366D+00 0.730D+00
 Coeff-En:   0.000D+00 0.000D+00 0.000D+00 0.000D+00 0.000D+00 0.100D+01
 Coeff:      0.517D-03-0.114D-02-0.369D-01-0.581D-01 0.365D+00 0.730D+00
 Gap=     0.041 Goal=   None    Shift=    0.000
 Gap=     0.045 Goal=   None    Shift=    0.000
 RMSDP=7.20D-05 MaxDP=2.80D-03 DE=-2.23D-05 OVMax= 6.30D-03

 Cycle   7  Pass 1  IDiag  1:
 E= -1136.11222416935     Delta-E=       -0.000008429909 Rises=F Damp=F
 DIIS: error= 4.34D-05 at cycle   7 NSaved=   7.
 NSaved= 7 IEnMin= 7 EnMin= -1136.11222416935     IErMin= 7 ErrMin= 4.34D-05
 ErrMax= 4.34D-05  0.00D+00 EMaxC= 1.00D-01 BMatC= 9.15D-07 BMatP= 3.19D-06
 IDIUse=1 WtCom= 1.00D+00 WtEn= 0.00D+00
 Coeff-Com: -0.812D-03 0.111D-02-0.630D-01-0.388D-01-0.713D-01 0.332D+00
 Coeff-Com:  0.840D+00
 Coeff:     -0.812D-03 0.111D-02-0.630D-01-0.388D-01-0.713D-01 0.332D+00
 Coeff:      0.840D+00
 Gap=     0.041 Goal=   None    Shift=    0.000
 Gap=     0.046 Goal=   None    Shift=    0.000
 RMSDP=5.71D-05 MaxDP=2.18D-03 DE=-8.43D-06 OVMax= 4.35D-03

 Cycle   8  Pass 1  IDiag  1:
 E= -1136.11222836494     Delta-E=       -0.000004195594 Rises=F Damp=F
 DIIS: error= 2.44D-05 at cycle   8 NSaved=   8.
 NSaved= 8 IEnMin= 8 EnMin= -1136.11222836494     IErMin= 8 ErrMin= 2.44D-05
 ErrMax= 2.44D-05  0.00D+00 EMaxC= 1.00D-01 BMatC= 1.92D-07 BMatP= 9.15D-07
 IDIUse=1 WtCom= 1.00D+00 WtEn= 0.00D+00
 Coeff-Com:  0.288D-03-0.266D-03-0.116D-01-0.150D-02-0.861D-01-0.623D-01
 Coeff-Com:  0.167D+00 0.994D+00
 Coeff:      0.288D-03-0.266D-03-0.116D-01-0.150D-02-0.861D-01-0.623D-01
 Coeff:      0.167D+00 0.994D+00
 Gap=     0.041 Goal=   None    Shift=    0.000
 Gap=     0.046 Goal=   None    Shift=    0.000
 RMSDP=4.09D-05 MaxDP=1.29D-03 DE=-4.20D-06 OVMax= 3.18D-03

 Cycle   9  Pass 1  IDiag  1:
 E= -1136.11222999534     Delta-E=       -0.000001630403 Rises=F Damp=F
 DIIS: error= 1.79D-05 at cycle   9 NSaved=   9.
 NSaved= 9 IEnMin= 9 EnMin= -1136.11222999534     IErMin= 9 ErrMin= 1.79D-05
 ErrMax= 1.79D-05  0.00D+00 EMaxC= 1.00D-01 BMatC= 7.69D-08 BMatP= 1.92D-07
 IDIUse=1 WtCom= 1.00D+00 WtEn= 0.00D+00
 Coeff-Com:  0.578D-03-0.736D-03 0.184D-01 0.123D-01 0.135D-02-0.130D+00
 Coeff-Com: -0.265D+00 0.276D+00 0.109D+01
 Coeff:      0.578D-03-0.736D-03 0.184D-01 0.123D-01 0.135D-02-0.130D+00
 Coeff:     -0.265D+00 0.276D+00 0.109D+01
 Gap=     0.041 Goal=   None    Shift=    0.000
 Gap=     0.046 Goal=   None    Shift=    0.000
 RMSDP=3.37D-05 MaxDP=1.10D-03 DE=-1.63D-06 OVMax= 2.25D-03

 Cycle  10  Pass 1  IDiag  1:
 E= -1136.11223080684     Delta-E=       -0.000000811500 Rises=F Damp=F
 DIIS: error= 1.19D-05 at cycle  10 NSaved=  10.
 NSaved=10 IEnMin=10 EnMin= -1136.11223080684     IErMin=10 ErrMin= 1.19D-05
 ErrMax= 1.19D-05  0.00D+00 EMaxC= 1.00D-01 BMatC= 2.17D-08 BMatP= 7.69D-08
 IDIUse=1 WtCom= 1.00D+00 WtEn= 0.00D+00
 Coeff-Com: -0.270D-03 0.330D-03 0.603D-02 0.113D-02 0.351D-01 0.963D-02
 Coeff-Com: -0.988D-01-0.302D+00 0.184D+00 0.117D+01
 Coeff:     -0.270D-03 0.330D-03 0.603D-02 0.113D-02 0.351D-01 0.963D-02
 Coeff:     -0.988D-01-0.302D+00 0.184D+00 0.117D+01
 Gap=     0.041 Goal=   None    Shift=    0.000
 Gap=     0.046 Goal=   None    Shift=    0.000
 RMSDP=2.11D-05 MaxDP=8.34D-04 DE=-8.12D-07 OVMax= 1.52D-03

 Cycle  11  Pass 1  IDiag  1:
 E= -1136.11223108950     Delta-E=       -0.000000282654 Rises=F Damp=F
 DIIS: error= 6.97D-06 at cycle  11 NSaved=  11.
 NSaved=11 IEnMin=11 EnMin= -1136.11223108950     IErMin=11 ErrMin= 6.97D-06
 ErrMax= 6.97D-06  0.00D+00 EMaxC= 1.00D-01 BMatC= 6.51D-09 BMatP= 2.17D-08
 IDIUse=1 WtCom= 1.00D+00 WtEn= 0.00D+00
 Coeff-Com: -0.241D-03 0.304D-03-0.224D-02-0.188D-02 0.498D-02 0.262D-01
 Coeff-Com:  0.365D-01-0.125D+00-0.228D+00 0.275D+00 0.101D+01
 Coeff:     -0.241D-03 0.304D-03-0.224D-02-0.188D-02 0.498D-02 0.262D-01
 Coeff:      0.365D-01-0.125D+00-0.228D+00 0.275D+00 0.101D+01
 Gap=     0.041 Goal=   None    Shift=    0.000
 Gap=     0.046 Goal=   None    Shift=    0.000
 RMSDP=1.05D-05 MaxDP=5.44D-04 DE=-2.83D-07 OVMax= 9.88D-04

 Cycle  12  Pass 1  IDiag  1:
 E= -1136.11223117260     Delta-E=       -0.000000083105 Rises=F Damp=F
 DIIS: error= 4.46D-06 at cycle  12 NSaved=  12.
 NSaved=12 IEnMin=12 EnMin= -1136.11223117260     IErMin=12 ErrMin= 4.46D-06
 ErrMax= 4.46D-06  0.00D+00 EMaxC= 1.00D-01 BMatC= 2.73D-09 BMatP= 6.51D-09
 IDIUse=1 WtCom= 1.00D+00 WtEn= 0.00D+00
 Coeff-Com:  0.490D-04-0.625D-04-0.280D-02-0.990D-03-0.104D-01 0.618D-02
 Coeff-Com:  0.449D-01 0.563D-01-0.133D+00-0.307D+00 0.388D+00 0.958D+00
 Coeff:      0.490D-04-0.625D-04-0.280D-02-0.990D-03-0.104D-01 0.618D-02
 Coeff:      0.449D-01 0.563D-01-0.133D+00-0.307D+00 0.388D+00 0.958D+00
 Gap=     0.041 Goal=   None    Shift=    0.000
 Gap=     0.046 Goal=   None    Shift=    0.000
 RMSDP=6.03D-06 MaxDP=3.30D-04 DE=-8.31D-08 OVMax= 5.69D-04

 Cycle  13  Pass 1  IDiag  1:
 E= -1136.11223120238     Delta-E=       -0.000000029777 Rises=F Damp=F
 DIIS: error= 1.91D-06 at cycle  13 NSaved=  13.
 NSaved=13 IEnMin=13 EnMin= -1136.11223120238     IErMin=13 ErrMin= 1.91D-06
 ErrMax= 1.91D-06  0.00D+00 EMaxC= 1.00D-01 BMatC= 8.53D-10 BMatP= 2.73D-09
 IDIUse=1 WtCom= 1.00D+00 WtEn= 0.00D+00
 Coeff-Com:  0.188D-03-0.240D-03 0.307D-03 0.881D-03-0.845D-02-0.130D-01
 Coeff-Com:  0.549D-03 0.951D-01 0.737D-01-0.301D+00-0.343D+00 0.313D+00
 Coeff-Com:  0.118D+01
 Coeff:      0.188D-03-0.240D-03 0.307D-03 0.881D-03-0.845D-02-0.130D-01
 Coeff:      0.549D-03 0.951D-01 0.737D-01-0.301D+00-0.343D+00 0.313D+00
 Coeff:      0.118D+01
 Gap=     0.041 Goal=   None    Shift=    0.000
 Gap=     0.046 Goal=   None    Shift=    0.000
 RMSDP=4.93D-06 MaxDP=2.62D-04 DE=-2.98D-08 OVMax= 4.66D-04

 Cycle  14  Pass 1  IDiag  1:
 E= -1136.11223121437     Delta-E=       -0.000000011991 Rises=F Damp=F
 DIIS: error= 5.08D-07 at cycle  14 NSaved=  14.
 NSaved=14 IEnMin=14 EnMin= -1136.11223121437     IErMin=14 ErrMin= 5.08D-07
 ErrMax= 5.08D-07  0.00D+00 EMaxC= 1.00D-01 BMatC= 9.52D-11 BMatP= 8.53D-10
 IDIUse=1 WtCom= 1.00D+00 WtEn= 0.00D+00
 Coeff-Com: -0.404D-04 0.533D-04 0.509D-03 0.125D-03 0.298D-02-0.363D-03
 Coeff-Com: -0.969D-02-0.157D-01 0.216D-01 0.786D-01-0.630D-01-0.196D+00
 Coeff-Com: -0.447D-01 0.123D+01
 Coeff:     -0.404D-04 0.533D-04 0.509D-03 0.125D-03 0.298D-02-0.363D-03
 Coeff:     -0.969D-02-0.157D-01 0.216D-01 0.786D-01-0.630D-01-0.196D+00
 Coeff:     -0.447D-01 0.123D+01
 Gap=     0.041 Goal=   None    Shift=    0.000
 Gap=     0.046 Goal=   None    Shift=    0.000
 RMSDP=1.41D-06 MaxDP=6.83D-05 DE=-1.20D-08 OVMax= 1.25D-04

 Cycle  15  Pass 1  IDiag  1:
 E= -1136.11223121543     Delta-E=       -0.000000001055 Rises=F Damp=F
 DIIS: error= 2.14D-07 at cycle  15 NSaved=  15.
 NSaved=15 IEnMin=15 EnMin= -1136.11223121543     IErMin=15 ErrMin= 2.14D-07
 ErrMax= 2.14D-07  0.00D+00 EMaxC= 1.00D-01 BMatC= 1.93D-11 BMatP= 9.52D-11
 IDIUse=1 WtCom= 1.00D+00 WtEn= 0.00D+00
 Coeff-Com: -0.428D-04 0.552D-04 0.100D-03-0.676D-04 0.200D-02 0.184D-02
 Coeff-Com: -0.297D-02-0.181D-01-0.466D-02 0.606D-01 0.461D-01-0.964D-01
 Coeff-Com: -0.216D+00 0.363D+00 0.864D+00
 Coeff:     -0.428D-04 0.552D-04 0.100D-03-0.676D-04 0.200D-02 0.184D-02
 Coeff:     -0.297D-02-0.181D-01-0.466D-02 0.606D-01 0.461D-01-0.964D-01
 Coeff:     -0.216D+00 0.363D+00 0.864D+00
 Gap=     0.041 Goal=   None    Shift=    0.000
 Gap=     0.046 Goal=   None    Shift=    0.000
 RMSDP=3.67D-07 MaxDP=1.99D-05 DE=-1.06D-09 OVMax= 2.89D-05

 Cycle  16  Pass 1  IDiag  1:
 E= -1136.11223121553     Delta-E=       -0.000000000105 Rises=F Damp=F
 DIIS: error= 6.28D-08 at cycle  16 NSaved=  16.
 NSaved=16 IEnMin=16 EnMin= -1136.11223121553     IErMin=16 ErrMin= 6.28D-08
 ErrMax= 6.28D-08  0.00D+00 EMaxC= 1.00D-01 BMatC= 2.35D-12 BMatP= 1.93D-11
 IDIUse=1 WtCom= 1.00D+00 WtEn= 0.00D+00
 Coeff-Com:  0.435D-05-0.594D-05-0.674D-04-0.174D-04-0.337D-03 0.161D-03
 Coeff-Com:  0.136D-02 0.839D-03-0.395D-02-0.707D-02 0.163D-01 0.163D-01
 Coeff-Com: -0.919D-02-0.159D+00 0.118D+00 0.103D+01
 Coeff:      0.435D-05-0.594D-05-0.674D-04-0.174D-04-0.337D-03 0.161D-03
 Coeff:      0.136D-02 0.839D-03-0.395D-02-0.707D-02 0.163D-01 0.163D-01
 Coeff:     -0.919D-02-0.159D+00 0.118D+00 0.103D+01
 Gap=     0.041 Goal=   None    Shift=    0.000
 Gap=     0.046 Goal=   None    Shift=    0.000
 RMSDP=1.37D-07 MaxDP=1.11D-05 DE=-1.05D-10 OVMax= 7.84D-06

 Cycle  17  Pass 1  IDiag  1:
 E= -1136.11223121554     Delta-E=       -0.000000000006 Rises=F Damp=F
 DIIS: error= 2.28D-08 at cycle  17 NSaved=  17.
 NSaved=17 IEnMin=17 EnMin= -1136.11223121554     IErMin=17 ErrMin= 2.28D-08
 ErrMax= 2.28D-08  0.00D+00 EMaxC= 1.00D-01 BMatC= 3.45D-13 BMatP= 2.35D-12
 IDIUse=1 WtCom= 1.00D+00 WtEn= 0.00D+00
 Coeff-Com:  0.835D-05-0.109D-04-0.336D-04 0.925D-05-0.415D-03-0.240D-03
 Coeff-Com:  0.847D-03 0.305D-02-0.189D-03-0.114D-01-0.367D-02 0.201D-01
 Coeff-Com:  0.325D-01-0.102D+00-0.903D-01 0.199D+00 0.952D+00
 Coeff:      0.835D-05-0.109D-04-0.336D-04 0.925D-05-0.415D-03-0.240D-03
 Coeff:      0.847D-03 0.305D-02-0.189D-03-0.114D-01-0.367D-02 0.201D-01
 Coeff:      0.325D-01-0.102D+00-0.903D-01 0.199D+00 0.952D+00
 Gap=     0.041 Goal=   None    Shift=    0.000
 Gap=     0.046 Goal=   None    Shift=    0.000
 RMSDP=4.76D-08 MaxDP=3.90D-06 DE=-6.37D-12 OVMax= 1.96D-06

 Cycle  18  Pass 1  IDiag  1:
 E= -1136.11223121554     Delta-E=        0.000000000002 Rises=F Damp=F
 DIIS: error= 1.01D-08 at cycle  18 NSaved=  18.
 NSaved=18 IEnMin=17 EnMin= -1136.11223121554     IErMin=18 ErrMin= 1.01D-08
 ErrMax= 1.01D-08  0.00D+00 EMaxC= 1.00D-01 BMatC= 4.38D-14 BMatP= 3.45D-13
 IDIUse=1 WtCom= 1.00D+00 WtEn= 0.00D+00
 Coeff-Com: -0.927D-06 0.125D-05 0.736D-05 0.203D-05 0.559D-04-0.607D-05
 Coeff-Com: -0.209D-03-0.131D-03 0.499D-03 0.115D-02-0.239D-02-0.183D-02
 Coeff-Com:  0.373D-03 0.229D-01-0.190D-01-0.145D+00 0.443D-02 0.114D+01
 Coeff:     -0.927D-06 0.125D-05 0.736D-05 0.203D-05 0.559D-04-0.607D-05
 Coeff:     -0.209D-03-0.131D-03 0.499D-03 0.115D-02-0.239D-02-0.183D-02
 Coeff:      0.373D-03 0.229D-01-0.190D-01-0.145D+00 0.443D-02 0.114D+01
 Gap=     0.041 Goal=   None    Shift=    0.000
 Gap=     0.046 Goal=   None    Shift=    0.000
 RMSDP=1.99D-08 MaxDP=1.22D-06 DE= 1.82D-12 OVMax= 8.59D-07

 Cycle  19  Pass 1  IDiag  1:
 E= -1136.11223121553     Delta-E=        0.000000000008 Rises=F Damp=F
 DIIS: error= 3.43D-09 at cycle  19 NSaved=  19.
 NSaved=19 IEnMin=17 EnMin= -1136.11223121554     IErMin=19 ErrMin= 3.43D-09
 ErrMax= 3.43D-09  0.00D+00 EMaxC= 1.00D-01 BMatC= 5.82D-15 BMatP= 4.38D-14
 IDIUse=1 WtCom= 1.00D+00 WtEn= 0.00D+00
 Coeff-Com: -0.107D-05 0.140D-05 0.501D-05-0.129D-05 0.578D-04 0.214D-04
 Coeff-Com: -0.135D-03-0.356D-03 0.941D-04 0.146D-02 0.307D-04-0.273D-02
 Coeff-Com: -0.305D-02 0.142D-01 0.914D-02-0.347D-01-0.132D+00 0.142D+00
 Coeff-Com:  0.101D+01
 Coeff:     -0.107D-05 0.140D-05 0.501D-05-0.129D-05 0.578D-04 0.214D-04
 Coeff:     -0.135D-03-0.356D-03 0.941D-04 0.146D-02 0.307D-04-0.273D-02
 Coeff:     -0.305D-02 0.142D-01 0.914D-02-0.347D-01-0.132D+00 0.142D+00
 Coeff:      0.101D+01
 Gap=     0.041 Goal=   None    Shift=    0.000
 Gap=     0.046 Goal=   None    Shift=    0.000
 RMSDP=6.58D-09 MaxDP=2.74D-07 DE= 8.19D-12 OVMax= 3.19D-07

 SCF Done:  E(UB3LYP) =  -1136.11223122     A.U. after   19 cycles
            NFock= 19  Conv=0.66D-08     -V/T= 2.0028
 <Sx>= 0.0000 <Sy>= 0.0000 <Sz>= 0.5000 <S**2>= 0.7667 S= 0.5083
 <L.S>= 0.000000000000E+00
 KE= 1.132889682173D+03 PE=-3.255773341385D+03 EE= 7.233782505124D+02
 Annihilation of the first spin contaminant:
 S**2 before annihilation     0.7667,   after     0.7501
 Leave Link  502 at Tue Nov 28 22:29:50 2023, MaxMem=  1879048192 cpu:             151.7 elap:              14.2
 (Enter /home/sekinelabo/g16/l601.exe)
 Copying SCF densities to generalized density rwf, IOpCl= 1 IROHF=0.

 **********************************************************************

            Population analysis using the SCF Density.

 **********************************************************************

 Orbital symmetries:
 Alpha Orbitals:
       Occupied  (A) (A) (A) (A) (A) (A) (A) (A) (A) (A) (A) (A)
                 (A) (A) (A) (A) (A) (A) (A) (A) (A) (A) (A) (A)
                 (A) (A) (A) (A) (A) (A) (A) (A) (A) (A) (A) (A)
                 (A) (A) (A)
       Virtual   (A) (A) (A) (A) (A) (A) (A) (A) (A) (A) (A) (A)
                 (A) (A) (A) (A) (A) (A) (A) (A) (A) (A) (A) (A)
                 (A) (A) (A) (A) (A) (A) (A) (A) (A) (A) (A) (A)
                 (A) (A) (A) (A) (A) (A) (A) (A) (A) (A) (A) (A)
                 (A) (A) (A) (A) (A) (A) (A) (A) (A) (A) (A) (A)
                 (A) (A) (A) (A) (A) (A) (A) (A) (A) (A) (A) (A)
                 (A) (A) (A) (A) (A) (A) (A) (A) (A) (A) (A) (A)
                 (A) (A) (A) (A) (A) (A) (A) (A) (A) (A) (A) (A)
                 (A) (A) (A) (A) (A) (A) (A) (A) (A) (A) (A) (A)
                 (A) (A) (A) (A) (A) (A) (A) (A) (A) (A) (A) (A)
                 (A) (A) (A) (A) (A) (A) (A) (A) (A) (A) (A) (A)
                 (A) (A) (A) (A) (A) (A) (A) (A) (A) (A) (A) (A)
                 (A) (A) (A) (A) (A) (A) (A) (A) (A) (A) (A) (A)
                 (A) (A) (A) (A) (A) (A) (A) (A) (A) (A) (A) (A)
                 (A) (A) (A)
 Beta  Orbitals:
       Occupied  (A) (A) (A) (A) (A) (A) (A) (A) (A) (A) (A) (A)
                 (A) (A) (A) (A) (A) (A) (A) (A) (A) (A) (A) (A)
                 (A) (A) (A) (A) (A) (A) (A) (A) (A) (A) (A) (A)
                 (A) (A)
       Virtual   (A) (A) (A) (A) (A) (A) (A) (A) (A) (A) (A) (A)
                 (A) (A) (A) (A) (A) (A) (A) (A) (A) (A) (A) (A)
                 (A) (A) (A) (A) (A) (A) (A) (A) (A) (A) (A) (A)
                 (A) (A) (A) (A) (A) (A) (A) (A) (A) (A) (A) (A)
                 (A) (A) (A) (A) (A) (A) (A) (A) (A) (A) (A) (A)
                 (A) (A) (A) (A) (A) (A) (A) (A) (A) (A) (A) (A)
                 (A) (A) (A) (A) (A) (A) (A) (A) (A) (A) (A) (A)
                 (A) (A) (A) (A) (A) (A) (A) (A) (A) (A) (A) (A)
                 (A) (A) (A) (A) (A) (A) (A) (A) (A) (A) (A) (A)
                 (A) (A) (A) (A) (A) (A) (A) (A) (A) (A) (A) (A)
                 (A) (A) (A) (A) (A) (A) (A) (A) (A) (A) (A) (A)
                 (A) (A) (A) (A) (A) (A) (A) (A) (A) (A) (A) (A)
                 (A) (A) (A) (A) (A) (A) (A) (A) (A) (A) (A) (A)
                 (A) (A) (A) (A) (A) (A) (A) (A) (A) (A) (A) (A)
                 (A) (A) (A) (A)
 The electronic state is 2-A.
 Alpha  occ. eigenvalues --  -38.44851 -38.44838 -38.44552 -38.44516 -38.44333
 Alpha  occ. eigenvalues --  -38.43736 -38.43726  -2.20717  -2.20697  -2.20376
 Alpha  occ. eigenvalues --   -2.20369  -2.20170  -2.19497  -2.19491  -1.14517
 Alpha  occ. eigenvalues --   -1.14392  -1.14368  -1.14337  -1.14331  -1.14233
 Alpha  occ. eigenvalues --   -1.14100  -1.14051  -1.14029  -1.14027  -1.13997
 Alpha  occ. eigenvalues --   -1.13983  -1.13826  -1.13805  -1.13791  -1.13189
 Alpha  occ. eigenvalues --   -1.13178  -1.13166  -1.13159  -1.13156  -1.13066
 Alpha  occ. eigenvalues --   -0.16946  -0.14182  -0.12037  -0.11027
 Alpha virt. eigenvalues --   -0.06921  -0.05697  -0.04698  -0.03815  -0.03049
 Alpha virt. eigenvalues --   -0.02613  -0.02168  -0.01630  -0.01086  -0.00861
 Alpha virt. eigenvalues --   -0.00523  -0.00285   0.00044   0.00125   0.00535
 Alpha virt. eigenvalues --    0.00747   0.00798   0.00975   0.01051   0.01107
 Alpha virt. eigenvalues --    0.01317   0.01336   0.01475   0.01579   0.01794
 Alpha virt. eigenvalues --    0.01959   0.02049   0.02087   0.02199   0.02416
 Alpha virt. eigenvalues --    0.02460   0.02510   0.02566   0.02775   0.02925
 Alpha virt. eigenvalues --    0.03075   0.03109   0.03360   0.03406   0.03502
 Alpha virt. eigenvalues --    0.03555   0.03668   0.03701   0.03906   0.04056
 Alpha virt. eigenvalues --    0.04559   0.04766   0.04922   0.05167   0.05339
 Alpha virt. eigenvalues --    0.05907   0.06015   0.06498   0.06880   0.07032
 Alpha virt. eigenvalues --    0.07466   0.07892   0.08119   0.08410   0.08433
 Alpha virt. eigenvalues --    0.08736   0.08848   0.09337   0.09489   0.09729
 Alpha virt. eigenvalues --    0.10014   0.10234   0.10552   0.10716   0.10966
 Alpha virt. eigenvalues --    0.11606   0.12373   0.12973   0.13252   0.13436
 Alpha virt. eigenvalues --    0.13672   0.14534   0.15409   0.16210   0.16784
 Alpha virt. eigenvalues --    0.25646   0.27212   0.28623   0.29458   0.29709
 Alpha virt. eigenvalues --    0.29850   0.31015   0.31262   0.31792   0.32192
 Alpha virt. eigenvalues --    0.32774   0.33037   0.34249   0.34763   0.35129
 Alpha virt. eigenvalues --    0.36691   0.37070   0.37374   0.38172   0.38930
 Alpha virt. eigenvalues --    0.40584   0.40667   0.41335   0.42468   0.42973
 Alpha virt. eigenvalues --    0.43409   0.43602   0.43931   0.44260   0.44454
 Alpha virt. eigenvalues --    0.44633   0.44820   0.45177   0.45400   0.45709
 Alpha virt. eigenvalues --    0.45871   0.46255   0.46471   0.46704   0.47805
 Alpha virt. eigenvalues --    0.48025   0.48828   0.49061   0.49446   0.50093
 Alpha virt. eigenvalues --    0.50920   0.51398   0.52736   0.53007   0.53883
 Alpha virt. eigenvalues --    0.54840   0.58482   0.63889   0.66726   0.71536
 Alpha virt. eigenvalues --    0.72160   2.02238   2.06718   2.09850   2.12662
 Alpha virt. eigenvalues --    2.14070   2.16010   2.18597   4.41308   4.42008
 Alpha virt. eigenvalues --    4.42483   4.43241   4.43741   4.44559   4.44653
 Alpha virt. eigenvalues --    4.44722   4.45058   4.45507   4.46014   4.46400
 Alpha virt. eigenvalues --    4.46776   4.47094   4.47576   4.50144   4.51702
 Alpha virt. eigenvalues --    4.56998   4.58425   4.64395   4.66995  96.21458
 Alpha virt. eigenvalues --   96.26863  96.30690  96.34711  96.35890  96.39572
 Alpha virt. eigenvalues --   96.41710
  Beta  occ. eigenvalues --  -38.44834 -38.44794 -38.44517 -38.44447 -38.44321
  Beta  occ. eigenvalues --  -38.43740 -38.43723  -2.20706  -2.20595  -2.20303
  Beta  occ. eigenvalues --   -2.20250  -2.20149  -2.19505  -2.19487  -1.14483
  Beta  occ. eigenvalues --   -1.14365  -1.14352  -1.14277  -1.14264  -1.14181
  Beta  occ. eigenvalues --   -1.14062  -1.13985  -1.13967  -1.13949  -1.13935
  Beta  occ. eigenvalues --   -1.13892  -1.13813  -1.13786  -1.13756  -1.13190
  Beta  occ. eigenvalues --   -1.13176  -1.13169  -1.13162  -1.13156  -1.13067
  Beta  occ. eigenvalues --   -0.16261  -0.14095  -0.11927
  Beta virt. eigenvalues --   -0.07366  -0.06538  -0.04882  -0.04549  -0.03672
  Beta virt. eigenvalues --   -0.02611  -0.02337  -0.01900  -0.01538  -0.00991
  Beta virt. eigenvalues --   -0.00473  -0.00230   0.00077   0.00108   0.00359
  Beta virt. eigenvalues --    0.00612   0.00813   0.00893   0.01071   0.01098
  Beta virt. eigenvalues --    0.01174   0.01397   0.01411   0.01549   0.01675
  Beta virt. eigenvalues --    0.01924   0.02014   0.02187   0.02210   0.02287
  Beta virt. eigenvalues --    0.02443   0.02547   0.02582   0.02667   0.02876
  Beta virt. eigenvalues --    0.02985   0.03154   0.03319   0.03440   0.03505
  Beta virt. eigenvalues --    0.03564   0.03647   0.03746   0.03779   0.03923
  Beta virt. eigenvalues --    0.04192   0.04620   0.04870   0.05081   0.05332
  Beta virt. eigenvalues --    0.05408   0.05950   0.06079   0.06635   0.06905
  Beta virt. eigenvalues --    0.07084   0.07553   0.07933   0.08159   0.08475
  Beta virt. eigenvalues --    0.08634   0.08858   0.08978   0.09493   0.09689
  Beta virt. eigenvalues --    0.09895   0.10186   0.10318   0.10771   0.10894
  Beta virt. eigenvalues --    0.11505   0.11771   0.12588   0.13106   0.13390
  Beta virt. eigenvalues --    0.13500   0.13965   0.14767   0.15596   0.16246
  Beta virt. eigenvalues --    0.17076   0.26038   0.27523   0.28998   0.29685
  Beta virt. eigenvalues --    0.29863   0.30132   0.31310   0.31477   0.31902
  Beta virt. eigenvalues --    0.32335   0.32975   0.33342   0.34413   0.34785
  Beta virt. eigenvalues --    0.35269   0.36948   0.37254   0.37680   0.38254
  Beta virt. eigenvalues --    0.39188   0.40820   0.40949   0.41698   0.42706
  Beta virt. eigenvalues --    0.42991   0.43411   0.43737   0.44091   0.44261
  Beta virt. eigenvalues --    0.44504   0.44798   0.45003   0.45316   0.45565
  Beta virt. eigenvalues --    0.45850   0.46005   0.46324   0.46569   0.46838
  Beta virt. eigenvalues --    0.47847   0.48216   0.49021   0.49191   0.49773
  Beta virt. eigenvalues --    0.50315   0.51095   0.51635   0.52972   0.53231
  Beta virt. eigenvalues --    0.54073   0.55111   0.58707   0.63890   0.67028
  Beta virt. eigenvalues --    0.71668   0.72335   2.02335   2.06785   2.09978
  Beta virt. eigenvalues --    2.12864   2.14070   2.16094   2.18783   4.41356
  Beta virt. eigenvalues --    4.42030   4.42559   4.43272   4.43749   4.44591
  Beta virt. eigenvalues --    4.44694   4.44790   4.45057   4.45545   4.46038
  Beta virt. eigenvalues --    4.46440   4.46795   4.47117   4.47665   4.50181
  Beta virt. eigenvalues --    4.51767   4.56999   4.58513   4.64414   4.67033
  Beta virt. eigenvalues --   96.21491  96.26886  96.30734  96.34776  96.35890
  Beta virt. eigenvalues --   96.39597  96.41763
          Condensed to atoms (all electrons):
               1          2          3          4          5          6
     1  Na  11.807497  -0.119796   0.215217   0.034929  -0.097123  -0.437478
     2  Na  -0.119796  10.492931   0.022900   0.094602  -0.105097   0.004053
     3  Na   0.215217   0.022900  11.235491  -0.342780   0.041042   0.076840
     4  Na   0.034929   0.094602  -0.342780  11.599114   0.144758  -0.440591
     5  Na  -0.097123  -0.105097   0.041042   0.144758  10.822414   0.166924
     6  Na  -0.437478   0.004053   0.076840  -0.440591   0.166924  11.858961
     7  Na   0.015495   0.020441  -0.055903   0.000049  -0.068172   0.164582
               7
     1  Na   0.015495
     2  Na   0.020441
     3  Na  -0.055903
     4  Na   0.000049
     5  Na  -0.068172
     6  Na   0.164582
     7  Na  10.513807
          Atomic-Atomic Spin Densities.
               1          2          3          4          5          6
     1  Na   0.858130  -0.117511  -0.157468  -0.117069   0.045346  -0.069866
     2  Na  -0.117511   0.036407   0.024714   0.014361  -0.000891   0.023075
     3  Na  -0.157468   0.024714   0.346924   0.063485  -0.010750   0.008149
     4  Na  -0.117069   0.014361   0.063485   0.343284  -0.047226   0.003070
     5  Na   0.045346  -0.000891  -0.010750  -0.047226   0.037809   0.013542
     6  Na  -0.069866   0.023075   0.008149   0.003070   0.013542   0.039653
     7  Na   0.004831  -0.000687  -0.002420   0.019223   0.002507  -0.017816
               7
     1  Na   0.004831
     2  Na  -0.000687
     3  Na  -0.002420
     4  Na   0.019223
     5  Na   0.002507
     6  Na  -0.017816
     7  Na  -0.023404
 Mulliken charges and spin densities:
               1          2
     1  Na  -0.418742   0.446392
     2  Na   0.589966  -0.020531
     3  Na  -0.192807   0.272634
     4  Na  -0.090080   0.279127
     5  Na   0.095254   0.040337
     6  Na  -0.393292  -0.000192
     7  Na   0.409701  -0.017767
 Sum of Mulliken charges =  -0.00000   1.00000
 Mulliken charges and spin densities with hydrogens summed into heavy atoms:
               1          2
     1  Na  -0.418742   0.446392
     2  Na   0.589966  -0.020531
     3  Na  -0.192807   0.272634
     4  Na  -0.090080   0.279127
     5  Na   0.095254   0.040337
     6  Na  -0.393292  -0.000192
     7  Na   0.409701  -0.017767
 Electronic spatial extent (au):  <R**2>=           5697.9227
 Charge=             -0.0000 electrons
 Dipole moment (field-independent basis, Debye):
    X=             -2.5838    Y=             -0.1571    Z=              0.1627  Tot=              2.5936
 Quadrupole moment (field-independent basis, Debye-Ang):
   XX=            -58.4255   YY=            -70.1686   ZZ=            -70.0459
   XY=             -1.3080   XZ=              1.1795   YZ=             -0.1754
 Traceless Quadrupole moment (field-independent basis, Debye-Ang):
   XX=              7.7878   YY=             -3.9552   ZZ=             -3.8326
   XY=             -1.3080   XZ=              1.1795   YZ=             -0.1754
 Octapole moment (field-independent basis, Debye-Ang**2):
  XXX=           -115.7598  YYY=              0.5249  ZZZ=              1.4736  XYY=            -10.0700
  XXY=            -24.0326  XXZ=             67.1312  XZZ=             11.1685  YZZ=             -1.6325
  YYZ=             -4.9376  XYZ=             -2.0274
 Hexadecapole moment (field-independent basis, Debye-Ang**3):
 XXXX=          -6385.8008 YYYY=          -1013.3643 ZZZZ=           -588.0367 XXXY=             37.8132
 XXXZ=            409.0931 YYYX=            -45.1541 YYYZ=             12.7975 ZZZX=             17.5414
 ZZZY=              0.7366 XXYY=          -1551.1624 XXZZ=          -1314.5990 YYZZ=           -254.5549
 XXYZ=            -26.8710 YYXZ=            -22.1615 ZZXY=             -2.8618
 N-N= 2.633931774844D+02 E-N=-3.255773341521D+03  KE= 1.132889682173D+03
                          Isotropic Fermi Contact Couplings
        Atom                 a.u.       MegaHertz       Gauss      10(-4) cm-1
     1  Na(23)             0.26890     318.11664     113.51193     106.11229
     2  Na(23)            -0.01718     -20.32054      -7.25087      -6.77820
     3  Na(23)             0.23838     282.01103     100.62855      94.06875
     4  Na(23)             0.14500     171.54115      61.21015      57.21997
     5  Na(23)             0.02445      28.92628      10.32162       9.64877
     6  Na(23)             0.01166      13.79622       4.92283       4.60192
     7  Na(23)            -0.01719     -20.33090      -7.25457      -6.78166
 --------------------------------------------------------
       Center         ----  Spin Dipole Couplings  ----
                      3XX-RR        3YY-RR        3ZZ-RR
 --------------------------------------------------------
     1   Atom       -0.000286      0.010244     -0.009958
     2   Atom       -0.012010      0.026703     -0.014692
     3   Atom        0.003089     -0.000897     -0.002193
     4   Atom        0.002640     -0.000425     -0.002215
     5   Atom        0.008796     -0.000763     -0.008032
     6   Atom       -0.001371      0.001545     -0.000173
     7   Atom        0.000498     -0.000325     -0.000173
 --------------------------------------------------------
                        XY            XZ            YZ
 --------------------------------------------------------
     1   Atom       -0.000690     -0.003694      0.002667
     2   Atom       -0.011220     -0.000186     -0.000225
     3   Atom        0.002434     -0.003027     -0.002940
     4   Atom       -0.002398     -0.001662      0.000948
     5   Atom        0.014481     -0.009061     -0.006454
     6   Atom       -0.002461     -0.001344     -0.000896
     7   Atom        0.000075      0.000337      0.000080
 --------------------------------------------------------


 ---------------------------------------------------------------------------------
              Anisotropic Spin Dipole Couplings in Principal Axis System
 ---------------------------------------------------------------------------------

       Atom             a.u.   MegaHertz   Gauss  10(-4) cm-1        Axes

              Baa    -0.0115    -1.618    -0.577    -0.540  0.3063 -0.1065  0.9460
     1 Na(23) Bbb     0.0007     0.104     0.037     0.035  0.9455  0.1497 -0.2893
              Bcc     0.0107     1.514     0.540     0.505 -0.1108  0.9830  0.1466
 
              Baa    -0.0152    -2.139    -0.763    -0.714  0.8562  0.2320  0.4617
     2 Na(23) Bbb    -0.0146    -2.057    -0.734    -0.686 -0.4468 -0.1166  0.8870
              Bcc     0.0297     4.197     1.498     1.400 -0.2596  0.9657 -0.0038
 
              Baa    -0.0047    -0.661    -0.236    -0.221  0.1513  0.5437  0.8255
     3 Na(23) Bbb    -0.0015    -0.214    -0.076    -0.071 -0.6089  0.7092 -0.3555
              Bcc     0.0062     0.875     0.312     0.292  0.7787  0.4489 -0.4383
 
              Baa    -0.0028    -0.390    -0.139    -0.130  0.2251 -0.1593  0.9612
     4 Na(23) Bbb    -0.0017    -0.245    -0.088    -0.082  0.4889  0.8718  0.0300
              Bcc     0.0045     0.635     0.227     0.212  0.8428 -0.4632 -0.2741
 
              Baa    -0.0120    -1.694    -0.605    -0.565  0.3268  0.1175  0.9378
     5 Na(23) Bbb    -0.0112    -1.585    -0.566    -0.529 -0.5564  0.8259  0.0904
              Bcc     0.0232     3.280     1.170     1.094  0.7639  0.5514 -0.3353
 
              Baa    -0.0035    -0.500    -0.179    -0.167  0.7801  0.4532  0.4315
     6 Na(23) Bbb     0.0006     0.084     0.030     0.028 -0.3963 -0.1758  0.9011
              Bcc     0.0030     0.417     0.149     0.139 -0.4842  0.8739 -0.0425
 
              Baa    -0.0004    -0.052    -0.019    -0.017  0.1654  0.7834 -0.5991
     7 Na(23) Bbb    -0.0003    -0.039    -0.014    -0.013 -0.3638  0.6131  0.7013
              Bcc     0.0006     0.092     0.033     0.031  0.9167  0.1020  0.3864
 

 ---------------------------------------------------------------------------------

 No NMR shielding tensors so no spin-rotation constants.
 Leave Link  601 at Tue Nov 28 22:29:51 2023, MaxMem=  1879048192 cpu:               2.3 elap:               0.2
 (Enter /home/sekinelabo/g16/l701.exe)
 ... and contract with generalized density number  0.
 Compute integral first derivatives.
 Leave Link  701 at Tue Nov 28 22:29:51 2023, MaxMem=  1879048192 cpu:               1.6 elap:               0.1
 (Enter /home/sekinelabo/g16/l702.exe)
 L702 exits ... SP integral derivatives will be done elsewhere.
 Leave Link  702 at Tue Nov 28 22:29:51 2023, MaxMem=  1879048192 cpu:               0.4 elap:               0.0
 (Enter /home/sekinelabo/g16/l703.exe)
 Integral derivatives from FoFJK, PRISM(SPDF).
 Compute integral first derivatives, UseDBF=F ICtDFT=           0.
 Calling FoFJK, ICntrl=      2127 FMM=F ISym2X=0 I1Cent= 0 IOpClX= 1 NMat=1 NMatS=1 NMatT=0.
 FoFJK:  IHMeth= 1 ICntrl=    2127 DoSepK=F KAlg= 0 I1Cent=           0 FoldK=F
 IRaf=         0 NMat=       1 IRICut=       1 DoRegI=T DoRafI=F ISym2E= 0 IDoP0=0 IntGTp=1.
 FoFCou: FMM=F IPFlag=           0 FMFlag=      100000 FMFlg1=         800
         NFxFlg=           0 DoJE=F BraDBF=F KetDBF=F FulRan=T
         wScrn=  0.000000 ICntrl=      2127 IOpCl=  1 I1Cent=           0 NGrid=           0
         NMat0=    1 NMatS0=      1 NMatT0=    0 NMatD0=    1 NMtDS0=    0 NMtDT0=    0
 Symmetry not used in FoFCou.
 Leave Link  703 at Tue Nov 28 22:29:53 2023, MaxMem=  1879048192 cpu:              26.8 elap:               1.8
 (Enter /home/sekinelabo/g16/l716.exe)
 Dipole        =-1.01653308D+00-6.18119103D-02 6.40069709D-02
 ***** Axes restored to original set *****
 -------------------------------------------------------------------
 Center     Atomic                   Forces (Hartrees/Bohr)
 Number     Number              X              Y              Z
 -------------------------------------------------------------------
      1       11          -0.001032196    0.000111868    0.003763533
      2       11          -0.002326589   -0.000293118   -0.006160684
      3       11           0.002904671   -0.000366772    0.006142410
      4       11           0.003914569   -0.000481153   -0.001385050
      5       11          -0.003458342    0.001764794   -0.000653995
      6       11           0.000021232    0.002031601   -0.000134533
      7       11          -0.000023346   -0.002767221   -0.001571680
 -------------------------------------------------------------------
 Cartesian Forces:  Max     0.006160684 RMS     0.002692549
 Z-matrix is all fixed cartesians, so copy forces.
 Force constants in Cartesian coordinates: 
                1             2             3             4             5 
      1  0.472885D-01
      2 -0.220365D-01  0.284604D-01
      3 -0.184054D-02 -0.213652D-02  0.531364D-01
      4 -0.143165D-01  0.101015D-01  0.149101D-01  0.331046D-01
      5  0.719096D-02 -0.133368D-01 -0.761018D-02 -0.962701D-02  0.937808D-02
      6 -0.267399D-02  0.315353D-04 -0.282381D-01  0.969830D-02  0.676973D-02
      7 -0.180650D-01  0.344456D-02 -0.731861D-02 -0.207800D-01  0.473390D-02
      8  0.781541D-02 -0.422299D-02  0.325268D-02  0.117231D-02 -0.552086D-03
      9  0.365861D-02 -0.162471D-03 -0.655348D-02 -0.250061D-01  0.118770D-02
     10  0.965043D-03 -0.235329D-03  0.216729D-03 -0.312807D-04 -0.261900D-04
     11  0.611342D-03  0.765165D-04  0.146935D-03 -0.101611D-03 -0.850743D-04
     12 -0.594176D-02  0.201235D-02 -0.131033D-02 -0.116928D-04 -0.978985D-05
     13 -0.158720D-01  0.872576D-02 -0.596769D-02  0.202317D-02 -0.227166D-02
     14  0.641875D-02 -0.109771D-01  0.634708D-02 -0.154517D-02  0.459589D-02
     15  0.679768D-02  0.255098D-03 -0.170346D-01  0.409419D-03 -0.337459D-03
     16  0.000000D+00  0.000000D+00  0.000000D+00  0.000000D+00  0.000000D+00
     17  0.000000D+00  0.000000D+00  0.000000D+00  0.000000D+00  0.000000D+00
     18  0.000000D+00  0.000000D+00  0.000000D+00  0.000000D+00  0.000000D+00
     19  0.000000D+00  0.000000D+00  0.000000D+00  0.000000D+00  0.000000D+00
     20  0.000000D+00  0.000000D+00  0.000000D+00  0.000000D+00  0.000000D+00
     21  0.000000D+00  0.000000D+00  0.000000D+00  0.000000D+00  0.000000D+00
                6             7             8             9            10 
      6  0.582910D-01
      7 -0.918540D-02  0.386696D-01
      8 -0.394680D-02 -0.831660D-02  0.390555D-02
      9 -0.304387D-01  0.164569D-01  0.814683D-03  0.359215D-01
     10 -0.847004D-05 -0.566697D-05 -0.166297D-04 -0.204232D-05  0.320375D-01
     11 -0.275137D-04 -0.184083D-04 -0.540191D-04 -0.663418D-05 -0.101636D-01
     12 -0.316611D-05 -0.211832D-05 -0.621619D-05  0.000000D+00  0.299404D-02
     13  0.216955D-02  0.181020D-03 -0.654490D-03  0.489267D-02 -0.329656D-01
     14 -0.282695D-02  0.156556D-03  0.923550D-03 -0.183328D-02  0.104417D-01
     15  0.389049D-03  0.492294D-04 -0.114342D-03  0.107144D-02 -0.320026D-02
     16  0.000000D+00  0.000000D+00  0.000000D+00  0.000000D+00  0.000000D+00
     17  0.000000D+00  0.000000D+00  0.000000D+00  0.000000D+00  0.000000D+00
     18  0.000000D+00  0.000000D+00  0.000000D+00  0.000000D+00  0.000000D+00
     19  0.000000D+00  0.000000D+00  0.000000D+00  0.000000D+00  0.000000D+00
     20  0.000000D+00  0.000000D+00  0.000000D+00  0.000000D+00  0.000000D+00
     21  0.000000D+00  0.000000D+00  0.000000D+00  0.000000D+00  0.000000D+00
               11            12            13            14            15 
     11  0.348046D-02
     12 -0.182352D-02  0.797859D-02
     13  0.967226D-02  0.296153D-02  0.466334D-01
     14 -0.341789D-02 -0.172823D-03 -0.154719D-01  0.887554D-02
     15  0.171074D-02 -0.666433D-02 -0.405607D-02 -0.151403D-02  0.222384D-01
     16  0.000000D+00  0.000000D+00  0.000000D+00  0.000000D+00  0.000000D+00
     17  0.000000D+00  0.000000D+00  0.000000D+00  0.000000D+00  0.000000D+00
     18  0.000000D+00  0.000000D+00  0.000000D+00  0.000000D+00  0.000000D+00
     19  0.000000D+00  0.000000D+00  0.000000D+00  0.000000D+00  0.000000D+00
     20  0.000000D+00  0.000000D+00  0.000000D+00  0.000000D+00  0.000000D+00
     21  0.000000D+00  0.000000D+00  0.000000D+00  0.000000D+00  0.000000D+00
               16            17            18            19            20 
     16  0.206816D-05
     17 -0.189036D-03  0.172784D-01
     18 -0.120916D-03  0.110520D-01  0.706939D-02
     19 -0.206816D-05  0.189036D-03  0.120916D-03  0.206816D-05
     20  0.189036D-03 -0.172784D-01 -0.110520D-01 -0.189036D-03  0.172784D-01
     21  0.120916D-03 -0.110520D-01 -0.706939D-02 -0.120916D-03  0.110520D-01
               21 
     21  0.706939D-02
 Leave Link  716 at Tue Nov 28 22:29:53 2023, MaxMem=  1879048192 cpu:               0.4 elap:               0.0
 (Enter /home/sekinelabo/g16/l103.exe)

 GradGradGradGradGradGradGradGradGradGradGradGradGradGradGradGradGradGrad
 Berny optimization.
 Search for a local minimum.
 Step number   1 out of a maximum of    2
 All quantities printed in internal units (Hartrees-Bohrs-Radians)
 Second derivative matrix not updated -- first step.
 ITU=  0
     Eigenvalues ---   -0.00000   0.00000   0.00000   0.00000   0.00013
     Eigenvalues ---    0.00084   0.00515   0.01356   0.02348   0.03678
     Eigenvalues ---    0.04870   0.06418   0.08746   0.09496   0.10186
 Eigenvalue     1 is  -3.33D-16 should be greater than     0.000000 Eigenvector:
                          X6        X7        X4        X5        Y6
   1                    0.75974  -0.28494  -0.26611  -0.24849  -0.19630
                          Y4        Z3        Z7        Y5        Z5
   1                    0.17884   0.17467  -0.15344   0.15133  -0.11820
 Eigenvalue     2 is   2.22D-16 Eigenvector:
                          Y4        Y5        Y7        Y2        Y6
   1                    0.49259   0.46814  -0.34181  -0.32448  -0.26502
                          X4        Z6        X6        X5        X2
   1                    0.21970  -0.21683  -0.20709   0.20565  -0.15162
 Eigenvalue     3 is   4.44D-16 Eigenvector:
                          Z7        Y6        Y2        Z1        X7
   1                    0.75108   0.41858  -0.23886  -0.15880  -0.15722
                          X6        Z5        Y7        Y3        Z3
   1                    0.14984  -0.14742  -0.13497  -0.12177  -0.11363
 Eigenvalue     4 is   4.44D-16 Eigenvector:
                          Z6        Y6        Y7        Z1        Z3
   1                    0.80348  -0.25391   0.22556  -0.18698  -0.18075
                          Z5        Y2        Z4        Z2        Y4
   1                   -0.16799  -0.16453  -0.16401  -0.15823   0.14812
 Quadratic step=1.895D+01 exceeds max=3.000D-01 adjusted using Lamda=-9.454D-03.
 Angle between NR and scaled steps=  46.88 degrees.
 Angle between quadratic step and forces=  50.88 degrees.
 Linear search not attempted -- first point.
 B after Tr=     0.000000   -0.000000    0.000000
         Rot=    1.000000    0.000000    0.000000    0.000000 Ang=   0.00 deg.
 Variable       Old X    -DE/DX   Delta X   Delta X   Delta X     New X
                                 (Linear)    (Quad)   (Total)
    X1       26.88627  -0.00103   0.00000  -0.04933  -0.04933  26.83694
    Y1       28.58362   0.00011   0.00000   0.00481   0.00481  28.58843
    Z1       23.30467   0.00376   0.00000   0.07973   0.07973  23.38440
    X2       29.85597  -0.00233   0.00000  -0.00597  -0.00597  29.85000
    Y2       26.60300  -0.00029   0.00000   0.00829   0.00829  26.61129
    Z2       18.46149  -0.00616   0.00000   0.01362   0.01362  18.47511
    X3       33.46610   0.00290   0.00000  -0.00817  -0.00817  33.45794
    Y3       26.40703  -0.00037   0.00000  -0.02915  -0.02915  26.37788
    Z3       22.77007   0.00614   0.00000   0.16364   0.16364  22.93370
    X4       30.75076   0.00391   0.00000   0.08571   0.08571  30.83646
    Y4       26.56199  -0.00048   0.00000   0.04538   0.04538  26.60737
    Z4       30.53438  -0.00139   0.00000  -0.09185  -0.09185  30.44254
    X5       25.35124  -0.00346   0.00000  -0.02095  -0.02095  25.33030
    Y5       28.30451   0.00176   0.00000   0.04727   0.04727  28.35178
    Z5       29.83670  -0.00065   0.00000   0.01369   0.01369  29.85038
    X6       28.37575   0.00002   0.00000   0.00475   0.00475  28.38050
    Y6       30.65552   0.00203   0.00000   0.03532   0.03532  30.69084
    Z6       37.37481  -0.00013   0.00000  -0.12756  -0.12756  37.24725
    X7       28.31849  -0.00002   0.00000  -0.00604  -0.00604  28.31246
    Y7       35.88911  -0.00277   0.00000  -0.11192  -0.11192  35.77719
    Z7       40.72246  -0.00157   0.00000  -0.05126  -0.05126  40.67120
         Item               Value     Threshold  Converged?
 Maximum Force            0.006161     0.000450     NO 
 RMS     Force            0.002693     0.000300     NO 
 Maximum Displacement     0.163639     0.001800     NO 
 RMS     Displacement     0.065550     0.001200     NO 
 Predicted change in Energy=-1.597681D-03
 GradGradGradGradGradGradGradGradGradGradGradGradGradGradGradGradGradGrad

 Leave Link  103 at Tue Nov 28 22:29:53 2023, MaxMem=  1879048192 cpu:               0.2 elap:               0.0
 (Enter /home/sekinelabo/g16/l9999.exe)
 1\1\GINC-SEKINELABO-XA7R-R37\Force\UB3LYP\6-311+G(d)\Na7(2)\SEKINELABO
 \28-Nov-2023\0\\#P B3LYP/6-311+g(d) force\\DPGEN\\0,2\Na,14.2276,15.12
 58,12.3323\Na,15.7991,14.0777,9.7694\Na,17.7095,13.974,12.0494\Na,16.2
 726,14.056,16.1581\Na,13.4153,14.9781,15.7889\Na,15.0158,16.2222,19.77
 79\Na,14.9855,18.9917,21.5494\\Version=ES64L-G16RevB.01\State=2-A\HF=-
 1136.1122312\S2=0.766734\S2-1=0.\S2A=0.750099\RMSD=6.575e-09\RMSF=2.69
 3e-03\Dipole=0.0683881,-0.2706651,-0.9814889\Quadrupole=-2.7696188,-1.
 1017593,3.871378,-0.7230946,-1.410925,3.5252634\PG=C01 [X(Na7)]\\@


 WE STILL HAVE JUDGEMENT HERE,
 THAT WE TEACH BUT BLOODY INSTRUCTIONS,
 WHICH, BEING TAUGHT,
 RETURN TO PLAGUE THE INVENTOR.
           MACBETH ACT I, SCENE VII
 Job cpu time:       0 days  0 hours  3 minutes 14.1 seconds.
 Elapsed time:       0 days  0 hours  0 minutes 17.0 seconds.
 File lengths (MBytes):  RWF=     32 Int=      0 D2E=      0 Chk=      4 Scr=      1
 Normal termination of Gaussian 16 at Tue Nov 28 22:29:53 2023.
