1.839890000000000114e+01 1.272940000000000005e+01 1.598569999999999958e+01 2.036220000000000141e+01 1.490329999999999977e+01 1.484379999999999988e+01 1.826409999999999911e+01 1.714699999999999847e+01 1.440320000000000000e+01 1.613090000000000046e+01 1.735719999999999885e+01 1.661270000000000024e+01 1.386139999999999972e+01 1.555119999999999969e+01 1.567650000000000077e+01 1.141890000000000072e+01 1.456719999999999970e+01 1.412620000000000076e+01 8.989110000000000156e+00 1.517009999999999970e+01 1.577740000000000009e+01
1.825130000000000052e+01 1.270059999999999967e+01 1.597799999999999976e+01 2.046950000000000003e+01 1.484079999999999977e+01 1.476360000000000028e+01 1.822340000000000160e+01 1.715360000000000085e+01 1.430470000000000041e+01 1.618220000000000169e+01 1.748270000000000124e+01 1.677090000000000103e+01 1.394110000000000049e+01 1.561120000000000019e+01 1.566610000000000014e+01 1.141159999999999997e+01 1.447910000000000075e+01 1.414949999999999974e+01 8.946310000000000429e+00 1.515740000000000087e+01 1.579279999999999973e+01
1.811779999999999902e+01 1.268609999999999971e+01 1.596090000000000053e+01 2.057369999999999877e+01 1.476370000000000005e+01 1.468890000000000029e+01 1.817909999999999826e+01 1.714959999999999951e+01 1.420359999999999978e+01 1.622510000000000119e+01 1.762679999999999936e+01 1.694519999999999982e+01 1.404020000000000046e+01 1.566869999999999941e+01 1.566039999999999921e+01 1.139910000000000068e+01 1.438109999999999999e+01 1.414819999999999922e+01 8.890520000000000422e+00 1.514959999999999951e+01 1.581830000000000069e+01
1.727309999999999945e+01 1.341310000000000002e+01 1.531550000000000011e+01 2.061659999999999826e+01 1.401939999999999920e+01 1.404759999999999920e+01 1.781319999999999837e+01 1.675100000000000122e+01 1.481959999999999944e+01 1.681690000000000040e+01 1.869709999999999894e+01 1.723710000000000164e+01 1.511849999999999916e+01 1.568340000000000067e+01 1.567900000000000027e+01 1.120049999999999990e+01 1.401810000000000045e+01 1.464150000000000063e+01 8.586679999999999424e+00 1.484350000000000058e+01 1.568510000000000026e+01
1.717030000000000101e+01 1.377909999999999968e+01 1.472220000000000084e+01 2.055499999999999972e+01 1.356620000000000026e+01 1.382409999999999961e+01 1.827009999999999934e+01 1.681330000000000169e+01 1.520860000000000056e+01 1.692460000000000164e+01 1.909740000000000038e+01 1.695090000000000074e+01 1.451309999999999967e+01 1.529889999999999972e+01 1.602120000000000033e+01 1.153889999999999993e+01 1.427130000000000010e+01 1.518110000000000070e+01 8.453340000000000742e+00 1.459929999999999950e+01 1.551750000000000007e+01
1.719490000000000052e+01 1.380739999999999945e+01 1.461110000000000042e+01 2.049569999999999936e+01 1.352970000000000006e+01 1.381140000000000079e+01 1.830620000000000047e+01 1.678030000000000044e+01 1.527169999999999916e+01 1.694940000000000069e+01 1.916349999999999909e+01 1.690769999999999840e+01 1.448429999999999929e+01 1.529240000000000066e+01 1.609380000000000166e+01 1.149760000000000026e+01 1.429049999999999976e+01 1.524000000000000021e+01 8.497400000000000730e+00 1.456170000000000009e+01 1.548980000000000068e+01
1.656409999999999982e+01 1.436950000000000038e+01 1.356729999999999947e+01 1.962369999999999948e+01 1.340000000000000036e+01 1.381010000000000026e+01 1.840399999999999991e+01 1.612300000000000111e+01 1.625809999999999889e+01 1.687059999999999960e+01 1.892760000000000176e+01 1.605249999999999844e+01 1.546700000000000053e+01 1.597630000000000017e+01 1.659009999999999962e+01 1.160289999999999999e+01 1.444689999999999941e+01 1.586239999999999917e+01 8.893140000000000711e+00 1.418219999999999992e+01 1.528509999999999991e+01
1.606419999999999959e+01 1.544130000000000003e+01 1.461350000000000016e+01 1.743469999999999942e+01 1.299109999999999943e+01 1.334950000000000081e+01 1.905910000000000082e+01 1.531719999999999970e+01 1.570800000000000018e+01 1.754769999999999897e+01 1.840490000000000137e+01 1.517769999999999975e+01 1.532719999999999949e+01 1.767460000000000164e+01 1.740909999999999869e+01 1.209859999999999935e+01 1.424099999999999966e+01 1.637630000000000052e+01 9.893990000000000506e+00 1.335539999999999949e+01 1.479129999999999967e+01
1.505030000000000001e+01 1.622550000000000026e+01 1.370989999999999931e+01 1.656869999999999976e+01 1.295079999999999920e+01 1.398029999999999973e+01 1.867930000000000135e+01 1.521739999999999959e+01 1.373409999999999975e+01 1.829100000000000037e+01 1.733449999999999847e+01 1.645779999999999887e+01 1.519089999999999918e+01 1.757120000000000104e+01 1.709590000000000032e+01 1.250629999999999953e+01 1.538649999999999984e+01 1.691730000000000089e+01 1.113899999999999935e+01 1.273949999999999960e+01 1.553040000000000020e+01
1.503509999999999991e+01 1.620540000000000092e+01 1.359239999999999959e+01 1.653669999999999973e+01 1.294720000000000049e+01 1.399319999999999986e+01 1.869050000000000011e+01 1.535009999999999941e+01 1.373939999999999984e+01 1.828559999999999874e+01 1.717589999999999861e+01 1.644549999999999912e+01 1.513059999999999938e+01 1.751770000000000138e+01 1.713169999999999860e+01 1.257699999999999996e+01 1.545689999999999920e+01 1.687399999999999878e+01 1.116999999999999993e+01 1.277229999999999954e+01 1.564939999999999998e+01
1.486209999999999987e+01 1.664290000000000092e+01 1.433549999999999969e+01 1.716430000000000078e+01 1.321599999999999930e+01 1.380930000000000035e+01 1.860490000000000066e+01 1.590189999999999948e+01 1.285940000000000083e+01 1.773389999999999844e+01 1.516450000000000031e+01 1.622779999999999845e+01 1.537630000000000052e+01 1.764420000000000144e+01 1.717099999999999937e+01 1.223090000000000011e+01 1.570700000000000074e+01 1.584709999999999930e+01 1.145309999999999917e+01 1.314910000000000068e+01 1.717530000000000001e+01
