-3.091497553804208292e+04
-3.091506008844508688e+04
-3.091509345967283662e+04
-3.091517008149422691e+04
-3.091523203583420400e+04
-3.091523560814498705e+04
-3.091514346794213270e+04
-3.091519191454998145e+04
-3.091532361140079229e+04
-3.091531063374646692e+04
-3.091515699744338053e+04
