-5.984942442675111191e-02 6.617145909056052280e-03 -1.124199523580933328e-02 1.982288819530530211e-01 -1.052793812241957644e-01 1.136592241842727773e-02 -4.145508240359212226e-02 6.279482902972759184e-02 -1.377118448242567739e-01 1.949256311825088009e-03 1.327974378355442908e-01 1.876204065885520300e-01 9.875818889305053305e-02 6.644245338616076163e-03 9.914873949553322519e-02 -1.050142490442878135e-01 -1.282741985141242491e-01 -2.241856617516853611e-01 -9.261751986123011038e-02 2.469987020330850422e-02 7.500443330923894925e-02
9.321278171433605708e-03 9.506978683710862188e-02 -5.762387734637571673e-02 3.749784577888398696e-02 -9.406150293803282325e-02 3.023895246772338383e-02 -4.079307470690190368e-02 -2.864661672625147190e-02 -2.952439141807235504e-02 2.480389704581311208e-02 8.895560017003850684e-02 9.050978073744297969e-02 9.851532246835983941e-02 2.329471078745042056e-02 6.570326116618857570e-02 -7.550060483831802505e-02 -1.045113926464368431e-01 -1.467373946856340150e-01 -5.384466391927062584e-02 1.989946593819104728e-02 4.743361765665968927e-02
5.302417341061837347e-02 1.446956814964865112e-01 -8.735493405363543851e-02 -8.412084596384687696e-02 -6.673818169621711927e-02 3.535740222018191742e-02 -3.626129932228077529e-02 -8.824823820983417055e-02 8.162229912723965863e-02 3.496376629365064576e-02 3.965808683356443487e-02 -1.932091625701490289e-02 8.542681221154312110e-02 2.555388789995532636e-02 3.956634986518667296e-02 -5.930846427690016770e-02 -6.073918046029398027e-02 -5.624499460699804165e-02 6.275806225148201391e-03 5.817944136338995022e-03 6.374742282972653204e-03
2.499388615851789175e-01 -1.734984156195961136e-01 -1.265657003222233068e-01 -2.031625207950016609e-01 3.546816535352591976e-02 5.929632866897575211e-02 3.830489455909793506e-01 2.606168081628404756e-02 -7.787296192133831563e-02 -7.969186329211092046e-02 -1.747640669663909352e-02 -4.304921791742570558e-02 -4.327866832471182201e-01 1.179845399679764761e-01 1.717213718117492349e-01 2.351113084283803500e-01 -4.247498768991757323e-02 -4.607504663393515582e-02 -1.524579968482403514e-01 5.393552671250129160e-02 6.254522631419751066e-02
1.699243248196540823e-01 -1.922813027846062284e-01 -1.141671199447364671e-01 -2.155859894531470533e-01 8.208905723372228458e-02 6.509941182781407709e-02 5.716596383549904514e-02 -3.330674159129351497e-02 -6.998491961460486660e-03 -8.333532246107851205e-02 -3.317782646813036140e-02 7.538166559624527065e-03 1.104423110650213230e-01 2.298196177305940613e-01 7.931231701206814533e-02 9.440063147303919336e-03 -6.246300242830285510e-02 -3.990295871888670243e-02 -4.805145379738774009e-02 9.320249730084079198e-03 9.118675225576883259e-03
8.791672014081430842e-02 -1.797154978436863448e-01 -8.945120605637534028e-02 -1.697150884270929028e-01 8.167922335593595651e-02 5.251247241716145570e-02 4.650529507250957678e-02 -5.513165542406810865e-03 1.108762618924540207e-02 -7.233691355890453645e-02 -4.801556119428926350e-02 -2.716113604099537246e-04 1.494127820122923278e-01 2.008896654125480463e-01 5.766542637689659606e-02 1.017807265972414943e-01 -6.638131254793142033e-02 -4.798501648620832893e-02 -1.435635218368602473e-01 1.705669978189731928e-02 1.644220607555522268e-02
-5.642476615489527836e-02 -2.440691868489587579e-02 1.050720474481312006e-01 1.957915787988101508e-02 5.132966202107099724e-02 5.099526431627245809e-02 4.391109290598291248e-01 -8.421510261353097604e-02 -1.941167106390387087e-01 2.285428077951568923e-02 1.139530498778325157e-01 6.449273427572839446e-02 -5.279655362893440618e-01 -7.893745014016573247e-02 -1.176197518212994050e-02 5.268603732151428964e-01 6.440269423557734574e-02 6.781634818499324147e-02 -4.240143870680618265e-01 -4.212593469588827438e-02 -8.249770840395663496e-02
-3.413984079089096291e-01 3.740343486299745057e-02 1.076700959853051087e-01 1.192906090598076646e-01 -1.141962762569955353e-01 2.499112479349441598e-03 9.464370358599978605e-02 -1.140505461177676247e-02 -1.000381869966712467e-01 1.486566719321204266e-01 1.043826317894760991e-01 5.997869950438659142e-02 -1.073681970271515851e-01 -7.468782763978720762e-02 -4.939953471834710591e-02 3.292327180750230786e-01 1.588701229742682797e-01 1.435807482294647885e-01 -2.430570462948222488e-01 -1.003670825402498135e-01 -1.642908830614201454e-01
3.855791169990844397e-02 -1.429260424663562346e-01 2.283836050742501789e-01 -1.986675121886261053e-01 -5.178767837608263917e-03 -3.938626978488458247e-02 5.996337572827865198e-02 1.211460200984884744e-01 1.946736630518747929e-02 1.116771605933978007e-01 -2.391691780391396512e-03 -4.410990090325988405e-02 -8.017919022558404885e-02 4.978108645902144108e-02 -4.183961662418009264e-02 2.445319854562456874e-02 -5.812333988777328153e-02 -1.456528518604908451e-01 4.419505584700067491e-02 3.769273541461926058e-02 2.313756494924277055e-02
4.175405030389948285e-02 -1.556814405700613080e-01 2.384507603344279136e-01 -1.520374157583514740e-01 7.402458581347755306e-02 -5.437636809697583146e-02 1.220837014989192663e-02 1.270083929011270145e-02 -3.162056057667730902e-02 5.607329632369459360e-02 4.124029242774351206e-02 2.819893620680258284e-02 2.188065535391893468e-02 9.546218863402046451e-02 -5.411015605365090270e-02 -2.184681963351951112e-02 -8.694602577306369262e-02 -1.317684822653430177e-01 4.196791468253352475e-02 1.919945733363581999e-02 5.225870451416577377e-03
2.346695414466912211e-01 2.798244930272724904e-02 -2.961385553106766766e-01 -2.525697688234701879e-02 -1.329927902698868625e-01 -9.326574644383667234e-02 -1.124545079874374326e-01 2.398037263517975234e-02 -6.131495334982639545e-02 -3.580513416169828905e-02 1.222672268577422727e-01 2.197453662251046269e-01 5.145585177465790416e-02 3.247175005961293326e-02 1.554737982615919112e-01 -7.351093078145654047e-02 9.910240821273705314e-02 3.317618096197112038e-02 -3.909784340840986167e-02 -1.728114167981124050e-01 4.232390965567212754e-02
