 Set GAUSS_MDEF to "14GB".
 Entering Gaussian System, Link 0=g16
 Initial command:
 /home/sekinelabo/g16/l1.exe "/home/sekinelabo/g16temp/Gau-1879212.inp" -scrdir="/home/sekinelabo/g16temp/"
 Entering Link 1 = /home/sekinelabo/g16/l1.exe PID=   1879214.
  
 Copyright (c) 1988-2017, Gaussian, Inc.  All Rights Reserved.
  
 This is part of the Gaussian(R) 16 program.  It is based on
 the Gaussian(R) 09 system (copyright 2009, Gaussian, Inc.),
 the Gaussian(R) 03 system (copyright 2003, Gaussian, Inc.),
 the Gaussian(R) 98 system (copyright 1998, Gaussian, Inc.),
 the Gaussian(R) 94 system (copyright 1995, Gaussian, Inc.),
 the Gaussian 92(TM) system (copyright 1992, Gaussian, Inc.),
 the Gaussian 90(TM) system (copyright 1990, Gaussian, Inc.),
 the Gaussian 88(TM) system (copyright 1988, Gaussian, Inc.),
 the Gaussian 86(TM) system (copyright 1986, Carnegie Mellon
 University), and the Gaussian 82(TM) system (copyright 1983,
 Carnegie Mellon University). Gaussian is a federally registered
 trademark of Gaussian, Inc.
  
 This software contains proprietary and confidential information,
 including trade secrets, belonging to Gaussian, Inc.
  
 This software is provided under written license and may be
 used, copied, transmitted, or stored only in accord with that
 written license.
  
 The following legend is applicable only to US Government
 contracts under FAR:
  
                    RESTRICTED RIGHTS LEGEND
  
 Use, reproduction and disclosure by the US Government is
 subject to restrictions as set forth in subparagraphs (a)
 and (c) of the Commercial Computer Software - Restricted
 Rights clause in FAR 52.227-19.
  
 Gaussian, Inc.
 340 Quinnipiac St., Bldg. 40, Wallingford CT 06492
  
  
 ---------------------------------------------------------------
 Warning -- This program may not be used in any manner that
 competes with the business of Gaussian, Inc. or will provide
 assistance to any competitor of Gaussian, Inc.  The licensee
 of this program is prohibited from giving any competitor of
 Gaussian, Inc. access to this program.  By using this program,
 the user acknowledges that Gaussian, Inc. is engaged in the
 business of creating and licensing software in the field of
 computational chemistry and represents and warrants to the
 licensee that it is not a competitor of Gaussian, Inc. and that
 it will not use this program in any manner prohibited above.
 ---------------------------------------------------------------
  

 Cite this work as:
 Gaussian 16, Revision B.01,
 M. J. Frisch, G. W. Trucks, H. B. Schlegel, G. E. Scuseria, 
 M. A. Robb, J. R. Cheeseman, G. Scalmani, V. Barone, 
 G. A. Petersson, H. Nakatsuji, X. Li, M. Caricato, A. V. Marenich, 
 J. Bloino, B. G. Janesko, R. Gomperts, B. Mennucci, H. P. Hratchian, 
 J. V. Ortiz, A. F. Izmaylov, J. L. Sonnenberg, D. Williams-Young, 
 F. Ding, F. Lipparini, F. Egidi, J. Goings, B. Peng, A. Petrone, 
 T. Henderson, D. Ranasinghe, V. G. Zakrzewski, J. Gao, N. Rega, 
 G. Zheng, W. Liang, M. Hada, M. Ehara, K. Toyota, R. Fukuda, 
 J. Hasegawa, M. Ishida, T. Nakajima, Y. Honda, O. Kitao, H. Nakai, 
 T. Vreven, K. Throssell, J. A. Montgomery, Jr., J. E. Peralta, 
 F. Ogliaro, M. J. Bearpark, J. J. Heyd, E. N. Brothers, K. N. Kudin, 
 V. N. Staroverov, T. A. Keith, R. Kobayashi, J. Normand, 
 K. Raghavachari, A. P. Rendell, J. C. Burant, S. S. Iyengar, 
 J. Tomasi, M. Cossi, J. M. Millam, M. Klene, C. Adamo, R. Cammi, 
 J. W. Ochterski, R. L. Martin, K. Morokuma, O. Farkas, 
 J. B. Foresman, and D. J. Fox, Gaussian, Inc., Wallingford CT, 2016.
 
 ******************************************
 Gaussian 16:  ES64L-G16RevB.01 20-Dec-2017
                 7-Dec-2023 
 ******************************************
 %nproc=15
 Will use up to   15 processors via shared memory.
 -------------------------
 #P B3LYP/6-311+g(d) force
 -------------------------
 1/10=7,30=1,38=1/1,3;
 2/12=2,17=6,18=5,40=1/2;
 3/5=4,6=6,7=11,11=2,25=1,30=1,71=1,74=-5/1,2,3;
 4//1;
 5/5=2,38=5/2;
 6/7=2,8=2,9=2,10=2,28=1/1;
 7/29=1/1,2,3,16;
 1/10=7,30=1/3;
 99//99;
 Leave Link    1 at Thu Dec  7 21:35:21 2023, MaxMem=           0 cpu:               0.3 elap:               0.0
 (Enter /home/sekinelabo/g16/l101.exe)
 -----
 DPGEN
 -----
 Symbolic Z-matrix:
 Charge =  0 Multiplicity = 2
 Na                    13.3048   10.1505   12.2467 
 Na                    10.6032   12.4961   12.2851 
 Na                    14.0455   13.2164   13.4473 
 Na                    12.4052   9.98054   9.31271 
 Na                    11.9083   12.8458   16.179 
 Na                    11.9235   15.8007   14.1383 
 Na                    13.5878   13.2884   10.1694 
 
 ITRead=  0  0  0  0  0  0  0
 MicOpt= -1 -1 -1 -1 -1 -1 -1
 NAtoms=      7 NQM=        7 NQMF=       0 NMMI=      0 NMMIF=      0
                NMic=       0 NMicF=      0.
                    Isotopes and Nuclear Properties:
 (Nuclear quadrupole moments (NQMom) in fm**2, nuclear magnetic moments (NMagM)
  in nuclear magnetons)

  Atom         1           2           3           4           5           6           7
 IAtWgt=          23          23          23          23          23          23          23
 AtmWgt=  22.9897697  22.9897697  22.9897697  22.9897697  22.9897697  22.9897697  22.9897697
 NucSpn=           3           3           3           3           3           3           3
 AtZEff=  -0.0000000  -0.0000000  -0.0000000  -0.0000000  -0.0000000  -0.0000000  -0.0000000
 NQMom=   10.4000000  10.4000000  10.4000000  10.4000000  10.4000000  10.4000000  10.4000000
 NMagM=    2.2175200   2.2175200   2.2175200   2.2175200   2.2175200   2.2175200   2.2175200
 AtZNuc=  11.0000000  11.0000000  11.0000000  11.0000000  11.0000000  11.0000000  11.0000000
 Leave Link  101 at Thu Dec  7 21:35:21 2023, MaxMem=  1879048192 cpu:               2.4 elap:               0.2
 (Enter /home/sekinelabo/g16/l103.exe)

 GradGradGradGradGradGradGradGradGradGradGradGradGradGradGradGradGradGrad
 Berny optimization.
 Initialization pass.
 Trust Radius=3.00D-01 FncErr=1.00D-07 GrdErr=1.00D-07 EigMax=2.50D+02 EigMin=1.00D-04
 Number of steps in this run=      2 maximum allowed number of steps=      2.
 GradGradGradGradGradGradGradGradGradGradGradGradGradGradGradGradGradGrad

 Leave Link  103 at Thu Dec  7 21:35:21 2023, MaxMem=  1879048192 cpu:               0.2 elap:               0.0
 (Enter /home/sekinelabo/g16/l202.exe)
                          Input orientation:                          
 ---------------------------------------------------------------------
 Center     Atomic      Atomic             Coordinates (Angstroms)
 Number     Number       Type             X           Y           Z
 ---------------------------------------------------------------------
      1         11           0       13.304800   10.150500   12.246700
      2         11           0       10.603200   12.496100   12.285100
      3         11           0       14.045500   13.216400   13.447300
      4         11           0       12.405200    9.980540    9.312710
      5         11           0       11.908300   12.845800   16.179000
      6         11           0       11.923500   15.800700   14.138300
      7         11           0       13.587800   13.288400   10.169400
 ---------------------------------------------------------------------
                    Distance matrix (angstroms):
                    1          2          3          4          5
     1  Na   0.000000
     2  Na   3.577982   0.000000
     3  Na   3.374881   3.703913   0.000000
     4  Na   3.073510   4.290728   5.500564   0.000000
     5  Na   4.967679   4.121654   3.488145   7.456713   0.000000
     6  Na   6.116445   4.012222   3.414524   7.575791   3.591117
     7  Na   3.773815   3.743229   3.310484   3.615854   6.255550
                    6          7
     6  Na   0.000000
     7  Na   4.983344   0.000000
 Stoichiometry    Na7(2)
 Framework group  C1[X(Na7)]
 Deg. of freedom    15
 Full point group                 C1      NOp   1
 Largest Abelian subgroup         C1      NOp   1
 Largest concise Abelian subgroup C1      NOp   1
                         Standard orientation:                         
 ---------------------------------------------------------------------
 Center     Atomic      Atomic             Coordinates (Angstroms)
 Number     Number       Type             X           Y           Z
 ---------------------------------------------------------------------
      1         11           0       -1.724012   -1.666750   -0.793450
      2         11           0       -0.008542   -0.137424    1.948863
      3         11           0        0.952478    0.219764   -1.610326
      4         11           0       -4.073271   -0.236424    0.578269
      5         11           0        3.169438   -1.921034    0.023452
      6         11           0        3.264975    1.642110    0.460486
      7         11           0       -1.581066    2.099759   -0.607294
 ---------------------------------------------------------------------
 Rotational constants (GHZ):           1.0161406           0.4259173           0.3831539
 Leave Link  202 at Thu Dec  7 21:35:21 2023, MaxMem=  1879048192 cpu:               0.0 elap:               0.0
 (Enter /home/sekinelabo/g16/l301.exe)
 Standard basis: 6-311+G(d) (5D, 7F)
 Ernie: Thresh=  0.10000D-02 Tol=  0.10000D-05 Strict=F.
 There are   217 symmetry adapted cartesian basis functions of A   symmetry.
 There are   210 symmetry adapted basis functions of A   symmetry.
   210 basis functions,   350 primitive gaussians,   217 cartesian basis functions
    39 alpha electrons       38 beta electrons
       nuclear repulsion energy       322.5897060085 Hartrees.
 IExCor=  402 DFT=T Ex+Corr=B3LYP ExCW=0 ScaHFX=  0.200000
 ScaDFX=  0.800000  0.720000  1.000000  0.810000 ScalE2=  1.000000  1.000000
 IRadAn=      5 IRanWt=     -1 IRanGd=            0 ICorTp=0 IEmpDi=  4
 NAtoms=    7 NActive=    7 NUniq=    7 SFac= 1.00D+00 NAtFMM=   60 NAOKFM=F Big=F
 Integral buffers will be    131072 words long.
 Raffenetti 2 integral format.
 Two-electron integral symmetry is turned on.
 Leave Link  301 at Thu Dec  7 21:35:21 2023, MaxMem=  1879048192 cpu:               0.5 elap:               0.0
 (Enter /home/sekinelabo/g16/l302.exe)
 NPDir=0 NMtPBC=     1 NCelOv=     1 NCel=       1 NClECP=     1 NCelD=      1
         NCelK=      1 NCelE2=     1 NClLst=     1 CellRange=     0.0.
 One-electron integrals computed using PRISM.
 One-electron integral symmetry used in STVInt
 NBasis=   210 RedAO= T EigKep=  8.38D-06  NBF=   210
 NBsUse=   210 1.00D-06 EigRej= -1.00D+00 NBFU=   210
 Precomputing XC quadrature grid using
 IXCGrd= 4 IRadAn=           5 IRanWt=          -1 IRanGd=           0 AccXCQ= 0.00D+00.
 Generated NRdTot=       0 NPtTot=           0 NUsed=           0 NTot=          32
 NSgBfM=   211   211   211   211   211 MxSgAt=     7 MxSgA2=     7.
 Leave Link  302 at Thu Dec  7 21:35:21 2023, MaxMem=  1879048192 cpu:               2.0 elap:               0.1
 (Enter /home/sekinelabo/g16/l303.exe)
 DipDrv:  MaxL=1.
 Leave Link  303 at Thu Dec  7 21:35:21 2023, MaxMem=  1879048192 cpu:               0.5 elap:               0.0
 (Enter /home/sekinelabo/g16/l401.exe)
 ExpMin= 7.60D-03 ExpMax= 3.62D+04 ExpMxC= 1.21D+03 IAcc=3 IRadAn=         5 AccDes= 0.00D+00
 Harris functional with IExCor=  402 and IRadAn=       5 diagonalized for initial guess.
 HarFok:  IExCor=  402 AccDes= 0.00D+00 IRadAn=         5 IDoV= 1 UseB2=F ITyADJ=14
 ICtDFT=  3500011 ScaDFX=  1.000000  1.000000  1.000000  1.000000
 FoFCou: FMM=F IPFlag=           0 FMFlag=      100000 FMFlg1=           0
         NFxFlg=           0 DoJE=T BraDBF=F KetDBF=T FulRan=T
         wScrn=  0.000000 ICntrl=       500 IOpCl=  0 I1Cent=   200000004 NGrid=           0
         NMat0=    1 NMatS0=      1 NMatT0=    0 NMatD0=    1 NMtDS0=    0 NMtDT0=    0
 Petite list used in FoFCou.
 Harris En= -1135.88337231334    
 JPrj=0 DoOrth=F DoCkMO=F.
 Initial guess <Sx>= 0.0000 <Sy>= 0.0000 <Sz>= 0.5000 <S**2>= 0.7500 S= 0.5000
 Leave Link  401 at Thu Dec  7 21:35:22 2023, MaxMem=  1879048192 cpu:               4.4 elap:               0.3
 (Enter /home/sekinelabo/g16/l502.exe)
 Keep R1 and R2 ints in memory in canonical form, NReq=506573321.
 FoFCou: FMM=F IPFlag=           0 FMFlag=           0 FMFlg1=           0
         NFxFlg=           0 DoJE=F BraDBF=F KetDBF=F FulRan=T
         wScrn=  0.000000 ICntrl=       600 IOpCl=  0 I1Cent=           0 NGrid=           0
         NMat0=    1 NMatS0=  22155 NMatT0=    0 NMatD0=    1 NMtDS0=    0 NMtDT0=    0
 Symmetry not used in FoFCou.
 Two-electron integral symmetry not used.
 UHF open shell SCF:
 Using DIIS extrapolation, IDIIS=  1040.
 NGot=  1879048192 LenX=  1388082579 LenY=  1388035049
 Requested convergence on RMS density matrix=1.00D-08 within 128 cycles.
 Requested convergence on MAX density matrix=1.00D-06.
 Requested convergence on             energy=1.00D-06.
 No special actions if energy rises.

 Cycle   1  Pass 1  IDiag  1:
 E= -1136.07382879836    
 DIIS: error= 1.12D-02 at cycle   1 NSaved=   1.
 NSaved= 1 IEnMin= 1 EnMin= -1136.07382879836     IErMin= 1 ErrMin= 1.12D-02
 ErrMax= 1.12D-02  0.00D+00 EMaxC= 1.00D-01 BMatC= 1.95D-01 BMatP= 1.95D-01
 IDIUse=3 WtCom= 8.88D-01 WtEn= 1.12D-01
 Coeff-Com:  0.100D+01
 Coeff-En:   0.100D+01
 Coeff:      0.100D+01
 Gap=     0.022 Goal=   None    Shift=    0.000
 Gap=     0.030 Goal=   None    Shift=    0.000
 GapD=    0.022 DampG=0.250 DampE=0.500 DampFc=0.2500 IDamp=-1.
 Damping current iteration by 2.50D-01
 RMSDP=1.07D-02 MaxDP=5.39D-01              OVMax= 3.46D-01

 Cycle   2  Pass 1  IDiag  1:
 E= -1136.08670014048     Delta-E=       -0.012871342124 Rises=F Damp=T
 DIIS: error= 7.91D-03 at cycle   2 NSaved=   2.
 NSaved= 2 IEnMin= 2 EnMin= -1136.08670014048     IErMin= 2 ErrMin= 7.91D-03
 ErrMax= 7.91D-03  0.00D+00 EMaxC= 1.00D-01 BMatC= 7.30D-02 BMatP= 1.95D-01
 IDIUse=3 WtCom= 9.21D-01 WtEn= 7.91D-02
 Coeff-Com: -0.119D+01 0.219D+01
 Coeff-En:   0.000D+00 0.100D+01
 Coeff:     -0.110D+01 0.210D+01
 Gap=     0.035 Goal=   None    Shift=    0.000
 Gap=     0.027 Goal=   None    Shift=    0.000
 RMSDP=6.00D-03 MaxDP=4.03D-01 DE=-1.29D-02 OVMax= 3.49D-01

 Cycle   3  Pass 1  IDiag  1:
 E= -1136.09482353170     Delta-E=       -0.008123391219 Rises=F Damp=F
 DIIS: error= 5.99D-03 at cycle   3 NSaved=   3.
 NSaved= 3 IEnMin= 3 EnMin= -1136.09482353170     IErMin= 3 ErrMin= 5.99D-03
 ErrMax= 5.99D-03  0.00D+00 EMaxC= 1.00D-01 BMatC= 1.37D-02 BMatP= 7.30D-02
 IDIUse=3 WtCom= 9.40D-01 WtEn= 5.99D-02
 Coeff-Com: -0.537D+00 0.948D+00 0.589D+00
 Coeff-En:   0.000D+00 0.177D+00 0.823D+00
 Coeff:     -0.505D+00 0.901D+00 0.603D+00
 Gap=     0.026 Goal=   None    Shift=    0.000
 Gap=     0.031 Goal=   None    Shift=    0.000
 RMSDP=4.74D-03 MaxDP=2.19D-01 DE=-8.12D-03 OVMax= 3.31D-01

 Cycle   4  Pass 1  IDiag  1:
 E= -1136.08462793454     Delta-E=        0.010195597162 Rises=F Damp=F
 DIIS: error= 7.73D-03 at cycle   4 NSaved=   4.
 NSaved= 4 IEnMin= 3 EnMin= -1136.09482353170     IErMin= 3 ErrMin= 5.99D-03
 ErrMax= 7.73D-03  0.00D+00 EMaxC= 1.00D-01 BMatC= 1.94D-02 BMatP= 1.37D-02
 IDIUse=3 WtCom= 1.02D-01 WtEn= 8.98D-01
 Coeff-Com: -0.915D-01 0.159D+00 0.522D+00 0.411D+00
 Coeff-En:   0.000D+00 0.000D+00 0.582D+00 0.418D+00
 Coeff:     -0.934D-02 0.162D-01 0.576D+00 0.418D+00
 Gap=     0.026 Goal=   None    Shift=    0.000
 Gap=     0.026 Goal=   None    Shift=    0.000
 RMSDP=2.65D-03 MaxDP=1.63D-01 DE= 1.02D-02 OVMax= 2.16D-01

 Cycle   5  Pass 1  IDiag  1:
 E= -1136.10995971318     Delta-E=       -0.025331778642 Rises=F Damp=F
 DIIS: error= 2.46D-03 at cycle   5 NSaved=   5.
 NSaved= 5 IEnMin= 5 EnMin= -1136.10995971318     IErMin= 5 ErrMin= 2.46D-03
 ErrMax= 2.46D-03  0.00D+00 EMaxC= 1.00D-01 BMatC= 1.97D-03 BMatP= 1.37D-02
 IDIUse=3 WtCom= 9.75D-01 WtEn= 2.46D-02
 Coeff-Com:  0.829D-02-0.117D-01 0.328D+00 0.262D+00 0.414D+00
 Coeff-En:   0.000D+00 0.000D+00 0.000D+00 0.259D-02 0.997D+00
 Coeff:      0.809D-02-0.114D-01 0.320D+00 0.255D+00 0.428D+00
 Gap=     0.028 Goal=   None    Shift=    0.000
 Gap=     0.028 Goal=   None    Shift=    0.000
 RMSDP=1.43D-03 MaxDP=6.76D-02 DE=-2.53D-02 OVMax= 4.91D-02

 Cycle   6  Pass 1  IDiag  1:
 E= -1136.11193333403     Delta-E=       -0.001973620844 Rises=F Damp=F
 DIIS: error= 4.45D-04 at cycle   6 NSaved=   6.
 NSaved= 6 IEnMin= 6 EnMin= -1136.11193333403     IErMin= 6 ErrMin= 4.45D-04
 ErrMax= 4.45D-04  0.00D+00 EMaxC= 1.00D-01 BMatC= 6.18D-05 BMatP= 1.97D-03
 IDIUse=3 WtCom= 9.96D-01 WtEn= 4.45D-03
 Coeff-Com: -0.234D-02 0.211D-02-0.534D-03-0.247D-01 0.123D+00 0.903D+00
 Coeff-En:   0.000D+00 0.000D+00 0.000D+00 0.000D+00 0.000D+00 0.100D+01
 Coeff:     -0.233D-02 0.210D-02-0.532D-03-0.246D-01 0.122D+00 0.903D+00
 Gap=     0.028 Goal=   None    Shift=    0.000
 Gap=     0.029 Goal=   None    Shift=    0.000
 RMSDP=3.18D-04 MaxDP=1.39D-02 DE=-1.97D-03 OVMax= 1.55D-02

 Cycle   7  Pass 1  IDiag  1:
 E= -1136.11202802937     Delta-E=       -0.000094695343 Rises=F Damp=F
 DIIS: error= 1.36D-04 at cycle   7 NSaved=   7.
 NSaved= 7 IEnMin= 7 EnMin= -1136.11202802937     IErMin= 7 ErrMin= 1.36D-04
 ErrMax= 1.36D-04  0.00D+00 EMaxC= 1.00D-01 BMatC= 4.51D-06 BMatP= 6.18D-05
 IDIUse=3 WtCom= 9.99D-01 WtEn= 1.36D-03
 Coeff-Com: -0.886D-03 0.776D-03-0.931D-02-0.199D-01 0.380D-01 0.375D+00
 Coeff-Com:  0.617D+00
 Coeff-En:   0.000D+00 0.000D+00 0.000D+00 0.000D+00 0.000D+00 0.000D+00
 Coeff-En:   0.100D+01
 Coeff:     -0.884D-03 0.775D-03-0.930D-02-0.198D-01 0.380D-01 0.374D+00
 Coeff:      0.617D+00
 Gap=     0.028 Goal=   None    Shift=    0.000
 Gap=     0.029 Goal=   None    Shift=    0.000
 RMSDP=9.12D-05 MaxDP=4.88D-03 DE=-9.47D-05 OVMax= 4.40D-03

 Cycle   8  Pass 1  IDiag  1:
 E= -1136.11203755607     Delta-E=       -0.000009526696 Rises=F Damp=F
 DIIS: error= 6.66D-05 at cycle   8 NSaved=   8.
 NSaved= 8 IEnMin= 8 EnMin= -1136.11203755607     IErMin= 8 ErrMin= 6.66D-05
 ErrMax= 6.66D-05  0.00D+00 EMaxC= 1.00D-01 BMatC= 1.31D-06 BMatP= 4.51D-06
 IDIUse=1 WtCom= 1.00D+00 WtEn= 0.00D+00
 Coeff-Com:  0.557D-03-0.836D-03-0.640D-02-0.457D-02-0.159D-01-0.516D-01
 Coeff-Com:  0.281D+00 0.797D+00
 Coeff:      0.557D-03-0.836D-03-0.640D-02-0.457D-02-0.159D-01-0.516D-01
 Coeff:      0.281D+00 0.797D+00
 Gap=     0.028 Goal=   None    Shift=    0.000
 Gap=     0.029 Goal=   None    Shift=    0.000
 RMSDP=8.07D-05 MaxDP=5.03D-03 DE=-9.53D-06 OVMax= 7.40D-03

 Cycle   9  Pass 1  IDiag  1:
 E= -1136.11204453317     Delta-E=       -0.000006977104 Rises=F Damp=F
 DIIS: error= 4.74D-05 at cycle   9 NSaved=   9.
 NSaved= 9 IEnMin= 9 EnMin= -1136.11204453317     IErMin= 9 ErrMin= 4.74D-05
 ErrMax= 4.74D-05  0.00D+00 EMaxC= 1.00D-01 BMatC= 5.84D-07 BMatP= 1.31D-06
 IDIUse=1 WtCom= 1.00D+00 WtEn= 0.00D+00
 Coeff-Com:  0.170D-03-0.145D-03-0.213D-02 0.291D-02-0.170D-01-0.941D-01
 Coeff-Com: -0.169D+00 0.263D+00 0.102D+01
 Coeff:      0.170D-03-0.145D-03-0.213D-02 0.291D-02-0.170D-01-0.941D-01
 Coeff:     -0.169D+00 0.263D+00 0.102D+01
 Gap=     0.028 Goal=   None    Shift=    0.000
 Gap=     0.029 Goal=   None    Shift=    0.000
 RMSDP=9.00D-05 MaxDP=8.55D-03 DE=-6.98D-06 OVMax= 6.51D-03

 Cycle  10  Pass 1  IDiag  1:
 E= -1136.11205005268     Delta-E=       -0.000005519505 Rises=F Damp=F
 DIIS: error= 3.65D-05 at cycle  10 NSaved=  10.
 NSaved=10 IEnMin=10 EnMin= -1136.11205005268     IErMin=10 ErrMin= 3.65D-05
 ErrMax= 3.65D-05  0.00D+00 EMaxC= 1.00D-01 BMatC= 2.29D-07 BMatP= 5.84D-07
 IDIUse=1 WtCom= 1.00D+00 WtEn= 0.00D+00
 Coeff-Com: -0.568D-05 0.520D-04 0.113D-02 0.182D-02-0.242D-02-0.132D-01
 Coeff-Com: -0.145D+00-0.621D-01 0.207D+00 0.101D+01
 Coeff:     -0.568D-05 0.520D-04 0.113D-02 0.182D-02-0.242D-02-0.132D-01
 Coeff:     -0.145D+00-0.621D-01 0.207D+00 0.101D+01
 Gap=     0.028 Goal=   None    Shift=    0.000
 Gap=     0.029 Goal=   None    Shift=    0.000
 RMSDP=8.68D-05 MaxDP=9.65D-03 DE=-5.52D-06 OVMax= 5.43D-03

 Cycle  11  Pass 1  IDiag  1:
 E= -1136.11205420135     Delta-E=       -0.000004148676 Rises=F Damp=F
 DIIS: error= 2.89D-05 at cycle  11 NSaved=  11.
 NSaved=11 IEnMin=11 EnMin= -1136.11205420135     IErMin=11 ErrMin= 2.89D-05
 ErrMax= 2.89D-05  0.00D+00 EMaxC= 1.00D-01 BMatC= 1.82D-07 BMatP= 2.29D-07
 IDIUse=1 WtCom= 1.00D+00 WtEn= 0.00D+00
 Coeff-Com: -0.522D-04 0.836D-04 0.106D-02 0.285D-03 0.231D-02 0.133D-01
 Coeff-Com: -0.663D-01-0.705D-01-0.379D-01 0.488D+00 0.670D+00
 Coeff:     -0.522D-04 0.836D-04 0.106D-02 0.285D-03 0.231D-02 0.133D-01
 Coeff:     -0.663D-01-0.705D-01-0.379D-01 0.488D+00 0.670D+00
 Gap=     0.029 Goal=   None    Shift=    0.000
 Gap=     0.029 Goal=   None    Shift=    0.000
 RMSDP=5.69D-05 MaxDP=5.77D-03 DE=-4.15D-06 OVMax= 3.95D-03

 Cycle  12  Pass 1  IDiag  1:
 E= -1136.11205707714     Delta-E=       -0.000002875790 Rises=F Damp=F
 DIIS: error= 3.18D-05 at cycle  12 NSaved=  12.
 NSaved=12 IEnMin=12 EnMin= -1136.11205707714     IErMin=11 ErrMin= 2.89D-05
 ErrMax= 3.18D-05  0.00D+00 EMaxC= 1.00D-01 BMatC= 1.93D-07 BMatP= 1.82D-07
 IDIUse=1 WtCom= 1.00D+00 WtEn= 0.00D+00
 Coeff-Com: -0.110D-03 0.153D-03 0.282D-02-0.110D-03 0.878D-02 0.469D-01
 Coeff-Com: -0.857D-01-0.207D+00-0.349D+00 0.980D+00 0.281D+01-0.220D+01
 Coeff:     -0.110D-03 0.153D-03 0.282D-02-0.110D-03 0.878D-02 0.469D-01
 Coeff:     -0.857D-01-0.207D+00-0.349D+00 0.980D+00 0.281D+01-0.220D+01
 Gap=     0.028 Goal=   None    Shift=    0.000
 Gap=     0.029 Goal=   None    Shift=    0.000
 RMSDP=1.05D-04 MaxDP=1.00D-02 DE=-2.88D-06 OVMax= 8.29D-03

 Cycle  13  Pass 1  IDiag  1:
 E= -1136.11205199248     Delta-E=        0.000005084662 Rises=F Damp=F
 DIIS: error= 2.45D-05 at cycle  13 NSaved=  13.
 NSaved=13 IEnMin=12 EnMin= -1136.11205707714     IErMin=13 ErrMin= 2.45D-05
 ErrMax= 2.45D-05  0.00D+00 EMaxC= 1.00D-01 BMatC= 1.60D-07 BMatP= 1.82D-07
 IDIUse=1 WtCom= 1.00D+00 WtEn= 0.00D+00
 Coeff-Com: -0.137D-03 0.162D-03 0.318D-02-0.155D-02 0.142D-01 0.791D-01
 Coeff-Com: -0.367D-01-0.251D+00-0.564D+00 0.709D+00 0.329D+01-0.351D+01
 Coeff-Com:  0.127D+01
 Coeff:     -0.137D-03 0.162D-03 0.318D-02-0.155D-02 0.142D-01 0.791D-01
 Coeff:     -0.367D-01-0.251D+00-0.564D+00 0.709D+00 0.329D+01-0.351D+01
 Coeff:      0.127D+01
 Gap=     0.029 Goal=   None    Shift=    0.000
 Gap=     0.029 Goal=   None    Shift=    0.000
 RMSDP=1.10D-04 MaxDP=5.51D-03 DE= 5.08D-06 OVMax= 9.07D-03

 Cycle  14  Pass 1  IDiag  1:
 E= -1136.11204821328     Delta-E=        0.000003779204 Rises=F Damp=F
 DIIS: error= 2.20D-05 at cycle  14 NSaved=  14.
 NSaved=14 IEnMin=12 EnMin= -1136.11205707714     IErMin=14 ErrMin= 2.20D-05
 ErrMax= 2.20D-05  0.00D+00 EMaxC= 1.00D-01 BMatC= 8.87D-08 BMatP= 1.60D-07
 IDIUse=1 WtCom= 1.00D+00 WtEn= 0.00D+00
 Coeff-Com:  0.489D-04-0.937D-04-0.559D-03-0.166D-02 0.272D-02 0.207D-01
 Coeff-Com:  0.592D-01 0.458D-01 0.682D-01-0.911D+00-0.154D+01 0.405D+00
 Coeff-Com:  0.890D+00 0.196D+01
 Coeff:      0.489D-04-0.937D-04-0.559D-03-0.166D-02 0.272D-02 0.207D-01
 Coeff:      0.592D-01 0.458D-01 0.682D-01-0.911D+00-0.154D+01 0.405D+00
 Coeff:      0.890D+00 0.196D+01
 Gap=     0.029 Goal=   None    Shift=    0.000
 Gap=     0.029 Goal=   None    Shift=    0.000
 RMSDP=1.53D-04 MaxDP=8.34D-03 DE= 3.78D-06 OVMax= 1.18D-02

 Cycle  15  Pass 1  IDiag  1:
 E= -1136.11204615423     Delta-E=        0.000002059050 Rises=F Damp=F
 DIIS: error= 7.11D-06 at cycle  15 NSaved=  15.
 NSaved=15 IEnMin=12 EnMin= -1136.11205707714     IErMin=15 ErrMin= 7.11D-06
 ErrMax= 7.11D-06  0.00D+00 EMaxC= 1.00D-01 BMatC= 1.90D-08 BMatP= 8.87D-08
 IDIUse=1 WtCom= 1.00D+00 WtEn= 0.00D+00
 Coeff-Com: -0.416D-04 0.625D-04-0.577D-03 0.401D-03-0.140D-02-0.917D-02
 Coeff-Com: -0.335D-01-0.527D-02 0.141D+00 0.149D+00 0.218D-01 0.475D+00
 Coeff-Com: -0.907D+00-0.422D+00 0.159D+01
 Coeff:     -0.416D-04 0.625D-04-0.577D-03 0.401D-03-0.140D-02-0.917D-02
 Coeff:     -0.335D-01-0.527D-02 0.141D+00 0.149D+00 0.218D-01 0.475D+00
 Coeff:     -0.907D+00-0.422D+00 0.159D+01
 Gap=     0.029 Goal=   None    Shift=    0.000
 Gap=     0.029 Goal=   None    Shift=    0.000
 RMSDP=6.17D-05 MaxDP=3.95D-03 DE= 2.06D-06 OVMax= 5.32D-03

 Cycle  16  Pass 1  IDiag  1:
 E= -1136.11204602311     Delta-E=        0.000000131114 Rises=F Damp=F
 DIIS: error= 2.98D-06 at cycle  16 NSaved=  16.
 NSaved=16 IEnMin=12 EnMin= -1136.11205707714     IErMin=16 ErrMin= 2.98D-06
 ErrMax= 2.98D-06  0.00D+00 EMaxC= 1.00D-01 BMatC= 3.57D-09 BMatP= 1.90D-08
 IDIUse=1 WtCom= 1.00D+00 WtEn= 0.00D+00
 Coeff-Com: -0.887D-07 0.641D-05-0.335D-04 0.422D-03-0.728D-03-0.654D-02
 Coeff-Com: -0.187D-01-0.133D-01 0.140D-01 0.234D+00 0.318D+00 0.572D-01
 Coeff-Com: -0.440D+00-0.494D+00 0.384D+00 0.965D+00
 Coeff:     -0.887D-07 0.641D-05-0.335D-04 0.422D-03-0.728D-03-0.654D-02
 Coeff:     -0.187D-01-0.133D-01 0.140D-01 0.234D+00 0.318D+00 0.572D-01
 Coeff:     -0.440D+00-0.494D+00 0.384D+00 0.965D+00
 Gap=     0.029 Goal=   None    Shift=    0.000
 Gap=     0.029 Goal=   None    Shift=    0.000
 RMSDP=1.40D-05 MaxDP=1.14D-03 DE= 1.31D-07 OVMax= 1.18D-03

 Cycle  17  Pass 1  IDiag  1:
 E= -1136.11204604649     Delta-E=       -0.000000023379 Rises=F Damp=F
 DIIS: error= 1.85D-06 at cycle  17 NSaved=  17.
 NSaved=17 IEnMin=12 EnMin= -1136.11205707714     IErMin=17 ErrMin= 1.85D-06
 ErrMax= 1.85D-06  0.00D+00 EMaxC= 1.00D-01 BMatC= 9.58D-10 BMatP= 3.57D-09
 IDIUse=1 WtCom= 1.00D+00 WtEn= 0.00D+00
 Coeff-Com: -0.928D-07 0.257D-05 0.163D-03 0.895D-04 0.773D-04 0.176D-03
 Coeff-Com:  0.190D-02-0.472D-02-0.260D-01 0.496D-01 0.799D-01-0.774D-01
 Coeff-Com:  0.603D-01-0.471D-01-0.281D+00 0.271D+00 0.973D+00
 Coeff:     -0.928D-07 0.257D-05 0.163D-03 0.895D-04 0.773D-04 0.176D-03
 Coeff:      0.190D-02-0.472D-02-0.260D-01 0.496D-01 0.799D-01-0.774D-01
 Coeff:      0.603D-01-0.471D-01-0.281D+00 0.271D+00 0.973D+00
 Gap=     0.029 Goal=   None    Shift=    0.000
 Gap=     0.029 Goal=   None    Shift=    0.000
 RMSDP=6.29D-06 MaxDP=6.72D-04 DE=-2.34D-08 OVMax= 4.89D-04

 Cycle  18  Pass 1  IDiag  1:
 E= -1136.11204605617     Delta-E=       -0.000000009680 Rises=F Damp=F
 DIIS: error= 1.30D-06 at cycle  18 NSaved=  18.
 NSaved=18 IEnMin=12 EnMin= -1136.11205707714     IErMin=18 ErrMin= 1.30D-06
 ErrMax= 1.30D-06  0.00D+00 EMaxC= 1.00D-01 BMatC= 3.06D-10 BMatP= 9.58D-10
 IDIUse=1 WtCom= 1.00D+00 WtEn= 0.00D+00
 Coeff-Com:  0.139D-05-0.257D-05 0.351D-04-0.645D-04 0.170D-03 0.903D-03
 Coeff-Com:  0.362D-02-0.267D-03 0.101D-01-0.633D-01-0.554D-01-0.698D-02
 Coeff-Com:  0.551D-01 0.117D+00 0.117D-01-0.260D+00-0.395D+00 0.158D+01
 Coeff:      0.139D-05-0.257D-05 0.351D-04-0.645D-04 0.170D-03 0.903D-03
 Coeff:      0.362D-02-0.267D-03 0.101D-01-0.633D-01-0.554D-01-0.698D-02
 Coeff:      0.551D-01 0.117D+00 0.117D-01-0.260D+00-0.395D+00 0.158D+01
 Gap=     0.029 Goal=   None    Shift=    0.000
 Gap=     0.029 Goal=   None    Shift=    0.000
 RMSDP=4.32D-06 MaxDP=2.42D-04 DE=-9.68D-09 OVMax= 3.37D-04

 Cycle  19  Pass 1  IDiag  1:
 E= -1136.11204606182     Delta-E=       -0.000000005646 Rises=F Damp=F
 DIIS: error= 7.85D-07 at cycle  19 NSaved=  19.
 NSaved=19 IEnMin=12 EnMin= -1136.11205707714     IErMin=19 ErrMin= 7.85D-07
 ErrMax= 7.85D-07  0.00D+00 EMaxC= 1.00D-01 BMatC= 1.40D-10 BMatP= 3.06D-10
 IDIUse=1 WtCom= 1.00D+00 WtEn= 0.00D+00
 Coeff-Com:  0.139D-04-0.180D-04-0.448D-04 0.743D-05-0.101D-03-0.625D-03
 Coeff-Com: -0.428D-02-0.408D-02 0.989D-02 0.284D-01 0.451D-01 0.240D-01
 Coeff-Com: -0.104D+00-0.678D-01 0.177D+00-0.434D-01-0.293D+00-0.412D+00
 Coeff-Com:  0.164D+01
 Coeff:      0.139D-04-0.180D-04-0.448D-04 0.743D-05-0.101D-03-0.625D-03
 Coeff:     -0.428D-02-0.408D-02 0.989D-02 0.284D-01 0.451D-01 0.240D-01
 Coeff:     -0.104D+00-0.678D-01 0.177D+00-0.434D-01-0.293D+00-0.412D+00
 Coeff:      0.164D+01
 Gap=     0.029 Goal=   None    Shift=    0.000
 Gap=     0.029 Goal=   None    Shift=    0.000
 RMSDP=3.55D-06 MaxDP=1.99D-04 DE=-5.65D-09 OVMax= 3.15D-04

 Cycle  20  Pass 1  IDiag  1:
 E= -1136.11204606486     Delta-E=       -0.000000003046 Rises=F Damp=F
 DIIS: error= 4.05D-07 at cycle  20 NSaved=  20.
 NSaved=20 IEnMin=12 EnMin= -1136.11205707714     IErMin=20 ErrMin= 4.05D-07
 ErrMax= 4.05D-07  0.00D+00 EMaxC= 1.00D-01 BMatC= 4.29D-11 BMatP= 1.40D-10
 IDIUse=1 WtCom= 1.00D+00 WtEn= 0.00D+00
 Coeff-Com: -0.262D-05 0.396D-05-0.174D-04 0.119D-04-0.452D-04-0.271D-03
 Coeff-Com: -0.506D-03-0.238D-04-0.159D-02 0.184D-01 0.108D-01 0.114D-01
 Coeff-Com: -0.221D-01-0.389D-01-0.761D-03 0.846D-01 0.125D+00-0.673D+00
 Coeff-Com:  0.178D+00 0.131D+01
 Coeff:     -0.262D-05 0.396D-05-0.174D-04 0.119D-04-0.452D-04-0.271D-03
 Coeff:     -0.506D-03-0.238D-04-0.159D-02 0.184D-01 0.108D-01 0.114D-01
 Coeff:     -0.221D-01-0.389D-01-0.761D-03 0.846D-01 0.125D+00-0.673D+00
 Coeff:      0.178D+00 0.131D+01
 Gap=     0.029 Goal=   None    Shift=    0.000
 Gap=     0.029 Goal=   None    Shift=    0.000
 RMSDP=2.41D-06 MaxDP=1.25D-04 DE=-3.05D-09 OVMax= 2.29D-04

 Cycle  21  Pass 1  IDiag  1:
 E= -1136.11204606594     Delta-E=       -0.000000001077 Rises=F Damp=F
 DIIS: error= 1.41D-07 at cycle  21 NSaved=  20.
 NSaved=20 IEnMin=11 EnMin= -1136.11205707714     IErMin=20 ErrMin= 1.41D-07
 ErrMax= 1.41D-07  0.00D+00 EMaxC= 1.00D-01 BMatC= 9.88D-12 BMatP= 4.29D-11
 IDIUse=1 WtCom= 1.00D+00 WtEn= 0.00D+00
 Coeff-Com: -0.396D-06 0.997D-05 0.844D-05 0.165D-04-0.842D-04 0.864D-03
 Coeff-Com:  0.305D-03-0.145D-02-0.515D-02-0.400D-02-0.951D-02 0.185D-01
 Coeff-Com:  0.142D-01-0.304D-01 0.166D-01 0.387D-01 0.166D+00-0.345D+00
 Coeff-Com: -0.358D+00 0.150D+01
 Coeff:     -0.396D-06 0.997D-05 0.844D-05 0.165D-04-0.842D-04 0.864D-03
 Coeff:      0.305D-03-0.145D-02-0.515D-02-0.400D-02-0.951D-02 0.185D-01
 Coeff:      0.142D-01-0.304D-01 0.166D-01 0.387D-01 0.166D+00-0.345D+00
 Coeff:     -0.358D+00 0.150D+01
 Gap=     0.029 Goal=   None    Shift=    0.000
 Gap=     0.029 Goal=   None    Shift=    0.000
 RMSDP=9.48D-07 MaxDP=7.54D-05 DE=-1.08D-09 OVMax= 8.60D-05

 Cycle  22  Pass 1  IDiag  1:
 E= -1136.11204606615     Delta-E=       -0.000000000210 Rises=F Damp=F
 DIIS: error= 7.54D-08 at cycle  22 NSaved=  20.
 NSaved=20 IEnMin=10 EnMin= -1136.11205707714     IErMin=20 ErrMin= 7.54D-08
 ErrMax= 7.54D-08  0.00D+00 EMaxC= 1.00D-01 BMatC= 3.30D-12 BMatP= 9.88D-12
 IDIUse=1 WtCom= 1.00D+00 WtEn= 0.00D+00
 Coeff-Com:  0.200D-06 0.311D-05 0.304D-05 0.407D-04 0.334D-03-0.289D-03
 Coeff-Com:  0.689D-03-0.483D-02-0.351D-02-0.262D-02 0.627D-02 0.109D-01
 Coeff-Com: -0.534D-02-0.142D-01-0.197D-01 0.191D+00-0.138D+00-0.411D+00
 Coeff-Com:  0.494D+00 0.896D+00
 Coeff:      0.200D-06 0.311D-05 0.304D-05 0.407D-04 0.334D-03-0.289D-03
 Coeff:      0.689D-03-0.483D-02-0.351D-02-0.262D-02 0.627D-02 0.109D-01
 Coeff:     -0.534D-02-0.142D-01-0.197D-01 0.191D+00-0.138D+00-0.411D+00
 Coeff:      0.494D+00 0.896D+00
 Gap=     0.029 Goal=   None    Shift=    0.000
 Gap=     0.029 Goal=   None    Shift=    0.000
 RMSDP=3.88D-07 MaxDP=2.33D-05 DE=-2.10D-10 OVMax= 3.41D-05

 Cycle  23  Pass 1  IDiag  1:
 E= -1136.11204606617     Delta-E=       -0.000000000016 Rises=F Damp=F
 DIIS: error= 4.07D-08 at cycle  23 NSaved=  20.
 NSaved=20 IEnMin= 9 EnMin= -1136.11205707714     IErMin=20 ErrMin= 4.07D-08
 ErrMax= 4.07D-08  0.00D+00 EMaxC= 1.00D-01 BMatC= 6.14D-13 BMatP= 3.30D-12
 IDIUse=1 WtCom= 1.00D+00 WtEn= 0.00D+00
 Coeff-Com:  0.503D-05 0.112D-04 0.647D-04-0.213D-03-0.455D-03 0.193D-03
 Coeff-Com:  0.146D-02 0.519D-02-0.117D-02-0.438D-02-0.379D-02 0.848D-02
 Coeff-Com: -0.941D-02-0.179D-01 0.644D-02 0.547D-01-0.527D-03-0.267D+00
 Coeff-Com:  0.659D-01 0.116D+01
 Coeff:      0.503D-05 0.112D-04 0.647D-04-0.213D-03-0.455D-03 0.193D-03
 Coeff:      0.146D-02 0.519D-02-0.117D-02-0.438D-02-0.379D-02 0.848D-02
 Coeff:     -0.941D-02-0.179D-01 0.644D-02 0.547D-01-0.527D-03-0.267D+00
 Coeff:      0.659D-01 0.116D+01
 Gap=     0.029 Goal=   None    Shift=    0.000
 Gap=     0.029 Goal=   None    Shift=    0.000
 RMSDP=2.11D-07 MaxDP=1.15D-05 DE=-1.64D-11 OVMax= 1.65D-05

 Cycle  24  Pass 1  IDiag  1:
 E= -1136.11204606618     Delta-E=       -0.000000000016 Rises=F Damp=F
 DIIS: error= 1.98D-08 at cycle  24 NSaved=  20.
 NSaved=20 IEnMin= 8 EnMin= -1136.11205707714     IErMin=20 ErrMin= 1.98D-08
 ErrMax= 1.98D-08  0.00D+00 EMaxC= 1.00D-01 BMatC= 1.18D-13 BMatP= 6.14D-13
 IDIUse=1 WtCom= 1.00D+00 WtEn= 0.00D+00
 Coeff-Com: -0.253D-05-0.117D-04-0.802D-04 0.110D-03 0.514D-04 0.406D-03
 Coeff-Com: -0.912D-03 0.157D-02-0.114D-02-0.956D-03 0.162D-02 0.674D-03
 Coeff-Com:  0.146D-02-0.288D-01 0.309D-01 0.598D-01-0.102D+00-0.116D+00
 Coeff-Com:  0.507D-01 0.110D+01
 Coeff:     -0.253D-05-0.117D-04-0.802D-04 0.110D-03 0.514D-04 0.406D-03
 Coeff:     -0.912D-03 0.157D-02-0.114D-02-0.956D-03 0.162D-02 0.674D-03
 Coeff:      0.146D-02-0.288D-01 0.309D-01 0.598D-01-0.102D+00-0.116D+00
 Coeff:      0.507D-01 0.110D+01
 Gap=     0.029 Goal=   None    Shift=    0.000
 Gap=     0.029 Goal=   None    Shift=    0.000
 RMSDP=7.33D-08 MaxDP=7.41D-06 DE=-1.64D-11 OVMax= 3.62D-06

 Cycle  25  Pass 1  IDiag  1:
 E= -1136.11204606618     Delta-E=       -0.000000000002 Rises=F Damp=F
 DIIS: error= 9.94D-09 at cycle  25 NSaved=  20.
 NSaved=20 IEnMin= 7 EnMin= -1136.11205707714     IErMin=20 ErrMin= 9.94D-09
 ErrMax= 9.94D-09  0.00D+00 EMaxC= 1.00D-01 BMatC= 4.88D-14 BMatP= 1.18D-13
 IDIUse=1 WtCom= 1.00D+00 WtEn= 0.00D+00
 Coeff-Com: -0.219D-05 0.576D-04 0.528D-04-0.161D-03-0.283D-03-0.288D-03
 Coeff-Com: -0.646D-03 0.134D-02 0.762D-03-0.184D-02 0.913D-03 0.141D-02
 Coeff-Com:  0.140D-02-0.516D-02-0.261D-02 0.191D-01 0.141D-01-0.918D-01
 Coeff-Com: -0.283D+00 0.135D+01
 Coeff:     -0.219D-05 0.576D-04 0.528D-04-0.161D-03-0.283D-03-0.288D-03
 Coeff:     -0.646D-03 0.134D-02 0.762D-03-0.184D-02 0.913D-03 0.141D-02
 Coeff:      0.140D-02-0.516D-02-0.261D-02 0.191D-01 0.141D-01-0.918D-01
 Coeff:     -0.283D+00 0.135D+01
 Gap=     0.029 Goal=   None    Shift=    0.000
 Gap=     0.029 Goal=   None    Shift=    0.000
 RMSDP=4.76D-08 MaxDP=5.21D-06 DE=-1.82D-12 OVMax= 2.97D-06

 Cycle  26  Pass 1  IDiag  1:
 E= -1136.11204606618     Delta-E=        0.000000000004 Rises=F Damp=F
 DIIS: error= 7.43D-09 at cycle  26 NSaved=  20.
 NSaved=20 IEnMin= 6 EnMin= -1136.11205707714     IErMin=20 ErrMin= 7.43D-09
 ErrMax= 7.43D-09  0.00D+00 EMaxC= 1.00D-01 BMatC= 2.89D-14 BMatP= 4.88D-14
 IDIUse=1 WtCom= 1.00D+00 WtEn= 0.00D+00
 Large coefficients: NSaved= 20 BigCof=    0.00 CofMax=   10.00 Det=-7.89D-15
 Inversion failed.  Reducing to 19 matrices.
 Large coefficients: NSaved= 19 BigCof=    0.00 CofMax=   10.00 Det=-8.55D-15
 Inversion failed.  Reducing to 18 matrices.
 Large coefficients: NSaved= 18 BigCof=    0.00 CofMax=   10.00 Det=-8.76D-15
 Inversion failed.  Reducing to 17 matrices.
 Large coefficients: NSaved= 17 BigCof=    0.00 CofMax=   10.00 Det=-8.80D-15
 Inversion failed.  Reducing to 16 matrices.
 Large coefficients: NSaved= 16 BigCof=    0.00 CofMax=   10.00 Det=-9.44D-15
 Inversion failed.  Reducing to 15 matrices.
 Coeff-Com:  0.525D-04 0.297D-03-0.113D-03-0.935D-04-0.313D-03 0.189D-03
 Coeff-Com: -0.191D-03-0.453D-02 0.788D-02-0.396D-02 0.353D-02 0.362D-01
 Coeff-Com: -0.329D+00-0.562D-02 0.130D+01
 Coeff:      0.525D-04 0.297D-03-0.113D-03-0.935D-04-0.313D-03 0.189D-03
 Coeff:     -0.191D-03-0.453D-02 0.788D-02-0.396D-02 0.353D-02 0.362D-01
 Coeff:     -0.329D+00-0.562D-02 0.130D+01
 Gap=     0.029 Goal=   None    Shift=    0.000
 Gap=     0.029 Goal=   None    Shift=    0.000
 RMSDP=4.35D-08 MaxDP=4.35D-06 DE= 3.64D-12 OVMax= 2.84D-06

 Cycle  27  Pass 1  IDiag  1:
 E= -1136.11204606617     Delta-E=        0.000000000009 Rises=F Damp=F
 DIIS: error= 6.60D-09 at cycle  27 NSaved=  16.
 NSaved=16 IEnMin= 3 EnMin= -1136.11205707714     IErMin=16 ErrMin= 6.60D-09
 ErrMax= 6.60D-09  0.00D+00 EMaxC= 1.00D-01 BMatC= 1.87D-14 BMatP= 2.89D-14
 IDIUse=1 WtCom= 1.00D+00 WtEn= 0.00D+00
 Large coefficients: NSaved= 16 BigCof=    0.00 CofMax=   10.00 Det=-6.30D-15
 Inversion failed.  Reducing to 15 matrices.
 Coeff-Com:  0.602D-04 0.818D-04 0.294D-03-0.371D-03-0.389D-03 0.384D-03
 Coeff-Com: -0.280D-02 0.313D-02-0.663D-02 0.193D-01 0.734D-01-0.144D+00
 Coeff-Com: -0.660D+00 0.392D+00 0.133D+01
 Coeff:      0.602D-04 0.818D-04 0.294D-03-0.371D-03-0.389D-03 0.384D-03
 Coeff:     -0.280D-02 0.313D-02-0.663D-02 0.193D-01 0.734D-01-0.144D+00
 Coeff:     -0.660D+00 0.392D+00 0.133D+01
 Gap=     0.029 Goal=   None    Shift=    0.000
 Gap=     0.029 Goal=   None    Shift=    0.000
 RMSDP=4.94D-08 MaxDP=5.00D-06 DE= 9.09D-12 OVMax= 3.72D-06

 Cycle  28  Pass 1  IDiag  1:
 E= -1136.11204606618     Delta-E=       -0.000000000010 Rises=F Damp=F
 DIIS: error= 5.58D-09 at cycle  28 NSaved=  16.
 NSaved=16 IEnMin= 3 EnMin= -1136.11205707714     IErMin=16 ErrMin= 5.58D-09
 ErrMax= 5.58D-09  0.00D+00 EMaxC= 1.00D-01 BMatC= 1.16D-14 BMatP= 1.87D-14
 IDIUse=1 WtCom= 1.00D+00 WtEn= 0.00D+00
 Large coefficients: NSaved= 16 BigCof=    0.00 CofMax=   10.00 Det=-4.06D-15
 Inversion failed.  Reducing to 15 matrices.
 Coeff-Com: -0.526D-04-0.123D-03 0.511D-04 0.727D-04 0.966D-04-0.399D-04
 Coeff-Com:  0.395D-02-0.116D-01-0.787D-02 0.511D-01 0.162D+00-0.539D+00
 Coeff-Com: -0.272D+00 0.613D+00 0.100D+01
 Coeff:     -0.526D-04-0.123D-03 0.511D-04 0.727D-04 0.966D-04-0.399D-04
 Coeff:      0.395D-02-0.116D-01-0.787D-02 0.511D-01 0.162D+00-0.539D+00
 Coeff:     -0.272D+00 0.613D+00 0.100D+01
 Gap=     0.029 Goal=   None    Shift=    0.000
 Gap=     0.029 Goal=   None    Shift=    0.000
 RMSDP=3.46D-08 MaxDP=3.43D-06 DE=-9.55D-12 OVMax= 2.63D-06

 Cycle  29  Pass 1  IDiag  1:
 E= -1136.11204606619     Delta-E=       -0.000000000005 Rises=F Damp=F
 DIIS: error= 3.37D-09 at cycle  29 NSaved=  16.
 NSaved=16 IEnMin= 3 EnMin= -1136.11205707714     IErMin=16 ErrMin= 3.37D-09
 ErrMax= 3.37D-09  0.00D+00 EMaxC= 1.00D-01 BMatC= 4.33D-15 BMatP= 1.16D-14
 IDIUse=1 WtCom= 1.00D+00 WtEn= 0.00D+00
 Large coefficients: NSaved= 16 BigCof=    0.00 CofMax=   10.00 Det=-2.26D-15
 Inversion failed.  Reducing to 15 matrices.
 Coeff-Com:  0.837D-05-0.535D-04-0.119D-03 0.181D-03 0.138D-03-0.259D-03
 Coeff-Com: -0.211D-02-0.699D-02-0.454D-02 0.113D+00 0.197D-01-0.329D+00
 Coeff-Com: -0.189D+00 0.488D+00 0.912D+00
 Coeff:      0.837D-05-0.535D-04-0.119D-03 0.181D-03 0.138D-03-0.259D-03
 Coeff:     -0.211D-02-0.699D-02-0.454D-02 0.113D+00 0.197D-01-0.329D+00
 Coeff:     -0.189D+00 0.488D+00 0.912D+00
 Gap=     0.029 Goal=   None    Shift=    0.000
 Gap=     0.029 Goal=   None    Shift=    0.000
 RMSDP=2.26D-08 MaxDP=1.97D-06 DE=-4.55D-12 OVMax= 1.61D-06

 Cycle  30  Pass 1  IDiag  1:
 E= -1136.11204606618     Delta-E=        0.000000000003 Rises=F Damp=F
 DIIS: error= 2.58D-09 at cycle  30 NSaved=  16.
 NSaved=16 IEnMin= 3 EnMin= -1136.11205707714     IErMin=16 ErrMin= 2.58D-09
 ErrMax= 2.58D-09  0.00D+00 EMaxC= 1.00D-01 BMatC= 2.17D-15 BMatP= 4.33D-15
 IDIUse=1 WtCom= 1.00D+00 WtEn= 0.00D+00
 Large coefficients: NSaved= 16 BigCof=    0.00 CofMax=   10.00 Det=-1.55D-15
 Inversion failed.  Reducing to 15 matrices.
 Coeff-Com:  0.146D-04 0.673D-04-0.156D-04-0.346D-04-0.650D-04 0.479D-04
 Coeff-Com: -0.541D-03-0.164D-02-0.420D-01 0.235D+00-0.981D-02-0.361D+00
 Coeff-Com: -0.334D+00 0.477D+00 0.104D+01
 Coeff:      0.146D-04 0.673D-04-0.156D-04-0.346D-04-0.650D-04 0.479D-04
 Coeff:     -0.541D-03-0.164D-02-0.420D-01 0.235D+00-0.981D-02-0.361D+00
 Coeff:     -0.334D+00 0.477D+00 0.104D+01
 Gap=     0.029 Goal=   None    Shift=    0.000
 Gap=     0.029 Goal=   None    Shift=    0.000
 RMSDP=1.55D-08 MaxDP=1.54D-06 DE= 3.18D-12 OVMax= 1.25D-06

 Cycle  31  Pass 1  IDiag  1:
 E= -1136.11204606619     Delta-E=       -0.000000000008 Rises=F Damp=F
 DIIS: error= 1.21D-09 at cycle  31 NSaved=  16.
 NSaved=16 IEnMin= 3 EnMin= -1136.11205707714     IErMin=16 ErrMin= 1.21D-09
 ErrMax= 1.21D-09  0.00D+00 EMaxC= 1.00D-01 BMatC= 3.58D-16 BMatP= 2.17D-15
 IDIUse=1 WtCom= 1.00D+00 WtEn= 0.00D+00
 Large coefficients: NSaved= 16 BigCof=    0.00 CofMax=   10.00 Det=-3.95D-16
 Inversion failed.  Reducing to 15 matrices.
 Coeff-Com:  0.828D-05 0.123D-04 0.272D-04-0.427D-04-0.408D-04 0.689D-04
 Coeff-Com: -0.282D-02-0.233D-01 0.494D-01 0.493D-01-0.469D-01-0.108D+00
 Coeff-Com: -0.120D+00 0.120D+00 0.108D+01
 Coeff:      0.828D-05 0.123D-04 0.272D-04-0.427D-04-0.408D-04 0.689D-04
 Coeff:     -0.282D-02-0.233D-01 0.494D-01 0.493D-01-0.469D-01-0.108D+00
 Coeff:     -0.120D+00 0.120D+00 0.108D+01
 Gap=     0.029 Goal=   None    Shift=    0.000
 Gap=     0.029 Goal=   None    Shift=    0.000
 RMSDP=5.43D-09 MaxDP=5.15D-07 DE=-8.19D-12 OVMax= 4.12D-07

 SCF Done:  E(UB3LYP) =  -1136.11204607     A.U. after   31 cycles
            NFock= 31  Conv=0.54D-08     -V/T= 2.0029
 <Sx>= 0.0000 <Sy>= 0.0000 <Sz>= 0.5000 <S**2>= 0.7657 S= 0.5078
 <L.S>= 0.000000000000E+00
 KE= 1.132840366384D+03 PE=-3.374185087080D+03 EE= 7.826429686211D+02
 Annihilation of the first spin contaminant:
 S**2 before annihilation     0.7657,   after     0.7502
 Leave Link  502 at Thu Dec  7 21:35:46 2023, MaxMem=  1879048192 cpu:             272.3 elap:              24.5
 (Enter /home/sekinelabo/g16/l601.exe)
 Copying SCF densities to generalized density rwf, IOpCl= 1 IROHF=0.

 **********************************************************************

            Population analysis using the SCF Density.

 **********************************************************************

 Orbital symmetries:
 Alpha Orbitals:
       Occupied  (A) (A) (A) (A) (A) (A) (A) (A) (A) (A) (A) (A)
                 (A) (A) (A) (A) (A) (A) (A) (A) (A) (A) (A) (A)
                 (A) (A) (A) (A) (A) (A) (A) (A) (A) (A) (A) (A)
                 (A) (A) (A)
       Virtual   (A) (A) (A) (A) (A) (A) (A) (A) (A) (A) (A) (A)
                 (A) (A) (A) (A) (A) (A) (A) (A) (A) (A) (A) (A)
                 (A) (A) (A) (A) (A) (A) (A) (A) (A) (A) (A) (A)
                 (A) (A) (A) (A) (A) (A) (A) (A) (A) (A) (A) (A)
                 (A) (A) (A) (A) (A) (A) (A) (A) (A) (A) (A) (A)
                 (A) (A) (A) (A) (A) (A) (A) (A) (A) (A) (A) (A)
                 (A) (A) (A) (A) (A) (A) (A) (A) (A) (A) (A) (A)
                 (A) (A) (A) (A) (A) (A) (A) (A) (A) (A) (A) (A)
                 (A) (A) (A) (A) (A) (A) (A) (A) (A) (A) (A) (A)
                 (A) (A) (A) (A) (A) (A) (A) (A) (A) (A) (A) (A)
                 (A) (A) (A) (A) (A) (A) (A) (A) (A) (A) (A) (A)
                 (A) (A) (A) (A) (A) (A) (A) (A) (A) (A) (A) (A)
                 (A) (A) (A) (A) (A) (A) (A) (A) (A) (A) (A) (A)
                 (A) (A) (A) (A) (A) (A) (A) (A) (A) (A) (A) (A)
                 (A) (A) (A)
 Beta  Orbitals:
       Occupied  (A) (A) (A) (A) (A) (A) (A) (A) (A) (A) (A) (A)
                 (A) (A) (A) (A) (A) (A) (A) (A) (A) (A) (A) (A)
                 (A) (A) (A) (A) (A) (A) (A) (A) (A) (A) (A) (A)
                 (A) (A)
       Virtual   (A) (A) (A) (A) (A) (A) (A) (A) (A) (A) (A) (A)
                 (A) (A) (A) (A) (A) (A) (A) (A) (A) (A) (A) (A)
                 (A) (A) (A) (A) (A) (A) (A) (A) (A) (A) (A) (A)
                 (A) (A) (A) (A) (A) (A) (A) (A) (A) (A) (A) (A)
                 (A) (A) (A) (A) (A) (A) (A) (A) (A) (A) (A) (A)
                 (A) (A) (A) (A) (A) (A) (A) (A) (A) (A) (A) (A)
                 (A) (A) (A) (A) (A) (A) (A) (A) (A) (A) (A) (A)
                 (A) (A) (A) (A) (A) (A) (A) (A) (A) (A) (A) (A)
                 (A) (A) (A) (A) (A) (A) (A) (A) (A) (A) (A) (A)
                 (A) (A) (A) (A) (A) (A) (A) (A) (A) (A) (A) (A)
                 (A) (A) (A) (A) (A) (A) (A) (A) (A) (A) (A) (A)
                 (A) (A) (A) (A) (A) (A) (A) (A) (A) (A) (A) (A)
                 (A) (A) (A) (A) (A) (A) (A) (A) (A) (A) (A) (A)
                 (A) (A) (A) (A) (A) (A) (A) (A) (A) (A) (A) (A)
                 (A) (A) (A) (A)
 The electronic state is 2-A.
 Alpha  occ. eigenvalues --  -38.46039 -38.45250 -38.45171 -38.44013 -38.43709
 Alpha  occ. eigenvalues --  -38.42935 -38.42766  -2.21820  -2.21073  -2.20960
 Alpha  occ. eigenvalues --   -2.19800  -2.19600  -2.18895  -2.18610  -1.15526
 Alpha  occ. eigenvalues --   -1.15462  -1.15431  -1.14766  -1.14715  -1.14697
 Alpha  occ. eigenvalues --   -1.14643  -1.14604  -1.14587  -1.13482  -1.13453
 Alpha  occ. eigenvalues --   -1.13446  -1.13290  -1.13257  -1.13233  -1.12602
 Alpha  occ. eigenvalues --   -1.12540  -1.12505  -1.12287  -1.12280  -1.12238
 Alpha  occ. eigenvalues --   -0.18253  -0.14307  -0.10887  -0.10468
 Alpha virt. eigenvalues --   -0.07615  -0.05871  -0.04348  -0.03175  -0.02898
 Alpha virt. eigenvalues --   -0.02323  -0.02180  -0.01508  -0.01093  -0.00484
 Alpha virt. eigenvalues --   -0.00041   0.00105   0.00281   0.00486   0.00577
 Alpha virt. eigenvalues --    0.00791   0.00869   0.00955   0.01268   0.01403
 Alpha virt. eigenvalues --    0.01426   0.01626   0.01691   0.01901   0.01914
 Alpha virt. eigenvalues --    0.02115   0.02216   0.02295   0.02384   0.02514
 Alpha virt. eigenvalues --    0.02604   0.02726   0.02777   0.02923   0.02939
 Alpha virt. eigenvalues --    0.03019   0.03097   0.03189   0.03394   0.03752
 Alpha virt. eigenvalues --    0.03806   0.03987   0.04063   0.04468   0.04623
 Alpha virt. eigenvalues --    0.04808   0.05038   0.05163   0.05370   0.05638
 Alpha virt. eigenvalues --    0.05870   0.06322   0.06417   0.06999   0.07218
 Alpha virt. eigenvalues --    0.07324   0.07423   0.07654   0.07963   0.08392
 Alpha virt. eigenvalues --    0.09103   0.09488   0.09742   0.10487   0.11152
 Alpha virt. eigenvalues --    0.11325   0.11690   0.11891   0.12478   0.12797
 Alpha virt. eigenvalues --    0.13054   0.13345   0.14043   0.14265   0.14538
 Alpha virt. eigenvalues --    0.14621   0.15066   0.15793   0.16302   0.16915
 Alpha virt. eigenvalues --    0.26349   0.27218   0.27879   0.28608   0.29170
 Alpha virt. eigenvalues --    0.29949   0.30280   0.31270   0.31345   0.33129
 Alpha virt. eigenvalues --    0.33837   0.34510   0.34616   0.36113   0.36479
 Alpha virt. eigenvalues --    0.37614   0.38604   0.39924   0.40279   0.40755
 Alpha virt. eigenvalues --    0.42430   0.42690   0.43601   0.43675   0.43875
 Alpha virt. eigenvalues --    0.44251   0.44427   0.44662   0.45096   0.45391
 Alpha virt. eigenvalues --    0.45702   0.46163   0.46572   0.47586   0.47688
 Alpha virt. eigenvalues --    0.48737   0.49030   0.49590   0.50354   0.51464
 Alpha virt. eigenvalues --    0.51666   0.52544   0.53367   0.53472   0.54677
 Alpha virt. eigenvalues --    0.55970   0.56474   0.58140   0.58524   0.59572
 Alpha virt. eigenvalues --    0.59898   0.60186   0.63344   0.64940   0.66280
 Alpha virt. eigenvalues --    0.71088   2.02885   2.09391   2.13637   2.14930
 Alpha virt. eigenvalues --    2.17759   2.20502   2.25798   4.42110   4.43786
 Alpha virt. eigenvalues --    4.44030   4.44459   4.44580   4.44853   4.45383
 Alpha virt. eigenvalues --    4.45456   4.46441   4.47007   4.47541   4.47663
 Alpha virt. eigenvalues --    4.49276   4.49508   4.49983   4.53203   4.54042
 Alpha virt. eigenvalues --    4.55663   4.57833   4.59903   4.64673  96.22722
 Alpha virt. eigenvalues --   96.29907  96.34859  96.36429  96.39905  96.43535
 Alpha virt. eigenvalues --   96.49912
  Beta  occ. eigenvalues --  -38.46000 -38.45230 -38.45151 -38.44012 -38.43679
  Beta  occ. eigenvalues --  -38.42865 -38.42758  -2.21747  -2.21034  -2.20923
  Beta  occ. eigenvalues --   -2.19801  -2.19550  -2.18772  -2.18599  -1.15467
  Beta  occ. eigenvalues --   -1.15412  -1.15376  -1.14741  -1.14687  -1.14668
  Beta  occ. eigenvalues --   -1.14613  -1.14578  -1.14561  -1.13479  -1.13451
  Beta  occ. eigenvalues --   -1.13442  -1.13256  -1.13208  -1.13181  -1.12519
  Beta  occ. eigenvalues --   -1.12441  -1.12415  -1.12278  -1.12250  -1.12232
  Beta  occ. eigenvalues --   -0.17537  -0.14081  -0.10288
  Beta virt. eigenvalues --   -0.07350  -0.07080  -0.05780  -0.03827  -0.02915
  Beta virt. eigenvalues --   -0.02730  -0.01646  -0.01598  -0.01339  -0.00831
  Beta virt. eigenvalues --   -0.00360   0.00010   0.00121   0.00443   0.00563
  Beta virt. eigenvalues --    0.00629   0.00844   0.00953   0.01040   0.01349
  Beta virt. eigenvalues --    0.01524   0.01577   0.01691   0.01791   0.01920
  Beta virt. eigenvalues --    0.01958   0.02147   0.02247   0.02360   0.02406
  Beta virt. eigenvalues --    0.02571   0.02655   0.02768   0.02822   0.02973
  Beta virt. eigenvalues --    0.03021   0.03101   0.03120   0.03238   0.03488
  Beta virt. eigenvalues --    0.03831   0.03881   0.04154   0.04198   0.04507
  Beta virt. eigenvalues --    0.04799   0.04945   0.05101   0.05272   0.05486
  Beta virt. eigenvalues --    0.05721   0.06056   0.06365   0.06508   0.07042
  Beta virt. eigenvalues --    0.07371   0.07434   0.07526   0.07786   0.08028
  Beta virt. eigenvalues --    0.08610   0.09184   0.09698   0.09871   0.10827
  Beta virt. eigenvalues --    0.11490   0.11557   0.11914   0.12054   0.12561
  Beta virt. eigenvalues --    0.12978   0.13166   0.13472   0.14273   0.14495
  Beta virt. eigenvalues --    0.14650   0.14967   0.15296   0.16004   0.16625
  Beta virt. eigenvalues --    0.17197   0.26565   0.27389   0.28193   0.28832
  Beta virt. eigenvalues --    0.29445   0.30272   0.30607   0.31474   0.31561
  Beta virt. eigenvalues --    0.33323   0.34086   0.34718   0.34998   0.36457
  Beta virt. eigenvalues --    0.36699   0.37909   0.38750   0.40124   0.40462
  Beta virt. eigenvalues --    0.40843   0.42636   0.42876   0.43806   0.43846
  Beta virt. eigenvalues --    0.43995   0.44337   0.44531   0.44811   0.45178
  Beta virt. eigenvalues --    0.45492   0.45833   0.46258   0.46734   0.47752
  Beta virt. eigenvalues --    0.47960   0.48845   0.49182   0.49796   0.50514
  Beta virt. eigenvalues --    0.51641   0.51814   0.52671   0.53504   0.53604
  Beta virt. eigenvalues --    0.54750   0.56107   0.56610   0.58283   0.58729
  Beta virt. eigenvalues --    0.59727   0.60040   0.60374   0.63654   0.65061
  Beta virt. eigenvalues --    0.66551   0.71221   2.03010   2.09444   2.13766
  Beta virt. eigenvalues --    2.14967   2.17864   2.20596   2.26021   4.42158
  Beta virt. eigenvalues --    4.43842   4.44090   4.44500   4.44619   4.44895
  Beta virt. eigenvalues --    4.45427   4.45485   4.46499   4.47052   4.47562
  Beta virt. eigenvalues --    4.47687   4.49301   4.49518   4.50012   4.53248
  Beta virt. eigenvalues --    4.54093   4.55746   4.57905   4.59958   4.64720
  Beta virt. eigenvalues --   96.22762  96.29927  96.34899  96.36442  96.39936
  Beta virt. eigenvalues --   96.43570  96.49983
          Condensed to atoms (all electrons):
               1          2          3          4          5          6
     1  Na  11.507078  -0.667430   0.480873  -0.383914   0.252565  -0.242903
     2  Na  -0.667430  12.059547  -1.183924   0.926139   0.253460   0.365829
     3  Na   0.480873  -1.183924  12.345216  -0.674036  -0.152937  -0.350372
     4  Na  -0.383914   0.926139  -0.674036  11.201189   0.030389   0.026525
     5  Na   0.252565   0.253460  -0.152937   0.030389  10.839634   0.019052
     6  Na  -0.242903   0.365829  -0.350372   0.026525   0.019052  10.860431
     7  Na   0.142700  -0.499781   0.077745  -0.366378  -0.164252   0.288685
               7
     1  Na   0.142700
     2  Na  -0.499781
     3  Na   0.077745
     4  Na  -0.366378
     5  Na  -0.164252
     6  Na   0.288685
     7  Na  11.830836
          Atomic-Atomic Spin Densities.
               1          2          3          4          5          6
     1  Na   0.323390  -0.694945   0.770367  -0.449004  -0.092072  -0.100166
     2  Na  -0.694945   1.245074  -0.914626   0.583736   0.010724   0.371751
     3  Na   0.770367  -0.914626   1.042935  -0.388514   0.068710  -0.428953
     4  Na  -0.449004   0.583736  -0.388514   0.570296   0.019194   0.113486
     5  Na  -0.092072   0.010724   0.068710   0.019194  -0.096599   0.035851
     6  Na  -0.100166   0.371751  -0.428953   0.113486   0.035851   0.201232
     7  Na   0.206210  -0.189427   0.104524  -0.192665   0.000951  -0.028500
               7
     1  Na   0.206210
     2  Na  -0.189427
     3  Na   0.104524
     4  Na  -0.192665
     5  Na   0.000951
     6  Na  -0.028500
     7  Na   0.100404
 Mulliken charges and spin densities:
               1          2
     1  Na  -0.088970  -0.036219
     2  Na  -0.253839   0.412288
     3  Na   0.457435   0.254442
     4  Na   0.240085   0.256528
     5  Na  -0.077911  -0.053240
     6  Na   0.032753   0.164703
     7  Na  -0.309554   0.001497
 Sum of Mulliken charges =  -0.00000   1.00000
 Mulliken charges and spin densities with hydrogens summed into heavy atoms:
               1          2
     1  Na  -0.088970  -0.036219
     2  Na  -0.253839   0.412288
     3  Na   0.457435   0.254442
     4  Na   0.240085   0.256528
     5  Na  -0.077911  -0.053240
     6  Na   0.032753   0.164703
     7  Na  -0.309554   0.001497
 Electronic spatial extent (au):  <R**2>=           2710.0842
 Charge=             -0.0000 electrons
 Dipole moment (field-independent basis, Debye):
    X=              0.0320    Y=              0.4880    Z=              0.7585  Tot=              0.9025
 Quadrupole moment (field-independent basis, Debye-Ang):
   XX=            -46.7998   YY=            -76.6411   ZZ=            -71.0552
   XY=              0.2515   XZ=             -0.2618   YZ=              2.1963
 Traceless Quadrupole moment (field-independent basis, Debye-Ang):
   XX=             18.0322   YY=            -11.8091   ZZ=             -6.2232
   XY=              0.2515   XZ=             -0.2618   YZ=              2.1963
 Octapole moment (field-independent basis, Debye-Ang**2):
  XXX=            -20.1800  YYY=              4.6916  ZZZ=             10.2894  XYY=             15.9967
  XXY=             24.1960  XXZ=              0.0185  XZZ=             -0.0164  YZZ=             -0.6874
  YYZ=             -3.5447  XYZ=              0.3542
 Hexadecapole moment (field-independent basis, Debye-Ang**3):
 XXXX=          -2209.1185 YYYY=          -1269.2828 ZZZZ=           -774.9213 XXXY=             23.8211
 XXXZ=            -33.7416 YYYX=            -17.4106 YYYZ=             19.9467 ZZZX=            -13.9255
 ZZZY=              9.9302 XXYY=           -588.0085 XXZZ=           -621.5141 YYZZ=           -360.5871
 XXYZ=             25.2806 YYXZ=             30.1032 ZZXY=              9.8038
 N-N= 3.225897060085D+02 E-N=-3.374185087097D+03  KE= 1.132840366384D+03
                          Isotropic Fermi Contact Couplings
        Atom                 a.u.       MegaHertz       Gauss      10(-4) cm-1
     1  Na(23)             0.07006      82.88662      29.57601      27.64800
     2  Na(23)             0.14650     173.31101      61.84168      57.81033
     3  Na(23)             0.24686     292.04566     104.20916      97.41595
     4  Na(23)             0.08776     103.82257      37.04647      34.63148
     5  Na(23)            -0.01898     -22.45751      -8.01340      -7.49102
     6  Na(23)             0.07755      91.74431      32.73665      30.60261
     7  Na(23)            -0.00690      -8.16257      -2.91261      -2.72274
 --------------------------------------------------------
       Center         ----  Spin Dipole Couplings  ----
                      3XX-RR        3YY-RR        3ZZ-RR
 --------------------------------------------------------
     1   Atom        0.006868     -0.016873      0.010004
     2   Atom       -0.002596     -0.004914      0.007510
     3   Atom        0.008384      0.004097     -0.012481
     4   Atom       -0.002566     -0.003389      0.005955
     5   Atom       -0.001234     -0.007840      0.009074
     6   Atom       -0.002792     -0.004954      0.007746
     7   Atom       -0.006820     -0.009314      0.016134
 --------------------------------------------------------
                        XY            XZ            YZ
 --------------------------------------------------------
     1   Atom        0.012316     -0.031101     -0.011478
     2   Atom        0.002416      0.000167      0.008426
     3   Atom        0.008620      0.012148      0.008851
     4   Atom        0.002162      0.003621      0.001296
     5   Atom        0.002513      0.010815      0.008192
     6   Atom       -0.000458     -0.002339     -0.003460
     7   Atom       -0.009874     -0.016185      0.013411
 --------------------------------------------------------


 ---------------------------------------------------------------------------------
              Anisotropic Spin Dipole Couplings in Principal Axis System
 ---------------------------------------------------------------------------------

       Atom             a.u.   MegaHertz   Gauss  10(-4) cm-1        Axes

              Baa    -0.0233    -3.283    -1.172    -1.095  0.7196 -0.4707  0.5105
     1 Na(23) Bbb    -0.0209    -2.958    -1.056    -0.987  0.1921  0.8414  0.5050
              Bcc     0.0442     6.242     2.227     2.082 -0.6673 -0.2653  0.6959
 
              Baa    -0.0098    -1.381    -0.493    -0.461 -0.2808  0.8638 -0.4183
     2 Na(23) Bbb    -0.0021    -0.296    -0.106    -0.099  0.9559  0.2124 -0.2030
              Bcc     0.0119     1.677     0.598     0.559  0.0865  0.4568  0.8853
 
              Baa    -0.0191    -2.696    -0.962    -0.899 -0.3340 -0.2252  0.9153
     3 Na(23) Bbb    -0.0026    -0.372    -0.133    -0.124 -0.6006  0.7992 -0.0225
              Bcc     0.0217     3.068     1.095     1.023  0.7264  0.5573  0.4022
 
              Baa    -0.0054    -0.760    -0.271    -0.253  0.7173 -0.6801 -0.1514
     4 Na(23) Bbb    -0.0023    -0.319    -0.114    -0.107  0.5952  0.7110 -0.3744
              Bcc     0.0076     1.079     0.385     0.360  0.3623  0.1785  0.9148
 
              Baa    -0.0117    -1.653    -0.590    -0.551  0.2984  0.8247 -0.4805
     5 Na(23) Bbb    -0.0068    -0.962    -0.343    -0.321  0.8207 -0.4787 -0.3119
              Bcc     0.0185     2.614     0.933     0.872  0.4872  0.3013  0.8197
 
              Baa    -0.0062    -0.872    -0.311    -0.291  0.3155  0.9072  0.2785
     6 Na(23) Bbb    -0.0028    -0.402    -0.143    -0.134  0.9316 -0.3518  0.0908
              Bcc     0.0090     1.274     0.455     0.425 -0.1803 -0.2308  0.9561
 
              Baa    -0.0181    -2.549    -0.910    -0.850  0.7015  0.7107  0.0533
     7 Na(23) Bbb    -0.0131    -1.856    -0.662    -0.619 -0.5575  0.5938 -0.5801
              Bcc     0.0312     4.406     1.572     1.470 -0.4440  0.3772  0.8128
 

 ---------------------------------------------------------------------------------

 No NMR shielding tensors so no spin-rotation constants.
 Leave Link  601 at Thu Dec  7 21:35:47 2023, MaxMem=  1879048192 cpu:               2.3 elap:               0.2
 (Enter /home/sekinelabo/g16/l701.exe)
 ... and contract with generalized density number  0.
 Compute integral first derivatives.
 Leave Link  701 at Thu Dec  7 21:35:47 2023, MaxMem=  1879048192 cpu:               1.5 elap:               0.1
 (Enter /home/sekinelabo/g16/l702.exe)
 L702 exits ... SP integral derivatives will be done elsewhere.
 Leave Link  702 at Thu Dec  7 21:35:47 2023, MaxMem=  1879048192 cpu:               0.5 elap:               0.0
 (Enter /home/sekinelabo/g16/l703.exe)
 Integral derivatives from FoFJK, PRISM(SPDF).
 Compute integral first derivatives, UseDBF=F ICtDFT=           0.
 Calling FoFJK, ICntrl=      2127 FMM=F ISym2X=0 I1Cent= 0 IOpClX= 1 NMat=1 NMatS=1 NMatT=0.
 FoFJK:  IHMeth= 1 ICntrl=    2127 DoSepK=F KAlg= 0 I1Cent=           0 FoldK=F
 IRaf=         0 NMat=       1 IRICut=       1 DoRegI=T DoRafI=F ISym2E= 0 IDoP0=0 IntGTp=1.
 FoFCou: FMM=F IPFlag=           0 FMFlag=      100000 FMFlg1=         800
         NFxFlg=           0 DoJE=F BraDBF=F KetDBF=F FulRan=T
         wScrn=  0.000000 ICntrl=      2127 IOpCl=  1 I1Cent=           0 NGrid=           0
         NMat0=    1 NMatS0=      1 NMatT0=    0 NMatD0=    1 NMtDS0=    0 NMtDT0=    0
 Symmetry not used in FoFCou.
 Leave Link  703 at Thu Dec  7 21:35:49 2023, MaxMem=  1879048192 cpu:              32.2 elap:               2.2
 (Enter /home/sekinelabo/g16/l716.exe)
 Dipole        = 1.25999655D-02 1.91997216D-01 2.98401603D-01
 ***** Axes restored to original set *****
 -------------------------------------------------------------------
 Center     Atomic                   Forces (Hartrees/Bohr)
 Number     Number              X              Y              Z
 -------------------------------------------------------------------
      1       11           0.000563593   -0.001272930    0.005604072
      2       11           0.003784147    0.001111339    0.000912996
      3       11           0.001643999    0.001582918    0.000112697
      4       11          -0.003793676    0.001130157   -0.000634252
      5       11          -0.001143216   -0.002645788   -0.002910706
      6       11          -0.000719599   -0.003297649   -0.004032479
      7       11          -0.000335248    0.003391953    0.000947671
 -------------------------------------------------------------------
 Cartesian Forces:  Max     0.005604072 RMS     0.002468593
 Z-matrix is all fixed cartesians, so copy forces.
 Force constants in Cartesian coordinates: 
                1             2             3             4             5 
      1  0.567470D-01
      2 -0.719068D-02  0.871517D-01
      3  0.139868D-01 -0.112149D-01  0.809902D-01
      4 -0.226486D-01 -0.850990D-02 -0.619335D-02  0.943036D-01
      5  0.198802D-01 -0.153259D-01  0.868522D-03  0.668569D-02  0.624185D-01
      6 -0.785775D-02  0.205873D-02 -0.148889D-01  0.135675D-01  0.411693D-02
      7 -0.242101D-01  0.839241D-02  0.698343D-03 -0.287991D-01 -0.267490D-02
      8 -0.175220D-01 -0.303115D-01 -0.941666D-02 -0.225053D-02 -0.125884D-01
      9 -0.407110D-02  0.108455D-01 -0.202319D-01 -0.444212D-02 -0.118043D-02
     10 -0.114262D-01 -0.241615D-02 -0.104147D-01  0.101777D-02  0.438081D-02
     11  0.518716D-02 -0.214711D-01  0.155986D-01 -0.761406D-03 -0.126156D-02
     12 -0.103559D-01 -0.830526D-02 -0.340674D-01 -0.499347D-03 -0.334146D-02
     13  0.164813D-02  0.871989D-03  0.230239D-02 -0.112865D-01  0.118769D-02
     14  0.290992D-02  0.161372D-03 -0.763704D-02 -0.925502D-03 -0.571163D-02
     15  0.111365D-02  0.972203D-04 -0.230650D-02  0.651407D-02  0.711784D-02
     16  0.754039D-02  0.191013D-02  0.180227D-02 -0.124983D-01 -0.161820D-01
     17  0.246389D-02 -0.202957D-02 -0.192195D-02  0.676539D-02 -0.143617D-01
     18  0.155751D-02 -0.640374D-03  0.255948D-02  0.132079D-02 -0.877936D-02
     19 -0.765073D-02  0.694222D-02 -0.218172D-02 -0.200889D-01 -0.132775D-01
     20 -0.572853D-02 -0.181750D-01  0.137235D-01 -0.100374D-02 -0.131693D-01
     21  0.562687D-02  0.715908D-02 -0.120550D-01 -0.102675D-01  0.119797D-02
                6             7             8             9            10 
      6  0.648152D-01
      7 -0.436380D-02  0.129321D+00
      8 -0.982854D-03  0.673787D-02  0.943079D-01
      9 -0.145471D-01  0.978960D-02  0.714919D-03  0.974931D-01
     10  0.637733D-02  0.219785D-02 -0.591337D-03 -0.116949D-02  0.160504D-01
     11 -0.436786D-02 -0.167475D-02  0.443433D-02 -0.598335D-02  0.475211D-02
     12 -0.280446D-02 -0.231209D-02 -0.556227D-02  0.826960D-03  0.890773D-02
     13 -0.169927D-01 -0.261211D-01 -0.737117D-02  0.178066D-01  0.678846D-04
     14 -0.495032D-02 -0.152439D-02 -0.131606D-01  0.467896D-03  0.404266D-04
     15 -0.137902D-01 -0.850094D-02  0.309270D-02 -0.189577D-01  0.278095D-04
     16 -0.615635D-02 -0.266868D-01  0.201410D-01  0.652719D-03  0.568070D-04
     17  0.423435D-02 -0.650557D-02 -0.209286D-01  0.624243D-03  0.162153D-05
     18 -0.725401D-02 -0.446955D-02 -0.159639D-02 -0.137581D-01  0.596543D-04
     19  0.154258D-01 -0.257020D-01  0.856123D-03 -0.185662D-01 -0.796455D-02
     20 -0.108976D-03 -0.275066D-02 -0.217531D-01 -0.548880D-02 -0.616748D-02
     21 -0.115305D-01  0.915844D-02  0.137505D-01 -0.308253D-01 -0.378834D-02
               11            12            13            14            15 
     11  0.361686D-01
     12  0.553313D-02  0.473674D-01
     13  0.161230D-04 -0.125200D-04  0.307937D-01
     14  0.272729D-04 -0.434693D-04  0.191005D-02  0.349173D-01
     15 -0.157660D-04 -0.720668D-05 -0.396070D-02 -0.787145D-02  0.489799D-01
     16 -0.943745D-05  0.119798D-04 -0.252839D-02 -0.286296D-02  0.169367D-02
     17  0.185966D-04 -0.198816D-04  0.259761D-02 -0.190179D-01 -0.270329D-02
     18 -0.552485D-04  0.859613D-05 -0.195526D-02  0.189455D-01 -0.121077D-01
     19 -0.750981D-02  0.426018D-02  0.742628D-02  0.452445D-03  0.311243D-02
     20 -0.179162D-01  0.117392D-01  0.787708D-03  0.278426D-02  0.282745D-03
     21 -0.107095D-01 -0.113238D-01  0.281217D-02  0.108886D-02 -0.181065D-02
               16            17            18            19            20 
     16  0.325302D-01
     17 -0.505780D-02  0.555067D-01
     18  0.664704D-04 -0.479479D-03  0.330682D-01
     19  0.158608D-02 -0.265128D-03  0.342039D-02  0.523937D-01
     20  0.206107D-02  0.812570D-03 -0.739466D-02  0.128016D-01  0.674168D-01
     21  0.192924D-02  0.266012D-03 -0.251653D-02 -0.547085D-02 -0.127530D-01
               21 
     21  0.700618D-01
 Leave Link  716 at Thu Dec  7 21:35:49 2023, MaxMem=  1879048192 cpu:               0.4 elap:               0.0
 (Enter /home/sekinelabo/g16/l103.exe)

 GradGradGradGradGradGradGradGradGradGradGradGradGradGradGradGradGradGrad
 Berny optimization.
 Search for a local minimum.
 Step number   1 out of a maximum of    2
 All quantities printed in internal units (Hartrees-Bohrs-Radians)
 Second derivative matrix not updated -- first step.
 ITU=  0
     Eigenvalues ---    0.02094   0.02534   0.03392   0.04487   0.06128
     Eigenvalues ---    0.06844   0.07143   0.07676   0.08779   0.10747
     Eigenvalues ---    0.12008   0.12057   0.13479   0.14011   0.16690
 Quadratic step=3.214D-01 exceeds max=3.000D-01 adjusted using Lamda=-1.694D-03.
 Angle between NR and scaled steps=   1.08 degrees.
 Angle between quadratic step and forces=  34.10 degrees.
 Linear search not attempted -- first point.
 B after Tr=    -0.000000    0.000000    0.000000
         Rot=    1.000000    0.000000    0.000000    0.000000 Ang=   0.00 deg.
 Variable       Old X    -DE/DX   Delta X   Delta X   Delta X     New X
                                 (Linear)    (Quad)   (Total)
    X1       25.14243   0.00056   0.00000   0.04920   0.04920  25.19163
    Y1       19.18167  -0.00127   0.00000   0.02951   0.02951  19.21118
    Z1       23.14291   0.00560   0.00000   0.07021   0.07021  23.21312
    X2       20.03714   0.00378   0.00000   0.08934   0.08934  20.12648
    Y2       23.61421   0.00111   0.00000  -0.00221  -0.00221  23.61199
    Z2       23.21547   0.00091   0.00000   0.00203   0.00203  23.21751
    X3       26.54215   0.00164   0.00000   0.02053   0.02053  26.56268
    Y3       24.97538   0.00158   0.00000   0.02259   0.02259  24.99797
    Z3       25.41171   0.00011   0.00000   0.01354   0.01354  25.42526
    X4       23.44243  -0.00379   0.00000  -0.14712  -0.14712  23.29531
    Y4       18.86049   0.00113   0.00000   0.06335   0.06335  18.92383
    Z4       17.59847  -0.00063   0.00000   0.07289   0.07289  17.67136
    X5       22.50343  -0.00114   0.00000  -0.02101  -0.02101  22.48242
    Y5       24.27504  -0.00265   0.00000  -0.06916  -0.06916  24.20589
    Z5       30.57388  -0.00291   0.00000  -0.10146  -0.10146  30.47242
    X6       22.53215  -0.00072   0.00000  -0.02876  -0.02876  22.50338
    Y6       29.85900  -0.00330   0.00000  -0.08846  -0.08846  29.77053
    Z6       26.71751  -0.00403   0.00000  -0.10795  -0.10795  26.60957
    X7       25.67722  -0.00034   0.00000   0.03783   0.03783  25.71505
    Y7       25.11144   0.00339   0.00000   0.04438   0.04438  25.15582
    Z7       19.21738   0.00095   0.00000   0.05073   0.05073  19.26812
         Item               Value     Threshold  Converged?
 Maximum Force            0.005604     0.000450     NO 
 RMS     Force            0.002469     0.000300     NO 
 Maximum Displacement     0.147124     0.001800     NO 
 RMS     Displacement     0.065500     0.001200     NO 
 Predicted change in Energy=-1.482088D-03
 GradGradGradGradGradGradGradGradGradGradGradGradGradGradGradGradGradGrad

 Leave Link  103 at Thu Dec  7 21:35:49 2023, MaxMem=  1879048192 cpu:               0.2 elap:               0.0
 (Enter /home/sekinelabo/g16/l9999.exe)
 1\1\GINC-SEKINELABO-XA7R-R37\Force\UB3LYP\6-311+G(d)\Na7(2)\SEKINELABO
 \07-Dec-2023\0\\#P B3LYP/6-311+g(d) force\\DPGEN\\0,2\Na,13.3048,10.15
 05,12.2467\Na,10.6032,12.4961,12.2851\Na,14.0455,13.2164,13.4473\Na,12
 .4052,9.98054,9.31271\Na,11.9083,12.8458,16.179\Na,11.9235,15.8007,14.
 1383\Na,13.5878,13.2884,10.1694\\Version=ES64L-G16RevB.01\State=2-A\HF
 =-1136.1120461\S2=0.765657\S2-1=0.\S2A=0.750164\RMSD=5.426e-09\RMSF=2.
 469e-03\Dipole=-0.2708029,0.1738203,-0.1500582\Quadrupole=-4.9211854,-
 0.8717935,5.7929789,-2.8228968,-0.2774544,10.2244055\PG=C01 [X(Na7)]\\
 @



 IN THIS SHORT LIFE

 THAT ONLY LASTS AN HOUR

 HOW MUCH, HOW LITTLE, IS WITHIN OUR POWER....


 EMILY DICKINSON BOLTS OF MELODY NO. 521
 Job cpu time:       0 days  0 hours  5 minutes 20.6 seconds.
 Elapsed time:       0 days  0 hours  0 minutes 27.8 seconds.
 File lengths (MBytes):  RWF=     32 Int=      0 D2E=      0 Chk=      4 Scr=      1
 Normal termination of Gaussian 16 at Thu Dec  7 21:35:49 2023.
