 Set GAUSS_MDEF to "14GB".
 Entering Gaussian System, Link 0=g16
 Initial command:
 /home/sekinelabo/g16/l1.exe "/home/sekinelabo/g16temp/Gau-253299.inp" -scrdir="/home/sekinelabo/g16temp/"
 Entering Link 1 = /home/sekinelabo/g16/l1.exe PID=    253301.
  
 Copyright (c) 1988-2017, Gaussian, Inc.  All Rights Reserved.
  
 This is part of the Gaussian(R) 16 program.  It is based on
 the Gaussian(R) 09 system (copyright 2009, Gaussian, Inc.),
 the Gaussian(R) 03 system (copyright 2003, Gaussian, Inc.),
 the Gaussian(R) 98 system (copyright 1998, Gaussian, Inc.),
 the Gaussian(R) 94 system (copyright 1995, Gaussian, Inc.),
 the Gaussian 92(TM) system (copyright 1992, Gaussian, Inc.),
 the Gaussian 90(TM) system (copyright 1990, Gaussian, Inc.),
 the Gaussian 88(TM) system (copyright 1988, Gaussian, Inc.),
 the Gaussian 86(TM) system (copyright 1986, Carnegie Mellon
 University), and the Gaussian 82(TM) system (copyright 1983,
 Carnegie Mellon University). Gaussian is a federally registered
 trademark of Gaussian, Inc.
  
 This software contains proprietary and confidential information,
 including trade secrets, belonging to Gaussian, Inc.
  
 This software is provided under written license and may be
 used, copied, transmitted, or stored only in accord with that
 written license.
  
 The following legend is applicable only to US Government
 contracts under FAR:
  
                    RESTRICTED RIGHTS LEGEND
  
 Use, reproduction and disclosure by the US Government is
 subject to restrictions as set forth in subparagraphs (a)
 and (c) of the Commercial Computer Software - Restricted
 Rights clause in FAR 52.227-19.
  
 Gaussian, Inc.
 340 Quinnipiac St., Bldg. 40, Wallingford CT 06492
  
  
 ---------------------------------------------------------------
 Warning -- This program may not be used in any manner that
 competes with the business of Gaussian, Inc. or will provide
 assistance to any competitor of Gaussian, Inc.  The licensee
 of this program is prohibited from giving any competitor of
 Gaussian, Inc. access to this program.  By using this program,
 the user acknowledges that Gaussian, Inc. is engaged in the
 business of creating and licensing software in the field of
 computational chemistry and represents and warrants to the
 licensee that it is not a competitor of Gaussian, Inc. and that
 it will not use this program in any manner prohibited above.
 ---------------------------------------------------------------
  

 Cite this work as:
 Gaussian 16, Revision B.01,
 M. J. Frisch, G. W. Trucks, H. B. Schlegel, G. E. Scuseria, 
 M. A. Robb, J. R. Cheeseman, G. Scalmani, V. Barone, 
 G. A. Petersson, H. Nakatsuji, X. Li, M. Caricato, A. V. Marenich, 
 J. Bloino, B. G. Janesko, R. Gomperts, B. Mennucci, H. P. Hratchian, 
 J. V. Ortiz, A. F. Izmaylov, J. L. Sonnenberg, D. Williams-Young, 
 F. Ding, F. Lipparini, F. Egidi, J. Goings, B. Peng, A. Petrone, 
 T. Henderson, D. Ranasinghe, V. G. Zakrzewski, J. Gao, N. Rega, 
 G. Zheng, W. Liang, M. Hada, M. Ehara, K. Toyota, R. Fukuda, 
 J. Hasegawa, M. Ishida, T. Nakajima, Y. Honda, O. Kitao, H. Nakai, 
 T. Vreven, K. Throssell, J. A. Montgomery, Jr., J. E. Peralta, 
 F. Ogliaro, M. J. Bearpark, J. J. Heyd, E. N. Brothers, K. N. Kudin, 
 V. N. Staroverov, T. A. Keith, R. Kobayashi, J. Normand, 
 K. Raghavachari, A. P. Rendell, J. C. Burant, S. S. Iyengar, 
 J. Tomasi, M. Cossi, J. M. Millam, M. Klene, C. Adamo, R. Cammi, 
 J. W. Ochterski, R. L. Martin, K. Morokuma, O. Farkas, 
 J. B. Foresman, and D. J. Fox, Gaussian, Inc., Wallingford CT, 2016.
 
 ******************************************
 Gaussian 16:  ES64L-G16RevB.01 20-Dec-2017
                29-Nov-2023 
 ******************************************
 %nproc=15
 Will use up to   15 processors via shared memory.
 -------------------------
 #P B3LYP/6-311+g(d) force
 -------------------------
 1/10=7,30=1,38=1/1,3;
 2/12=2,17=6,18=5,40=1/2;
 3/5=4,6=6,7=11,11=2,25=1,30=1,71=1,74=-5/1,2,3;
 4//1;
 5/5=2,38=5/2;
 6/7=2,8=2,9=2,10=2,28=1/1;
 7/29=1/1,2,3,16;
 1/10=7,30=1/3;
 99//99;
 Leave Link    1 at Wed Nov 29 00:55:47 2023, MaxMem=           0 cpu:               0.3 elap:               0.0
 (Enter /home/sekinelabo/g16/l101.exe)
 -----
 DPGEN
 -----
 Symbolic Z-matrix:
 Charge =  0 Multiplicity = 2
 Na                    13.5567   16.2422   14.6663 
 Na                    16.7879   16.0484   16.6127 
 Na                    17.1446   13.8533   14.0653 
 Na                    14.467    13.5702   15.7851 
 Na                    11.0738   13.6456   14.0671 
 Na                    19.8442   15.1662   15.1345 
 Na                    14.5512   18.8995   17.0946 
 
 ITRead=  0  0  0  0  0  0  0
 MicOpt= -1 -1 -1 -1 -1 -1 -1
 NAtoms=      7 NQM=        7 NQMF=       0 NMMI=      0 NMMIF=      0
                NMic=       0 NMicF=      0.
                    Isotopes and Nuclear Properties:
 (Nuclear quadrupole moments (NQMom) in fm**2, nuclear magnetic moments (NMagM)
  in nuclear magnetons)

  Atom         1           2           3           4           5           6           7
 IAtWgt=          23          23          23          23          23          23          23
 AtmWgt=  22.9897697  22.9897697  22.9897697  22.9897697  22.9897697  22.9897697  22.9897697
 NucSpn=           3           3           3           3           3           3           3
 AtZEff=  -0.0000000  -0.0000000  -0.0000000  -0.0000000  -0.0000000  -0.0000000  -0.0000000
 NQMom=   10.4000000  10.4000000  10.4000000  10.4000000  10.4000000  10.4000000  10.4000000
 NMagM=    2.2175200   2.2175200   2.2175200   2.2175200   2.2175200   2.2175200   2.2175200
 AtZNuc=  11.0000000  11.0000000  11.0000000  11.0000000  11.0000000  11.0000000  11.0000000
 Leave Link  101 at Wed Nov 29 00:55:48 2023, MaxMem=  1879048192 cpu:               2.4 elap:               0.2
 (Enter /home/sekinelabo/g16/l103.exe)

 GradGradGradGradGradGradGradGradGradGradGradGradGradGradGradGradGradGrad
 Berny optimization.
 Initialization pass.
 Trust Radius=3.00D-01 FncErr=1.00D-07 GrdErr=1.00D-07 EigMax=2.50D+02 EigMin=1.00D-04
 Number of steps in this run=      2 maximum allowed number of steps=      2.
 GradGradGradGradGradGradGradGradGradGradGradGradGradGradGradGradGradGrad

 Leave Link  103 at Wed Nov 29 00:55:48 2023, MaxMem=  1879048192 cpu:               0.2 elap:               0.0
 (Enter /home/sekinelabo/g16/l202.exe)
                          Input orientation:                          
 ---------------------------------------------------------------------
 Center     Atomic      Atomic             Coordinates (Angstroms)
 Number     Number       Type             X           Y           Z
 ---------------------------------------------------------------------
      1         11           0       13.556700   16.242200   14.666300
      2         11           0       16.787900   16.048400   16.612700
      3         11           0       17.144600   13.853300   14.065300
      4         11           0       14.467000   13.570200   15.785100
      5         11           0       11.073800   13.645600   14.067100
      6         11           0       19.844200   15.166200   15.134500
      7         11           0       14.551200   18.899500   17.094600
 ---------------------------------------------------------------------
                    Distance matrix (angstroms):
                    1          2          3          4          5
     1  Na   0.000000
     2  Na   3.777127   0.000000
     3  Na   4.352134   3.381560   0.000000
     4  Na   3.036436   3.494707   3.194902   0.000000
     5  Na   3.642275   6.701079   6.074352   3.804079   0.000000
     6  Na   6.396065   3.507752   3.186650   5.646661   8.965014
     7  Na   3.734557   3.655657   6.431681   5.488471   6.990102
                    6          7
     6  Na   0.000000
     7  Na   6.767228   0.000000
 Stoichiometry    Na7(2)
 Framework group  C1[X(Na7)]
 Deg. of freedom    15
 Full point group                 C1      NOp   1
 Largest Abelian subgroup         C1      NOp   1
 Largest concise Abelian subgroup C1      NOp   1
                         Standard orientation:                         
 ---------------------------------------------------------------------
 Center     Atomic      Atomic             Coordinates (Angstroms)
 Number     Number       Type             X           Y           Z
 ---------------------------------------------------------------------
      1         11           0       -1.743315    0.755744   -0.926301
      2         11           0        1.643847    0.967446    0.731710
      3         11           0        1.464536   -2.160178   -0.541381
      4         11           0       -1.017858   -1.237964    1.245975
      5         11           0       -4.552581   -1.427624   -0.147142
      6         11           0        4.396910   -0.931547   -0.326022
      7         11           0       -0.191540    4.034123   -0.036840
 ---------------------------------------------------------------------
 Rotational constants (GHZ):           0.7265991           0.4196303           0.2896135
 Leave Link  202 at Wed Nov 29 00:55:48 2023, MaxMem=  1879048192 cpu:               0.0 elap:               0.0
 (Enter /home/sekinelabo/g16/l301.exe)
 Standard basis: 6-311+G(d) (5D, 7F)
 Ernie: Thresh=  0.10000D-02 Tol=  0.10000D-05 Strict=F.
 There are   217 symmetry adapted cartesian basis functions of A   symmetry.
 There are   210 symmetry adapted basis functions of A   symmetry.
   210 basis functions,   350 primitive gaussians,   217 cartesian basis functions
    39 alpha electrons       38 beta electrons
       nuclear repulsion energy       306.3035806022 Hartrees.
 IExCor=  402 DFT=T Ex+Corr=B3LYP ExCW=0 ScaHFX=  0.200000
 ScaDFX=  0.800000  0.720000  1.000000  0.810000 ScalE2=  1.000000  1.000000
 IRadAn=      5 IRanWt=     -1 IRanGd=            0 ICorTp=0 IEmpDi=  4
 NAtoms=    7 NActive=    7 NUniq=    7 SFac= 1.00D+00 NAtFMM=   60 NAOKFM=F Big=F
 Integral buffers will be    131072 words long.
 Raffenetti 2 integral format.
 Two-electron integral symmetry is turned on.
 Leave Link  301 at Wed Nov 29 00:55:48 2023, MaxMem=  1879048192 cpu:               0.5 elap:               0.0
 (Enter /home/sekinelabo/g16/l302.exe)
 NPDir=0 NMtPBC=     1 NCelOv=     1 NCel=       1 NClECP=     1 NCelD=      1
         NCelK=      1 NCelE2=     1 NClLst=     1 CellRange=     0.0.
 One-electron integrals computed using PRISM.
 One-electron integral symmetry used in STVInt
 NBasis=   210 RedAO= T EigKep=  6.91D-06  NBF=   210
 NBsUse=   210 1.00D-06 EigRej= -1.00D+00 NBFU=   210
 Precomputing XC quadrature grid using
 IXCGrd= 4 IRadAn=           5 IRanWt=          -1 IRanGd=           0 AccXCQ= 0.00D+00.
 Generated NRdTot=       0 NPtTot=           0 NUsed=           0 NTot=          32
 NSgBfM=   206   206   206   206   206 MxSgAt=     7 MxSgA2=     7.
 Leave Link  302 at Wed Nov 29 00:55:48 2023, MaxMem=  1879048192 cpu:               2.0 elap:               0.1
 (Enter /home/sekinelabo/g16/l303.exe)
 DipDrv:  MaxL=1.
 Leave Link  303 at Wed Nov 29 00:55:48 2023, MaxMem=  1879048192 cpu:               0.5 elap:               0.0
 (Enter /home/sekinelabo/g16/l401.exe)
 ExpMin= 7.60D-03 ExpMax= 3.62D+04 ExpMxC= 1.21D+03 IAcc=3 IRadAn=         5 AccDes= 0.00D+00
 Harris functional with IExCor=  402 and IRadAn=       5 diagonalized for initial guess.
 HarFok:  IExCor=  402 AccDes= 0.00D+00 IRadAn=         5 IDoV= 1 UseB2=F ITyADJ=14
 ICtDFT=  3500011 ScaDFX=  1.000000  1.000000  1.000000  1.000000
 FoFCou: FMM=F IPFlag=           0 FMFlag=      100000 FMFlg1=           0
         NFxFlg=           0 DoJE=T BraDBF=F KetDBF=T FulRan=T
         wScrn=  0.000000 ICntrl=       500 IOpCl=  0 I1Cent=   200000004 NGrid=           0
         NMat0=    1 NMatS0=      1 NMatT0=    0 NMatD0=    1 NMtDS0=    0 NMtDT0=    0
 Petite list used in FoFCou.
 Harris En= -1135.89124042442    
 JPrj=0 DoOrth=F DoCkMO=F.
 Initial guess <Sx>= 0.0000 <Sy>= 0.0000 <Sz>= 0.5000 <S**2>= 0.7500 S= 0.5000
 Leave Link  401 at Wed Nov 29 00:55:48 2023, MaxMem=  1879048192 cpu:               4.3 elap:               0.3
 (Enter /home/sekinelabo/g16/l502.exe)
 Keep R1 and R2 ints in memory in canonical form, NReq=506573321.
 FoFCou: FMM=F IPFlag=           0 FMFlag=           0 FMFlg1=           0
         NFxFlg=           0 DoJE=F BraDBF=F KetDBF=F FulRan=T
         wScrn=  0.000000 ICntrl=       600 IOpCl=  0 I1Cent=           0 NGrid=           0
         NMat0=    1 NMatS0=  22155 NMatT0=    0 NMatD0=    1 NMtDS0=    0 NMtDT0=    0
 Symmetry not used in FoFCou.
 Two-electron integral symmetry not used.
 UHF open shell SCF:
 Using DIIS extrapolation, IDIIS=  1040.
 NGot=  1879048192 LenX=  1388082579 LenY=  1388035049
 Requested convergence on RMS density matrix=1.00D-08 within 128 cycles.
 Requested convergence on MAX density matrix=1.00D-06.
 Requested convergence on             energy=1.00D-06.
 No special actions if energy rises.

 Cycle   1  Pass 1  IDiag  1:
 E= -1136.09332458953    
 DIIS: error= 1.03D-02 at cycle   1 NSaved=   1.
 NSaved= 1 IEnMin= 1 EnMin= -1136.09332458953     IErMin= 1 ErrMin= 1.03D-02
 ErrMax= 1.03D-02  0.00D+00 EMaxC= 1.00D-01 BMatC= 1.85D-01 BMatP= 1.85D-01
 IDIUse=3 WtCom= 8.97D-01 WtEn= 1.03D-01
 Coeff-Com:  0.100D+01
 Coeff-En:   0.100D+01
 Coeff:      0.100D+01
 Gap=     0.046 Goal=   None    Shift=    0.000
 Gap=     0.041 Goal=   None    Shift=    0.000
 GapD=    0.041 DampG=0.250 DampE=0.500 DampFc=0.2500 IDamp=-1.
 Damping current iteration by 2.50D-01
 RMSDP=1.25D-02 MaxDP=1.36D+00              OVMax= 2.20D-01

 Cycle   2  Pass 1  IDiag  1:
 E= -1136.10315462588     Delta-E=       -0.009830036343 Rises=F Damp=T
 DIIS: error= 7.20D-03 at cycle   2 NSaved=   2.
 NSaved= 2 IEnMin= 2 EnMin= -1136.10315462588     IErMin= 2 ErrMin= 7.20D-03
 ErrMax= 7.20D-03  0.00D+00 EMaxC= 1.00D-01 BMatC= 7.12D-02 BMatP= 1.85D-01
 IDIUse=3 WtCom= 9.28D-01 WtEn= 7.20D-02
 Coeff-Com: -0.128D+01 0.228D+01
 Coeff-En:   0.000D+00 0.100D+01
 Coeff:     -0.119D+01 0.219D+01
 Gap=     0.043 Goal=   None    Shift=    0.000
 Gap=     0.047 Goal=   None    Shift=    0.000
 RMSDP=5.46D-03 MaxDP=4.70D-01 DE=-9.83D-03 OVMax= 1.63D-01

 Cycle   3  Pass 1  IDiag  1:
 E= -1136.11975142369     Delta-E=       -0.016596797814 Rises=F Damp=F
 DIIS: error= 3.37D-03 at cycle   3 NSaved=   3.
 NSaved= 3 IEnMin= 3 EnMin= -1136.11975142369     IErMin= 3 ErrMin= 3.37D-03
 ErrMax= 3.37D-03  0.00D+00 EMaxC= 1.00D-01 BMatC= 2.91D-03 BMatP= 7.12D-02
 IDIUse=3 WtCom= 9.66D-01 WtEn= 3.37D-02
 Coeff-Com: -0.239D+00 0.412D+00 0.827D+00
 Coeff-En:   0.000D+00 0.000D+00 0.100D+01
 Coeff:     -0.231D+00 0.398D+00 0.833D+00
 Gap=     0.045 Goal=   None    Shift=    0.000
 Gap=     0.047 Goal=   None    Shift=    0.000
 RMSDP=3.02D-03 MaxDP=3.41D-01 DE=-1.66D-02 OVMax= 9.85D-02

 Cycle   4  Pass 1  IDiag  1:
 E= -1136.11933243600     Delta-E=        0.000418987692 Rises=F Damp=F
 DIIS: error= 3.70D-03 at cycle   4 NSaved=   4.
 NSaved= 4 IEnMin= 3 EnMin= -1136.11975142369     IErMin= 3 ErrMin= 3.37D-03
 ErrMax= 3.70D-03  0.00D+00 EMaxC= 1.00D-01 BMatC= 3.46D-03 BMatP= 2.91D-03
 IDIUse=3 WtCom= 1.41D-01 WtEn= 8.59D-01
 Coeff-Com: -0.142D-01 0.182D-01 0.521D+00 0.475D+00
 Coeff-En:   0.000D+00 0.000D+00 0.528D+00 0.472D+00
 Coeff:     -0.200D-02 0.258D-02 0.527D+00 0.473D+00
 Gap=     0.043 Goal=   None    Shift=    0.000
 Gap=     0.047 Goal=   None    Shift=    0.000
 RMSDP=1.48D-03 MaxDP=1.70D-01 DE= 4.19D-04 OVMax= 5.63D-02

 Cycle   5  Pass 1  IDiag  1:
 E= -1136.12272244652     Delta-E=       -0.003390010523 Rises=F Damp=F
 DIIS: error= 2.08D-04 at cycle   5 NSaved=   5.
 NSaved= 5 IEnMin= 5 EnMin= -1136.12272244652     IErMin= 5 ErrMin= 2.08D-04
 ErrMax= 2.08D-04  0.00D+00 EMaxC= 1.00D-01 BMatC= 2.36D-05 BMatP= 2.91D-03
 IDIUse=3 WtCom= 9.98D-01 WtEn= 2.08D-03
 Coeff-Com:  0.192D-02-0.372D-02 0.194D+00 0.170D+00 0.638D+00
 Coeff-En:   0.000D+00 0.000D+00 0.000D+00 0.000D+00 0.100D+01
 Coeff:      0.191D-02-0.371D-02 0.194D+00 0.170D+00 0.638D+00
 Gap=     0.042 Goal=   None    Shift=    0.000
 Gap=     0.047 Goal=   None    Shift=    0.000
 RMSDP=2.27D-04 MaxDP=1.40D-02 DE=-3.39D-03 OVMax= 9.45D-03

 Cycle   6  Pass 1  IDiag  1:
 E= -1136.12274983035     Delta-E=       -0.000027383827 Rises=F Damp=F
 DIIS: error= 1.72D-04 at cycle   6 NSaved=   6.
 NSaved= 6 IEnMin= 6 EnMin= -1136.12274983035     IErMin= 6 ErrMin= 1.72D-04
 ErrMax= 1.72D-04  0.00D+00 EMaxC= 1.00D-01 BMatC= 9.04D-06 BMatP= 2.36D-05
 IDIUse=3 WtCom= 9.98D-01 WtEn= 1.72D-03
 Coeff-Com:  0.521D-02-0.737D-02-0.790D-01-0.790D-01 0.372D+00 0.788D+00
 Coeff-En:   0.000D+00 0.000D+00 0.000D+00 0.000D+00 0.107D+00 0.893D+00
 Coeff:      0.520D-02-0.736D-02-0.788D-01-0.789D-01 0.372D+00 0.788D+00
 Gap=     0.043 Goal=   None    Shift=    0.000
 Gap=     0.048 Goal=   None    Shift=    0.000
 RMSDP=2.07D-04 MaxDP=1.57D-02 DE=-2.74D-05 OVMax= 6.08D-03

 Cycle   7  Pass 1  IDiag  1:
 E= -1136.12276887749     Delta-E=       -0.000019047139 Rises=F Damp=F
 DIIS: error= 4.17D-05 at cycle   7 NSaved=   7.
 NSaved= 7 IEnMin= 7 EnMin= -1136.12276887749     IErMin= 7 ErrMin= 4.17D-05
 ErrMax= 4.17D-05  0.00D+00 EMaxC= 1.00D-01 BMatC= 5.73D-07 BMatP= 9.04D-06
 IDIUse=1 WtCom= 1.00D+00 WtEn= 0.00D+00
 Coeff-Com:  0.468D-03-0.539D-03-0.345D-01-0.288D-01-0.549D-01 0.756D-01
 Coeff-Com:  0.104D+01
 Coeff:      0.468D-03-0.539D-03-0.345D-01-0.288D-01-0.549D-01 0.756D-01
 Coeff:      0.104D+01
 Gap=     0.043 Goal=   None    Shift=    0.000
 Gap=     0.048 Goal=   None    Shift=    0.000
 RMSDP=1.02D-04 MaxDP=6.29D-03 DE=-1.90D-05 OVMax= 2.61D-03

 Cycle   8  Pass 1  IDiag  1:
 E= -1136.12277144299     Delta-E=       -0.000002565499 Rises=F Damp=F
 DIIS: error= 2.37D-05 at cycle   8 NSaved=   8.
 NSaved= 8 IEnMin= 8 EnMin= -1136.12277144299     IErMin= 8 ErrMin= 2.37D-05
 ErrMax= 2.37D-05  0.00D+00 EMaxC= 1.00D-01 BMatC= 2.09D-07 BMatP= 5.73D-07
 IDIUse=1 WtCom= 1.00D+00 WtEn= 0.00D+00
 Coeff-Com: -0.176D-03 0.334D-03-0.689D-02-0.385D-02-0.755D-01-0.641D-01
 Coeff-Com:  0.445D+00 0.705D+00
 Coeff:     -0.176D-03 0.334D-03-0.689D-02-0.385D-02-0.755D-01-0.641D-01
 Coeff:      0.445D+00 0.705D+00
 Gap=     0.043 Goal=   None    Shift=    0.000
 Gap=     0.048 Goal=   None    Shift=    0.000
 RMSDP=3.99D-05 MaxDP=2.51D-03 DE=-2.57D-06 OVMax= 1.59D-03

 Cycle   9  Pass 1  IDiag  1:
 E= -1136.12277200698     Delta-E=       -0.000000563994 Rises=F Damp=F
 DIIS: error= 1.48D-05 at cycle   9 NSaved=   9.
 NSaved= 9 IEnMin= 9 EnMin= -1136.12277200698     IErMin= 9 ErrMin= 1.48D-05
 ErrMax= 1.48D-05  0.00D+00 EMaxC= 1.00D-01 BMatC= 7.55D-08 BMatP= 2.09D-07
 IDIUse=1 WtCom= 1.00D+00 WtEn= 0.00D+00
 Coeff-Com: -0.939D-04 0.164D-03 0.488D-02 0.462D-02-0.231D-01-0.459D-01
 Coeff-Com: -0.764D-01 0.385D+00 0.751D+00
 Coeff:     -0.939D-04 0.164D-03 0.488D-02 0.462D-02-0.231D-01-0.459D-01
 Coeff:     -0.764D-01 0.385D+00 0.751D+00
 Gap=     0.043 Goal=   None    Shift=    0.000
 Gap=     0.048 Goal=   None    Shift=    0.000
 RMSDP=2.20D-05 MaxDP=9.60D-04 DE=-5.64D-07 OVMax= 9.02D-04

 Cycle  10  Pass 1  IDiag  1:
 E= -1136.12277225702     Delta-E=       -0.000000250038 Rises=F Damp=F
 DIIS: error= 4.85D-06 at cycle  10 NSaved=  10.
 NSaved=10 IEnMin=10 EnMin= -1136.12277225702     IErMin=10 ErrMin= 4.85D-06
 ErrMax= 4.85D-06  0.00D+00 EMaxC= 1.00D-01 BMatC= 1.11D-08 BMatP= 7.55D-08
 IDIUse=1 WtCom= 1.00D+00 WtEn= 0.00D+00
 Coeff-Com: -0.368D-04 0.424D-04 0.296D-02 0.179D-02 0.129D-01 0.792D-02
 Coeff-Com: -0.117D+00-0.933D-01 0.116D+00 0.107D+01
 Coeff:     -0.368D-04 0.424D-04 0.296D-02 0.179D-02 0.129D-01 0.792D-02
 Coeff:     -0.117D+00-0.933D-01 0.116D+00 0.107D+01
 Gap=     0.043 Goal=   None    Shift=    0.000
 Gap=     0.048 Goal=   None    Shift=    0.000
 RMSDP=1.56D-05 MaxDP=7.20D-04 DE=-2.50D-07 OVMax= 6.00D-04

 Cycle  11  Pass 1  IDiag  1:
 E= -1136.12277233724     Delta-E=       -0.000000080221 Rises=F Damp=F
 DIIS: error= 2.48D-06 at cycle  11 NSaved=  11.
 NSaved=11 IEnMin=11 EnMin= -1136.12277233724     IErMin=11 ErrMin= 2.48D-06
 ErrMax= 2.48D-06  0.00D+00 EMaxC= 1.00D-01 BMatC= 3.44D-09 BMatP= 1.11D-08
 IDIUse=1 WtCom= 1.00D+00 WtEn= 0.00D+00
 Coeff-Com: -0.177D-04 0.105D-04-0.169D-03-0.492D-03 0.117D-01 0.171D-01
 Coeff-Com: -0.221D-01-0.149D+00-0.180D+00 0.349D+00 0.974D+00
 Coeff:     -0.177D-04 0.105D-04-0.169D-03-0.492D-03 0.117D-01 0.171D-01
 Coeff:     -0.221D-01-0.149D+00-0.180D+00 0.349D+00 0.974D+00
 Gap=     0.043 Goal=   None    Shift=    0.000
 Gap=     0.048 Goal=   None    Shift=    0.000
 RMSDP=9.17D-06 MaxDP=4.06D-04 DE=-8.02D-08 OVMax= 3.85D-04

 Cycle  12  Pass 1  IDiag  1:
 E= -1136.12277236255     Delta-E=       -0.000000025316 Rises=F Damp=F
 DIIS: error= 1.20D-06 at cycle  12 NSaved=  12.
 NSaved=12 IEnMin=12 EnMin= -1136.12277236255     IErMin=12 ErrMin= 1.20D-06
 ErrMax= 1.20D-06  0.00D+00 EMaxC= 1.00D-01 BMatC= 7.55D-10 BMatP= 3.44D-09
 IDIUse=1 WtCom= 1.00D+00 WtEn= 0.00D+00
 Coeff-Com:  0.111D-04-0.191D-04-0.581D-03-0.348D-03 0.441D-03 0.326D-02
 Coeff-Com:  0.162D-01-0.186D-01-0.778D-01-0.166D+00 0.283D+00 0.960D+00
 Coeff:      0.111D-04-0.191D-04-0.581D-03-0.348D-03 0.441D-03 0.326D-02
 Coeff:      0.162D-01-0.186D-01-0.778D-01-0.166D+00 0.283D+00 0.960D+00
 Gap=     0.043 Goal=   None    Shift=    0.000
 Gap=     0.048 Goal=   None    Shift=    0.000
 RMSDP=4.33D-06 MaxDP=1.82D-04 DE=-2.53D-08 OVMax= 1.95D-04

 Cycle  13  Pass 1  IDiag  1:
 E= -1136.12277236778     Delta-E=       -0.000000005221 Rises=F Damp=F
 DIIS: error= 5.43D-07 at cycle  13 NSaved=  13.
 NSaved=13 IEnMin=13 EnMin= -1136.12277236778     IErMin=13 ErrMin= 5.43D-07
 ErrMax= 5.43D-07  0.00D+00 EMaxC= 1.00D-01 BMatC= 1.16D-10 BMatP= 7.55D-10
 IDIUse=1 WtCom= 1.00D+00 WtEn= 0.00D+00
 Coeff-Com:  0.987D-05-0.115D-04-0.101D-03 0.394D-04-0.256D-02-0.332D-02
 Coeff-Com:  0.951D-02 0.292D-01 0.183D-01-0.114D+00-0.140D+00 0.173D+00
 Coeff-Com:  0.103D+01
 Coeff:      0.987D-05-0.115D-04-0.101D-03 0.394D-04-0.256D-02-0.332D-02
 Coeff:      0.951D-02 0.292D-01 0.183D-01-0.114D+00-0.140D+00 0.173D+00
 Coeff:      0.103D+01
 Gap=     0.043 Goal=   None    Shift=    0.000
 Gap=     0.048 Goal=   None    Shift=    0.000
 RMSDP=1.84D-06 MaxDP=8.79D-05 DE=-5.22D-09 OVMax= 8.40D-05

 Cycle  14  Pass 1  IDiag  1:
 E= -1136.12277236863     Delta-E=       -0.000000000856 Rises=F Damp=F
 DIIS: error= 2.60D-07 at cycle  14 NSaved=  14.
 NSaved=14 IEnMin=14 EnMin= -1136.12277236863     IErMin=14 ErrMin= 2.60D-07
 ErrMax= 2.60D-07  0.00D+00 EMaxC= 1.00D-01 BMatC= 2.77D-11 BMatP= 1.16D-10
 IDIUse=1 WtCom= 1.00D+00 WtEn= 0.00D+00
 Coeff-Com:  0.282D-05-0.261D-05 0.593D-05 0.318D-04-0.990D-03-0.169D-02
 Coeff-Com:  0.186D-02 0.131D-01 0.179D-01-0.227D-01-0.846D-01-0.735D-01
 Coeff-Com:  0.350D+00 0.800D+00
 Coeff:      0.282D-05-0.261D-05 0.593D-05 0.318D-04-0.990D-03-0.169D-02
 Coeff:      0.186D-02 0.131D-01 0.179D-01-0.227D-01-0.846D-01-0.735D-01
 Coeff:      0.350D+00 0.800D+00
 Gap=     0.043 Goal=   None    Shift=    0.000
 Gap=     0.048 Goal=   None    Shift=    0.000
 RMSDP=5.34D-07 MaxDP=2.40D-05 DE=-8.56D-10 OVMax= 2.58D-05

 Cycle  15  Pass 1  IDiag  1:
 E= -1136.12277236875     Delta-E=       -0.000000000120 Rises=F Damp=F
 DIIS: error= 9.84D-08 at cycle  15 NSaved=  15.
 NSaved=15 IEnMin=15 EnMin= -1136.12277236875     IErMin=15 ErrMin= 9.84D-08
 ErrMax= 9.84D-08  0.00D+00 EMaxC= 1.00D-01 BMatC= 5.56D-12 BMatP= 2.77D-11
 IDIUse=1 WtCom= 1.00D+00 WtEn= 0.00D+00
 Coeff-Com: -0.452D-05 0.591D-05 0.348D-04-0.112D-04 0.501D-03 0.703D-03
 Coeff-Com: -0.174D-02-0.758D-02-0.326D-02 0.336D-01 0.241D-01-0.644D-01
 Coeff-Com: -0.226D+00 0.646D-01 0.118D+01
 Coeff:     -0.452D-05 0.591D-05 0.348D-04-0.112D-04 0.501D-03 0.703D-03
 Coeff:     -0.174D-02-0.758D-02-0.326D-02 0.336D-01 0.241D-01-0.644D-01
 Coeff:     -0.226D+00 0.646D-01 0.118D+01
 Gap=     0.043 Goal=   None    Shift=    0.000
 Gap=     0.048 Goal=   None    Shift=    0.000
 RMSDP=3.22D-07 MaxDP=1.50D-05 DE=-1.20D-10 OVMax= 1.70D-05

 Cycle  16  Pass 1  IDiag  1:
 E= -1136.12277236880     Delta-E=       -0.000000000046 Rises=F Damp=F
 DIIS: error= 4.42D-08 at cycle  16 NSaved=  16.
 NSaved=16 IEnMin=16 EnMin= -1136.12277236880     IErMin=16 ErrMin= 4.42D-08
 ErrMax= 4.42D-08  0.00D+00 EMaxC= 1.00D-01 BMatC= 8.66D-13 BMatP= 5.56D-12
 IDIUse=1 WtCom= 1.00D+00 WtEn= 0.00D+00
 Coeff-Com:  0.650D-07-0.268D-06 0.549D-05 0.409D-05 0.113D-03 0.168D-03
 Coeff-Com: -0.188D-03-0.133D-02-0.262D-02 0.141D-02 0.125D-01 0.173D-01
 Coeff-Com: -0.486D-01-0.123D+00-0.871D-01 0.123D+01
 Coeff:      0.650D-07-0.268D-06 0.549D-05 0.409D-05 0.113D-03 0.168D-03
 Coeff:     -0.188D-03-0.133D-02-0.262D-02 0.141D-02 0.125D-01 0.173D-01
 Coeff:     -0.486D-01-0.123D+00-0.871D-01 0.123D+01
 Gap=     0.043 Goal=   None    Shift=    0.000
 Gap=     0.048 Goal=   None    Shift=    0.000
 RMSDP=1.69D-07 MaxDP=1.91D-05 DE=-4.64D-11 OVMax= 9.01D-06

 Cycle  17  Pass 1  IDiag  1:
 E= -1136.12277236881     Delta-E=       -0.000000000010 Rises=F Damp=F
 DIIS: error= 2.09D-08 at cycle  17 NSaved=  17.
 NSaved=17 IEnMin=17 EnMin= -1136.12277236881     IErMin=17 ErrMin= 2.09D-08
 ErrMax= 2.09D-08  0.00D+00 EMaxC= 1.00D-01 BMatC= 1.91D-13 BMatP= 8.66D-13
 IDIUse=1 WtCom= 1.00D+00 WtEn= 0.00D+00
 Coeff-Com:  0.111D-05-0.147D-05-0.949D-05 0.125D-05-0.907D-04-0.178D-03
 Coeff-Com:  0.334D-03 0.173D-02 0.852D-03-0.682D-02-0.663D-02 0.108D-01
 Coeff-Com:  0.543D-01-0.151D-02-0.278D+00 0.870D-02 0.122D+01
 Coeff:      0.111D-05-0.147D-05-0.949D-05 0.125D-05-0.907D-04-0.178D-03
 Coeff:      0.334D-03 0.173D-02 0.852D-03-0.682D-02-0.663D-02 0.108D-01
 Coeff:      0.543D-01-0.151D-02-0.278D+00 0.870D-02 0.122D+01
 Gap=     0.043 Goal=   None    Shift=    0.000
 Gap=     0.048 Goal=   None    Shift=    0.000
 RMSDP=9.67D-08 MaxDP=1.19D-05 DE=-1.05D-11 OVMax= 4.39D-06

 Cycle  18  Pass 1  IDiag  1:
 E= -1136.12277236881     Delta-E=       -0.000000000003 Rises=F Damp=F
 DIIS: error= 8.40D-09 at cycle  18 NSaved=  18.
 NSaved=18 IEnMin=18 EnMin= -1136.12277236881     IErMin=18 ErrMin= 8.40D-09
 ErrMax= 8.40D-09  0.00D+00 EMaxC= 1.00D-01 BMatC= 3.15D-14 BMatP= 1.91D-13
 IDIUse=1 WtCom= 1.00D+00 WtEn= 0.00D+00
 Coeff-Com:  0.200D-08 0.253D-07-0.232D-05-0.157D-05-0.221D-04-0.216D-04
 Coeff-Com:  0.317D-04 0.256D-03 0.471D-03-0.700D-03-0.212D-02-0.846D-03
 Coeff-Com:  0.819D-02 0.127D-01 0.173D-01-0.221D+00 0.613D-01 0.112D+01
 Coeff:      0.200D-08 0.253D-07-0.232D-05-0.157D-05-0.221D-04-0.216D-04
 Coeff:      0.317D-04 0.256D-03 0.471D-03-0.700D-03-0.212D-02-0.846D-03
 Coeff:      0.819D-02 0.127D-01 0.173D-01-0.221D+00 0.613D-01 0.112D+01
 Gap=     0.043 Goal=   None    Shift=    0.000
 Gap=     0.048 Goal=   None    Shift=    0.000
 RMSDP=3.46D-08 MaxDP=4.73D-06 DE=-3.41D-12 OVMax= 1.50D-06

 Cycle  19  Pass 1  IDiag  1:
 E= -1136.12277236880     Delta-E=        0.000000000009 Rises=F Damp=F
 DIIS: error= 4.56D-09 at cycle  19 NSaved=  19.
 NSaved=19 IEnMin=18 EnMin= -1136.12277236881     IErMin=19 ErrMin= 4.56D-09
 ErrMax= 4.56D-09  0.00D+00 EMaxC= 1.00D-01 BMatC= 7.13D-15 BMatP= 3.15D-14
 IDIUse=1 WtCom= 1.00D+00 WtEn= 0.00D+00
 Coeff-Com: -0.152D-06 0.207D-06 0.172D-05-0.416D-06 0.165D-04 0.281D-04
 Coeff-Com: -0.718D-04-0.284D-03-0.876D-04 0.139D-02 0.829D-03-0.284D-02
 Coeff-Com: -0.887D-02 0.454D-02 0.467D-01-0.488D-02-0.241D+00 0.127D+00
 Coeff-Com:  0.108D+01
 Coeff:     -0.152D-06 0.207D-06 0.172D-05-0.416D-06 0.165D-04 0.281D-04
 Coeff:     -0.718D-04-0.284D-03-0.876D-04 0.139D-02 0.829D-03-0.284D-02
 Coeff:     -0.887D-02 0.454D-02 0.467D-01-0.488D-02-0.241D+00 0.127D+00
 Coeff:      0.108D+01
 Gap=     0.043 Goal=   None    Shift=    0.000
 Gap=     0.048 Goal=   None    Shift=    0.000
 RMSDP=9.78D-09 MaxDP=1.10D-06 DE= 9.32D-12 OVMax= 6.05D-07

 Cycle  20  Pass 1  IDiag  1:
 E= -1136.12277236880     Delta-E=        0.000000000000 Rises=F Damp=F
 DIIS: error= 2.29D-09 at cycle  20 NSaved=  20.
 NSaved=20 IEnMin=18 EnMin= -1136.12277236881     IErMin=20 ErrMin= 2.29D-09
 ErrMax= 2.29D-09  0.00D+00 EMaxC= 1.00D-01 BMatC= 1.45D-15 BMatP= 7.13D-15
 IDIUse=1 WtCom= 1.00D+00 WtEn= 0.00D+00
 Large coefficients: NSaved= 20 BigCof=    0.00 CofMax=   10.00 Det=-2.12D-15
 Inversion failed.  Reducing to 19 matrices.
 Large coefficients: NSaved= 19 BigCof=    0.00 CofMax=   10.00 Det=-2.21D-15
 Inversion failed.  Reducing to 18 matrices.
 Large coefficients: NSaved= 18 BigCof=    0.00 CofMax=   10.00 Det=-2.23D-15
 Inversion failed.  Reducing to 17 matrices.
 Large coefficients: NSaved= 17 BigCof=    0.00 CofMax=   10.00 Det=-2.25D-15
 Inversion failed.  Reducing to 16 matrices.
 Large coefficients: NSaved= 16 BigCof=    0.00 CofMax=   10.00 Det=-3.09D-15
 Inversion failed.  Reducing to 15 matrices.
 Coeff-Com:  0.388D-06 0.817D-05-0.432D-05-0.594D-04-0.709D-05 0.243D-03
 Coeff-Com:  0.346D-03-0.160D-02-0.167D-02-0.996D-03 0.333D-01-0.102D-02
 Coeff-Com: -0.235D+00 0.696D-02 0.120D+01
 Coeff:      0.388D-06 0.817D-05-0.432D-05-0.594D-04-0.709D-05 0.243D-03
 Coeff:      0.346D-03-0.160D-02-0.167D-02-0.996D-03 0.333D-01-0.102D-02
 Coeff:     -0.235D+00 0.696D-02 0.120D+01
 Gap=     0.043 Goal=   None    Shift=    0.000
 Gap=     0.048 Goal=   None    Shift=    0.000
 RMSDP=4.51D-09 MaxDP=2.44D-07 DE= 4.55D-13 OVMax= 3.23D-07

 SCF Done:  E(UB3LYP) =  -1136.12277237     A.U. after   20 cycles
            NFock= 20  Conv=0.45D-08     -V/T= 2.0028
 <Sx>= 0.0000 <Sy>= 0.0000 <Sz>= 0.5000 <S**2>= 0.7778 S= 0.5138
 <L.S>= 0.000000000000E+00
 KE= 1.132914503921D+03 PE=-3.341909949749D+03 EE= 7.665690928571D+02
 Annihilation of the first spin contaminant:
 S**2 before annihilation     0.7778,   after     0.7503
 Leave Link  502 at Wed Nov 29 00:56:05 2023, MaxMem=  1879048192 cpu:             180.1 elap:              16.3
 (Enter /home/sekinelabo/g16/l601.exe)
 Copying SCF densities to generalized density rwf, IOpCl= 1 IROHF=0.

 **********************************************************************

            Population analysis using the SCF Density.

 **********************************************************************

 Orbital symmetries:
 Alpha Orbitals:
       Occupied  (A) (A) (A) (A) (A) (A) (A) (A) (A) (A) (A) (A)
                 (A) (A) (A) (A) (A) (A) (A) (A) (A) (A) (A) (A)
                 (A) (A) (A) (A) (A) (A) (A) (A) (A) (A) (A) (A)
                 (A) (A) (A)
       Virtual   (A) (A) (A) (A) (A) (A) (A) (A) (A) (A) (A) (A)
                 (A) (A) (A) (A) (A) (A) (A) (A) (A) (A) (A) (A)
                 (A) (A) (A) (A) (A) (A) (A) (A) (A) (A) (A) (A)
                 (A) (A) (A) (A) (A) (A) (A) (A) (A) (A) (A) (A)
                 (A) (A) (A) (A) (A) (A) (A) (A) (A) (A) (A) (A)
                 (A) (A) (A) (A) (A) (A) (A) (A) (A) (A) (A) (A)
                 (A) (A) (A) (A) (A) (A) (A) (A) (A) (A) (A) (A)
                 (A) (A) (A) (A) (A) (A) (A) (A) (A) (A) (A) (A)
                 (A) (A) (A) (A) (A) (A) (A) (A) (A) (A) (A) (A)
                 (A) (A) (A) (A) (A) (A) (A) (A) (A) (A) (A) (A)
                 (A) (A) (A) (A) (A) (A) (A) (A) (A) (A) (A) (A)
                 (A) (A) (A) (A) (A) (A) (A) (A) (A) (A) (A) (A)
                 (A) (A) (A) (A) (A) (A) (A) (A) (A) (A) (A) (A)
                 (A) (A) (A) (A) (A) (A) (A) (A) (A) (A) (A) (A)
                 (A) (A) (A)
 Beta  Orbitals:
       Occupied  (A) (A) (A) (A) (A) (A) (A) (A) (A) (A) (A) (A)
                 (A) (A) (A) (A) (A) (A) (A) (A) (A) (A) (A) (A)
                 (A) (A) (A) (A) (A) (A) (A) (A) (A) (A) (A) (A)
                 (A) (A)
       Virtual   (A) (A) (A) (A) (A) (A) (A) (A) (A) (A) (A) (A)
                 (A) (A) (A) (A) (A) (A) (A) (A) (A) (A) (A) (A)
                 (A) (A) (A) (A) (A) (A) (A) (A) (A) (A) (A) (A)
                 (A) (A) (A) (A) (A) (A) (A) (A) (A) (A) (A) (A)
                 (A) (A) (A) (A) (A) (A) (A) (A) (A) (A) (A) (A)
                 (A) (A) (A) (A) (A) (A) (A) (A) (A) (A) (A) (A)
                 (A) (A) (A) (A) (A) (A) (A) (A) (A) (A) (A) (A)
                 (A) (A) (A) (A) (A) (A) (A) (A) (A) (A) (A) (A)
                 (A) (A) (A) (A) (A) (A) (A) (A) (A) (A) (A) (A)
                 (A) (A) (A) (A) (A) (A) (A) (A) (A) (A) (A) (A)
                 (A) (A) (A) (A) (A) (A) (A) (A) (A) (A) (A) (A)
                 (A) (A) (A) (A) (A) (A) (A) (A) (A) (A) (A) (A)
                 (A) (A) (A) (A) (A) (A) (A) (A) (A) (A) (A) (A)
                 (A) (A) (A) (A) (A) (A) (A) (A) (A) (A) (A) (A)
                 (A) (A) (A) (A)
 The electronic state is 2-A.
 Alpha  occ. eigenvalues --  -38.44372 -38.44242 -38.43979 -38.43960 -38.43818
 Alpha  occ. eigenvalues --  -38.43729 -38.43434  -2.20227  -2.20140  -2.19833
 Alpha  occ. eigenvalues --   -2.19776  -2.19759  -2.19583  -2.19204  -1.13993
 Alpha  occ. eigenvalues --   -1.13922  -1.13836  -1.13814  -1.13797  -1.13791
 Alpha  occ. eigenvalues --   -1.13551  -1.13541  -1.13434  -1.13431  -1.13426
 Alpha  occ. eigenvalues --   -1.13416  -1.13409  -1.13381  -1.13346  -1.13230
 Alpha  occ. eigenvalues --   -1.13218  -1.13200  -1.12876  -1.12872  -1.12830
 Alpha  occ. eigenvalues --   -0.17877  -0.13896  -0.12122  -0.10624
 Alpha virt. eigenvalues --   -0.06350  -0.05514  -0.04675  -0.03469  -0.02867
 Alpha virt. eigenvalues --   -0.02115  -0.01741  -0.01291  -0.01083  -0.00544
 Alpha virt. eigenvalues --   -0.00500  -0.00150   0.00412   0.00558   0.00605
 Alpha virt. eigenvalues --    0.00754   0.00985   0.01074   0.01186   0.01331
 Alpha virt. eigenvalues --    0.01407   0.01550   0.01621   0.01863   0.01924
 Alpha virt. eigenvalues --    0.02041   0.02087   0.02276   0.02347   0.02446
 Alpha virt. eigenvalues --    0.02692   0.02828   0.02932   0.02992   0.03049
 Alpha virt. eigenvalues --    0.03189   0.03241   0.03358   0.03419   0.03545
 Alpha virt. eigenvalues --    0.03780   0.03981   0.04078   0.04348   0.04639
 Alpha virt. eigenvalues --    0.04726   0.04913   0.05059   0.05229   0.05476
 Alpha virt. eigenvalues --    0.05763   0.05899   0.06419   0.06878   0.07493
 Alpha virt. eigenvalues --    0.07747   0.07869   0.07955   0.08299   0.08413
 Alpha virt. eigenvalues --    0.08760   0.09295   0.09517   0.10105   0.10448
 Alpha virt. eigenvalues --    0.11070   0.11488   0.11801   0.11983   0.12555
 Alpha virt. eigenvalues --    0.12681   0.13181   0.13483   0.13650   0.14079
 Alpha virt. eigenvalues --    0.14618   0.14933   0.15103   0.16321   0.16594
 Alpha virt. eigenvalues --    0.25069   0.27788   0.27991   0.29201   0.29636
 Alpha virt. eigenvalues --    0.30212   0.31148   0.31912   0.32527   0.32817
 Alpha virt. eigenvalues --    0.34309   0.34768   0.36346   0.36680   0.37630
 Alpha virt. eigenvalues --    0.38210   0.38581   0.38822   0.39559   0.39898
 Alpha virt. eigenvalues --    0.40835   0.41191   0.43246   0.43437   0.43899
 Alpha virt. eigenvalues --    0.44187   0.44271   0.44746   0.44855   0.45344
 Alpha virt. eigenvalues --    0.45426   0.45867   0.46096   0.46661   0.46923
 Alpha virt. eigenvalues --    0.47734   0.48134   0.48500   0.49309   0.49755
 Alpha virt. eigenvalues --    0.50429   0.52008   0.52552   0.52638   0.53877
 Alpha virt. eigenvalues --    0.54201   0.55070   0.56282   0.57154   0.57392
 Alpha virt. eigenvalues --    0.59638   0.61297   0.62822   0.64291   0.67927
 Alpha virt. eigenvalues --    0.72723   2.03132   2.08979   2.10987   2.15110
 Alpha virt. eigenvalues --    2.18915   2.19784   2.22988   4.42183   4.43059
 Alpha virt. eigenvalues --    4.43933   4.45081   4.45295   4.45718   4.45862
 Alpha virt. eigenvalues --    4.45959   4.46171   4.46660   4.47245   4.47820
 Alpha virt. eigenvalues --    4.48067   4.48698   4.49056   4.50983   4.52148
 Alpha virt. eigenvalues --    4.52969   4.57603   4.63265   4.65818  96.22444
 Alpha virt. eigenvalues --   96.29762  96.32027  96.36991  96.41657  96.42662
 Alpha virt. eigenvalues --   96.47501
  Beta  occ. eigenvalues --  -38.44370 -38.44226 -38.43952 -38.43905 -38.43770
  Beta  occ. eigenvalues --  -38.43661 -38.43436  -2.20226  -2.20118  -2.19824
  Beta  occ. eigenvalues --   -2.19678  -2.19637  -2.19454  -2.19206  -1.13984
  Beta  occ. eigenvalues --   -1.13915  -1.13808  -1.13796  -1.13791  -1.13752
  Beta  occ. eigenvalues --   -1.13542  -1.13500  -1.13419  -1.13384  -1.13354
  Beta  occ. eigenvalues --   -1.13336  -1.13328  -1.13295  -1.13263  -1.13142
  Beta  occ. eigenvalues --   -1.13128  -1.13122  -1.12878  -1.12874  -1.12832
  Beta  occ. eigenvalues --   -0.17244  -0.13242  -0.11931
  Beta virt. eigenvalues --   -0.07149  -0.06140  -0.05317  -0.04163  -0.03080
  Beta virt. eigenvalues --   -0.02547  -0.02038  -0.01578  -0.00894  -0.00756
  Beta virt. eigenvalues --   -0.00345  -0.00115   0.00072   0.00512   0.00645
  Beta virt. eigenvalues --    0.00743   0.00813   0.01025   0.01152   0.01319
  Beta virt. eigenvalues --    0.01389   0.01449   0.01633   0.01694   0.01937
  Beta virt. eigenvalues --    0.01984   0.02196   0.02248   0.02362   0.02412
  Beta virt. eigenvalues --    0.02523   0.02745   0.02893   0.02994   0.03050
  Beta virt. eigenvalues --    0.03120   0.03206   0.03303   0.03375   0.03460
  Beta virt. eigenvalues --    0.03628   0.03850   0.04056   0.04144   0.04415
  Beta virt. eigenvalues --    0.04712   0.04872   0.05000   0.05141   0.05259
  Beta virt. eigenvalues --    0.05512   0.05859   0.06018   0.06605   0.06918
  Beta virt. eigenvalues --    0.07569   0.07806   0.08032   0.08087   0.08396
  Beta virt. eigenvalues --    0.08637   0.08911   0.09470   0.09667   0.10323
  Beta virt. eigenvalues --    0.10763   0.11086   0.11684   0.11937   0.12094
  Beta virt. eigenvalues --    0.12619   0.12753   0.13344   0.13541   0.13759
  Beta virt. eigenvalues --    0.14215   0.14742   0.15095   0.15319   0.16577
  Beta virt. eigenvalues --    0.16737   0.25411   0.28010   0.28229   0.29539
  Beta virt. eigenvalues --    0.29795   0.30352   0.31343   0.32095   0.32857
  Beta virt. eigenvalues --    0.33167   0.34718   0.35186   0.36695   0.37183
  Beta virt. eigenvalues --    0.38160   0.38299   0.38818   0.39178   0.39948
  Beta virt. eigenvalues --    0.40289   0.41053   0.41432   0.43414   0.43573
  Beta virt. eigenvalues --    0.44019   0.44352   0.44445   0.44869   0.44934
  Beta virt. eigenvalues --    0.45395   0.45546   0.46027   0.46216   0.46780
  Beta virt. eigenvalues --    0.47040   0.47815   0.48300   0.48582   0.49442
  Beta virt. eigenvalues --    0.49835   0.50494   0.52117   0.52622   0.52751
  Beta virt. eigenvalues --    0.54034   0.54450   0.55128   0.56305   0.57246
  Beta virt. eigenvalues --    0.57417   0.59793   0.61163   0.62955   0.64524
  Beta virt. eigenvalues --    0.68131   0.72777   2.03245   2.09252   2.11030
  Beta virt. eigenvalues --    2.15302   2.18973   2.19790   2.23113   4.42262
  Beta virt. eigenvalues --    4.43087   4.43961   4.45132   4.45398   4.45817
  Beta virt. eigenvalues --    4.45898   4.46021   4.46208   4.46679   4.47322
  Beta virt. eigenvalues --    4.47827   4.48085   4.48754   4.49080   4.51010
  Beta virt. eigenvalues --    4.52219   4.53005   4.57632   4.63334   4.65860
  Beta virt. eigenvalues --   96.22483  96.29852  96.32039  96.37055  96.41679
  Beta virt. eigenvalues --   96.42673  96.47548
          Condensed to atoms (all electrons):
               1          2          3          4          5          6
     1  Na  11.952515   0.213879  -0.032679  -0.979038   0.132822   0.446959
     2  Na   0.213879  11.548571   0.540769  -0.334165   0.047735  -0.264309
     3  Na  -0.032679   0.540769  11.058989  -0.198677   0.019855  -0.172305
     4  Na  -0.979038  -0.334165  -0.198677  11.755201   0.085815  -0.202498
     5  Na   0.132822   0.047735   0.019855   0.085815  10.555080  -0.028592
     6  Na   0.446959  -0.264309  -0.172305  -0.202498  -0.028592  10.857133
     7  Na  -0.125835   0.001160  -0.021267   0.265601   0.003060  -0.060245
               7
     1  Na  -0.125835
     2  Na   0.001160
     3  Na  -0.021267
     4  Na   0.265601
     5  Na   0.003060
     6  Na  -0.060245
     7  Na  10.596421
          Atomic-Atomic Spin Densities.
               1          2          3          4          5          6
     1  Na   0.314256   0.146755   0.187403  -0.467344   0.057863  -0.033507
     2  Na   0.146755  -0.118511  -0.200130   0.095505  -0.027734   0.201693
     3  Na   0.187403  -0.200130  -0.039139  -0.048698  -0.053383   0.176541
     4  Na  -0.467344   0.095505  -0.048698   0.478254   0.059370  -0.105490
     5  Na   0.057863  -0.027734  -0.053383   0.059370   0.293490   0.012656
     6  Na  -0.033507   0.201693   0.176541  -0.105490   0.012656   0.115960
     7  Na  -0.049933  -0.004476   0.006070   0.042050   0.003656  -0.017738
               7
     1  Na  -0.049933
     2  Na  -0.004476
     3  Na   0.006070
     4  Na   0.042050
     5  Na   0.003656
     6  Na  -0.017738
     7  Na  -0.006568
 Mulliken charges and spin densities:
               1          2
     1  Na  -0.608623   0.155493
     2  Na  -0.753640   0.093101
     3  Na  -0.194685   0.028664
     4  Na   0.607761   0.053647
     5  Na   0.184225   0.345918
     6  Na   0.423856   0.350115
     7  Na   0.341105  -0.026938
 Sum of Mulliken charges =  -0.00000   1.00000
 Mulliken charges and spin densities with hydrogens summed into heavy atoms:
               1          2
     1  Na  -0.608623   0.155493
     2  Na  -0.753640   0.093101
     3  Na  -0.194685   0.028664
     4  Na   0.607761   0.053647
     5  Na   0.184225   0.345918
     6  Na   0.423856   0.350115
     7  Na   0.341105  -0.026938
 Electronic spatial extent (au):  <R**2>=           3262.9959
 Charge=             -0.0000 electrons
 Dipole moment (field-independent basis, Debye):
    X=              0.0570    Y=             -0.6724    Z=              0.1703  Tot=              0.6960
 Quadrupole moment (field-independent basis, Debye-Ang):
   XX=            -68.2598   YY=            -65.4603   ZZ=            -66.7587
   XY=              0.5212   XZ=              0.3698   YZ=              1.0764
 Traceless Quadrupole moment (field-independent basis, Debye-Ang):
   XX=             -1.4335   YY=              1.3660   ZZ=              0.0676
   XY=              0.5212   XZ=              0.3698   YZ=              1.0764
 Octapole moment (field-independent basis, Debye-Ang**2):
  XXX=              5.4048  YYY=             20.6441  ZZZ=              7.1402  XYY=             -6.0835
  XXY=            -18.7336  XXZ=              5.5039  XZZ=             -2.0573  YZZ=             -6.6632
  YYZ=             -3.4619  XYZ=              9.2319
 Hexadecapole moment (field-independent basis, Debye-Ang**3):
 XXXX=          -3070.4626 YYYY=          -1682.3845 ZZZZ=           -426.9685 XXXY=             74.8506
 XXXZ=            -14.2035 YYYX=            -36.1189 YYYZ=             18.9180 ZZZX=              0.7006
 ZZZY=             -1.3271 XXYY=           -884.4053 XXZZ=           -652.4792 YYZZ=           -404.3042
 XXYZ=              0.7360 YYXZ=             -9.4324 ZZXY=              1.3084
 N-N= 3.063035806022D+02 E-N=-3.341909949856D+03  KE= 1.132914503921D+03
                          Isotropic Fermi Contact Couplings
        Atom                 a.u.       MegaHertz       Gauss      10(-4) cm-1
     1  Na(23)            -0.02743     -32.44767     -11.57814     -10.82338
     2  Na(23)            -0.01968     -23.28252      -8.30778      -7.76621
     3  Na(23)            -0.00858     -10.14775      -3.62097      -3.38492
     4  Na(23)             0.15365     181.76825      64.85943      60.63136
     5  Na(23)             0.32455     383.95292     137.00395     128.07291
     6  Na(23)             0.30667     362.79503     129.45429     121.01540
     7  Na(23)            -0.00553      -6.54448      -2.33523      -2.18301
 --------------------------------------------------------
       Center         ----  Spin Dipole Couplings  ----
                      3XX-RR        3YY-RR        3ZZ-RR
 --------------------------------------------------------
     1   Atom        0.029028     -0.018094     -0.010934
     2   Atom        0.029603     -0.012199     -0.017404
     3   Atom        0.040581     -0.029327     -0.011254
     4   Atom        0.037076     -0.015930     -0.021146
     5   Atom       -0.007408      0.004731      0.002677
     6   Atom       -0.008357      0.004210      0.004147
     7   Atom       -0.000854      0.000938     -0.000084
 --------------------------------------------------------
                        XY            XZ            YZ
 --------------------------------------------------------
     1   Atom       -0.010339      0.017334     -0.000265
     2   Atom        0.028687     -0.011650     -0.008181
     3   Atom       -0.011277     -0.038057      0.004229
     4   Atom        0.003929     -0.016194      0.000796
     5   Atom       -0.002786     -0.001533     -0.002178
     6   Atom       -0.001160      0.001322     -0.000581
     7   Atom        0.000509     -0.000047      0.000137
 --------------------------------------------------------


 ---------------------------------------------------------------------------------
              Anisotropic Spin Dipole Couplings in Principal Axis System
 ---------------------------------------------------------------------------------

       Atom             a.u.   MegaHertz   Gauss  10(-4) cm-1        Axes

              Baa    -0.0221    -3.127    -1.116    -1.043  0.3290  0.8075 -0.4896
     1 Na(23) Bbb    -0.0151    -2.131    -0.760    -0.711 -0.1844  0.5634  0.8053
              Bcc     0.0372     5.258     1.876     1.754  0.9262 -0.1747  0.3343
 
              Baa    -0.0274    -3.863    -1.378    -1.289 -0.3887  0.8811  0.2694
     2 Na(23) Bbb    -0.0199    -2.812    -1.003    -0.938  0.3085 -0.1511  0.9392
              Bcc     0.0473     6.675     2.382     2.227  0.8682  0.4481 -0.2131
 
              Baa    -0.0327    -4.614    -1.646    -1.539  0.4288  0.6424  0.6351
     3 Na(23) Bbb    -0.0296    -4.179    -1.491    -1.394 -0.2145  0.7553 -0.6192
              Bcc     0.0623     8.793     3.138     2.933  0.8776 -0.1294 -0.4617
 
              Baa    -0.0257    -3.625    -1.293    -1.209  0.2564 -0.1810  0.9495
     4 Na(23) Bbb    -0.0158    -2.236    -0.798    -0.746 -0.0144  0.9815  0.1910
              Bcc     0.0415     5.861     2.091     1.955  0.9665  0.0627 -0.2490
 
              Baa    -0.0084    -1.182    -0.422    -0.394  0.9560  0.2329  0.1785
     5 Na(23) Bbb     0.0021     0.292     0.104     0.097 -0.2657  0.4284  0.8636
              Bcc     0.0063     0.890     0.318     0.297 -0.1247  0.8730 -0.4714
 
              Baa    -0.0086    -1.213    -0.433    -0.405  0.9914  0.0853 -0.0990
     6 Na(23) Bbb     0.0036     0.508     0.181     0.170  0.0112  0.6996  0.7144
              Bcc     0.0050     0.705     0.251     0.235 -0.1302  0.7094 -0.6927
 
              Baa    -0.0010    -0.141    -0.050    -0.047  0.9616 -0.2596  0.0887
     7 Na(23) Bbb    -0.0001    -0.013    -0.005    -0.004 -0.1121 -0.0765  0.9908
              Bcc     0.0011     0.153     0.055     0.051  0.2505  0.9627  0.1026
 

 ---------------------------------------------------------------------------------

 No NMR shielding tensors so no spin-rotation constants.
 Leave Link  601 at Wed Nov 29 00:56:05 2023, MaxMem=  1879048192 cpu:               2.3 elap:               0.2
 (Enter /home/sekinelabo/g16/l701.exe)
 ... and contract with generalized density number  0.
 Compute integral first derivatives.
 Leave Link  701 at Wed Nov 29 00:56:05 2023, MaxMem=  1879048192 cpu:               1.6 elap:               0.1
 (Enter /home/sekinelabo/g16/l702.exe)
 L702 exits ... SP integral derivatives will be done elsewhere.
 Leave Link  702 at Wed Nov 29 00:56:05 2023, MaxMem=  1879048192 cpu:               0.4 elap:               0.0
 (Enter /home/sekinelabo/g16/l703.exe)
 Integral derivatives from FoFJK, PRISM(SPDF).
 Compute integral first derivatives, UseDBF=F ICtDFT=           0.
 Calling FoFJK, ICntrl=      2127 FMM=F ISym2X=0 I1Cent= 0 IOpClX= 1 NMat=1 NMatS=1 NMatT=0.
 FoFJK:  IHMeth= 1 ICntrl=    2127 DoSepK=F KAlg= 0 I1Cent=           0 FoldK=F
 IRaf=         0 NMat=       1 IRICut=       1 DoRegI=T DoRafI=F ISym2E= 0 IDoP0=0 IntGTp=1.
 FoFCou: FMM=F IPFlag=           0 FMFlag=      100000 FMFlg1=         800
         NFxFlg=           0 DoJE=F BraDBF=F KetDBF=F FulRan=T
         wScrn=  0.000000 ICntrl=      2127 IOpCl=  1 I1Cent=           0 NGrid=           0
         NMat0=    1 NMatS0=      1 NMatT0=    0 NMatD0=    1 NMtDS0=    0 NMtDT0=    0
 Symmetry not used in FoFCou.
 Leave Link  703 at Wed Nov 29 00:56:07 2023, MaxMem=  1879048192 cpu:              30.8 elap:               2.1
 (Enter /home/sekinelabo/g16/l716.exe)
 Dipole        = 2.24403487D-02-2.64558516D-01 6.70173937D-02
 ***** Axes restored to original set *****
 -------------------------------------------------------------------
 Center     Atomic                   Forces (Hartrees/Bohr)
 Number     Number              X              Y              Z
 -------------------------------------------------------------------
      1       11          -0.001875114    0.004131375    0.001128905
      2       11          -0.001300497    0.004239987   -0.000488427
      3       11           0.000707292   -0.001415706   -0.001435758
      4       11          -0.004309717   -0.006001472    0.001220578
      5       11           0.002891649    0.001499217    0.000684612
      6       11           0.002746669    0.001066891    0.000560850
      7       11           0.001139719   -0.003520293   -0.001670760
 -------------------------------------------------------------------
 Cartesian Forces:  Max     0.006001472 RMS     0.002572482
 Z-matrix is all fixed cartesians, so copy forces.
 Force constants in Cartesian coordinates: 
                1             2             3             4             5 
      1  0.682175D-01
      2 -0.193498D-02  0.837412D-01
      3  0.901921D-02 -0.728715D-02  0.736318D-01
      4 -0.157120D-01 -0.382244D-02 -0.280643D-02  0.982245D-01
      5  0.647323D-02 -0.154682D-01  0.414082D-02 -0.166416D-02  0.953059D-01
      6 -0.479134D-02 -0.299115D-02 -0.243013D-01  0.875739D-02  0.112219D-01
      7 -0.368779D-02  0.352216D-02  0.451654D-02 -0.176179D-01 -0.446048D-03
      8  0.625595D-02 -0.207923D-03 -0.514652D-02  0.341162D-02 -0.185654D-01
      9 -0.324641D-02  0.835801D-03  0.329266D-02 -0.260675D-02 -0.703117D-02
     10 -0.232834D-01  0.455515D-02 -0.748806D-02 -0.245603D-01 -0.340948D-02
     11 -0.347864D-02 -0.385845D-01  0.815609D-02  0.409498D-02 -0.302903D-01
     12 -0.511138D-02  0.121310D-01 -0.260201D-01 -0.855995D-02 -0.125947D-01
     13 -0.134125D-01  0.312011D-02 -0.156930D-02 -0.164291D-03 -0.257438D-02
     14 -0.117874D-01 -0.192935D-01 -0.349374D-02 -0.284039D-02  0.702104D-02
     15  0.557772D-02  0.701404D-02 -0.130987D-01 -0.156684D-02 -0.279069D-02
     16 -0.128748D-02  0.578576D-03  0.215922D-02 -0.185309D-01 -0.604602D-02
     17  0.108106D-03  0.581325D-03 -0.168876D-04  0.673211D-02 -0.202456D-01
     18 -0.269668D-02  0.881090D-03  0.452608D-02  0.150460D-01 -0.165677D-02
     19 -0.108343D-01 -0.601857D-02 -0.383118D-02 -0.216391D-01  0.766686D-02
     20  0.436376D-02 -0.107685D-01  0.364740D-02 -0.591171D-02 -0.177574D-01
     21  0.124888D-02 -0.105837D-01 -0.180306D-01 -0.826343D-02  0.871059D-02
                6             7             8             9            10 
      6  0.999826D-01
      7 -0.755308D-02  0.686274D-01
      8 -0.737772D-02  0.655198D-02  0.403830D-01
      9 -0.287931D-01  0.216886D-03  0.203773D-01  0.690903D-01
     10  0.663929D-02 -0.228450D-01 -0.131792D-01  0.300622D-02  0.823197D-01
     11  0.726305D-02  0.432330D-02 -0.127813D-01 -0.622553D-02  0.315333D-02
     12 -0.124909D-01  0.101533D-01  0.696291D-02 -0.336365D-01  0.306031D-02
     13 -0.533099D-03 -0.148664D-02  0.208319D-03 -0.223652D-02 -0.131766D-01
     14 -0.250100D-02 -0.348595D-03  0.150486D-03 -0.542493D-03  0.114310D-01
     15  0.306117D-02  0.291723D-02 -0.411813D-03  0.439900D-02 -0.897541D-02
     16 -0.600811D-02 -0.249349D-01 -0.254107D-02  0.392946D-02 -0.299227D-02
     17 -0.197438D-02 -0.145052D-01 -0.898525D-02 -0.754123D-02 -0.372581D-02
     18 -0.210432D-01 -0.138397D-01 -0.109776D-01 -0.177779D-01  0.195694D-02
     19  0.348894D-02  0.194481D-02 -0.707563D-03  0.937123D-03  0.453790D-02
     20 -0.364069D-02  0.902456D-03  0.631806D-05  0.127315D-03  0.117501D-02
     21 -0.164153D-01  0.358885D-02 -0.342653D-02  0.342562D-02  0.180071D-02
               11            12            13            14            15 
     11  0.929498D-01
     12 -0.121523D-01  0.749956D-01
     13 -0.588583D-02  0.641454D-04  0.262758D-01
     14 -0.108020D-01  0.762221D-02  0.461064D-02  0.230397D-01
     15 -0.743192D-03 -0.141754D-01  0.567752D-02 -0.170406D-02  0.167862D-01
     16 -0.253950D-03 -0.799628D-03 -0.137424D-04 -0.166902D-04  0.244982D-04
     17  0.383797D-02  0.243809D-02 -0.225171D-04  0.820959D-04  0.378425D-04
     18  0.278258D-02  0.703032D-02 -0.170926D-04 -0.215578D-04  0.349679D-04
     19 -0.195318D-02  0.119324D-02  0.197794D-02 -0.104855D-02 -0.365472D-02
     20 -0.432973D-02 -0.440730D-02  0.543668D-03 -0.197835D-03 -0.140212D-02
     21  0.919278D-03  0.429699D-02 -0.138565D-02  0.640643D-03  0.299268D-02
               16            17            18            19            20 
     16  0.473198D-01
     17  0.792992D-02  0.214620D-01
     18  0.720667D-03  0.102203D-01  0.253956D-01
     19  0.439540D-03  0.348344D-02 -0.117015D-02  0.235733D-01
     20  0.349234D-03  0.326751D-02 -0.122800D-02 -0.142242D-02  0.297797D-01
     21 -0.261077D-04 -0.316372D-02  0.183415D-02  0.303676D-02  0.690340D-02
               21 
     21  0.218964D-01
 Leave Link  716 at Wed Nov 29 00:56:07 2023, MaxMem=  1879048192 cpu:               0.4 elap:               0.0
 (Enter /home/sekinelabo/g16/l103.exe)

 GradGradGradGradGradGradGradGradGradGradGradGradGradGradGradGradGradGrad
 Berny optimization.
 Search for a local minimum.
 Step number   1 out of a maximum of    2
 All quantities printed in internal units (Hartrees-Bohrs-Radians)
 Second derivative matrix not updated -- first step.
 ITU=  0
     Eigenvalues ---    0.01444   0.02023   0.02587   0.02645   0.04429
     Eigenvalues ---    0.05687   0.06023   0.07905   0.09206   0.10127
     Eigenvalues ---    0.11014   0.12680   0.13105   0.14278   0.14464
 Angle between quadratic step and forces=  34.89 degrees.
 Linear search not attempted -- first point.
 B after Tr=    -0.000000   -0.000000    0.000000
         Rot=    1.000000   -0.000000   -0.000000   -0.000000 Ang=   0.00 deg.
 Variable       Old X    -DE/DX   Delta X   Delta X   Delta X     New X
                                 (Linear)    (Quad)   (Total)
    X1       25.61845  -0.00188   0.00000  -0.02834  -0.02834  25.59011
    Y1       30.69331   0.00413   0.00000   0.02798   0.02798  30.72129
    Z1       27.71529   0.00113   0.00000   0.01600   0.01600  27.73129
    X2       31.72453  -0.00130   0.00000  -0.02392  -0.02392  31.70061
    Y2       30.32708   0.00424   0.00000   0.02578   0.02578  30.35286
    Z2       31.39345  -0.00049   0.00000  -0.00238  -0.00238  31.39107
    X3       32.39860   0.00071   0.00000   0.01765   0.01765  32.41625
    Y3       26.17894  -0.00142   0.00000  -0.04175  -0.04175  26.13719
    Z3       26.57956  -0.00144   0.00000  -0.00008  -0.00008  26.57949
    X4       27.33867  -0.00431   0.00000  -0.06104  -0.06104  27.27763
    Y4       25.64396  -0.00600   0.00000  -0.04493  -0.04493  25.59904
    Z4       29.82952   0.00122   0.00000   0.00756   0.00756  29.83708
    X5       20.92645   0.00289   0.00000   0.03821   0.03821  20.96466
    Y5       25.78645   0.00150   0.00000   0.06461   0.06461  25.85105
    Z5       26.58297   0.00068   0.00000   0.02372   0.02372  26.60669
    X6       37.50010   0.00275   0.00000   0.04341   0.04341  37.54352
    Y6       28.65996   0.00107   0.00000   0.05974   0.05974  28.71971
    Z6       28.60006   0.00056   0.00000   0.00200   0.00200  28.60206
    X7       27.49778   0.00114   0.00000   0.01402   0.01402  27.51180
    Y7       35.71488  -0.00352   0.00000  -0.09143  -0.09143  35.62345
    Z7       32.30411  -0.00167   0.00000  -0.04683  -0.04683  32.25729
         Item               Value     Threshold  Converged?
 Maximum Force            0.006001     0.000450     NO 
 RMS     Force            0.002572     0.000300     NO 
 Maximum Displacement     0.091427     0.001800     NO 
 RMS     Displacement     0.039847     0.001200     NO 
 Predicted change in Energy=-8.828702D-04
 GradGradGradGradGradGradGradGradGradGradGradGradGradGradGradGradGradGrad

 Leave Link  103 at Wed Nov 29 00:56:07 2023, MaxMem=  1879048192 cpu:               0.2 elap:               0.0
 (Enter /home/sekinelabo/g16/l9999.exe)
 1\1\GINC-SEKINELABO-XA7R-R37\Force\UB3LYP\6-311+G(d)\Na7(2)\SEKINELABO
 \29-Nov-2023\0\\#P B3LYP/6-311+g(d) force\\DPGEN\\0,2\Na,13.5567,16.24
 22,14.6663\Na,16.7879,16.0484,16.6127\Na,17.1446,13.8533,14.0653\Na,14
 .467,13.5702,15.7851\Na,11.0738,13.6456,14.0671\Na,19.8442,15.1662,15.
 1345\Na,14.5512,18.8995,17.0946\\Version=ES64L-G16RevB.01\State=2-A\HF
 =-1136.1227724\S2=0.777801\S2-1=0.\S2A=0.750335\RMSD=4.505e-09\RMSF=2.
 572e-03\Dipole=0.0587434,-0.2614915,-0.0561917\Quadrupole=-1.1459366,0
 .1887911,0.9571455,-0.0259038,0.0905843,0.8998236\PG=C01 [X(Na7)]\\@


 ON A CLEAR DISK YOU CAN SEEK FOREVER.
 Job cpu time:       0 days  0 hours  3 minutes 46.7 seconds.
 Elapsed time:       0 days  0 hours  0 minutes 19.5 seconds.
 File lengths (MBytes):  RWF=     32 Int=      0 D2E=      0 Chk=      4 Scr=      1
 Normal termination of Gaussian 16 at Wed Nov 29 00:56:07 2023.
