 Set GAUSS_MDEF to "14GB".
 Entering Gaussian System, Link 0=g16
 Initial command:
 /home/sekinelabo/g16/l1.exe "/home/sekinelabo/g16temp/Gau-190923.inp" -scrdir="/home/sekinelabo/g16temp/"
 Entering Link 1 = /home/sekinelabo/g16/l1.exe PID=    190925.
  
 Copyright (c) 1988-2017, Gaussian, Inc.  All Rights Reserved.
  
 This is part of the Gaussian(R) 16 program.  It is based on
 the Gaussian(R) 09 system (copyright 2009, Gaussian, Inc.),
 the Gaussian(R) 03 system (copyright 2003, Gaussian, Inc.),
 the Gaussian(R) 98 system (copyright 1998, Gaussian, Inc.),
 the Gaussian(R) 94 system (copyright 1995, Gaussian, Inc.),
 the Gaussian 92(TM) system (copyright 1992, Gaussian, Inc.),
 the Gaussian 90(TM) system (copyright 1990, Gaussian, Inc.),
 the Gaussian 88(TM) system (copyright 1988, Gaussian, Inc.),
 the Gaussian 86(TM) system (copyright 1986, Carnegie Mellon
 University), and the Gaussian 82(TM) system (copyright 1983,
 Carnegie Mellon University). Gaussian is a federally registered
 trademark of Gaussian, Inc.
  
 This software contains proprietary and confidential information,
 including trade secrets, belonging to Gaussian, Inc.
  
 This software is provided under written license and may be
 used, copied, transmitted, or stored only in accord with that
 written license.
  
 The following legend is applicable only to US Government
 contracts under FAR:
  
                    RESTRICTED RIGHTS LEGEND
  
 Use, reproduction and disclosure by the US Government is
 subject to restrictions as set forth in subparagraphs (a)
 and (c) of the Commercial Computer Software - Restricted
 Rights clause in FAR 52.227-19.
  
 Gaussian, Inc.
 340 Quinnipiac St., Bldg. 40, Wallingford CT 06492
  
  
 ---------------------------------------------------------------
 Warning -- This program may not be used in any manner that
 competes with the business of Gaussian, Inc. or will provide
 assistance to any competitor of Gaussian, Inc.  The licensee
 of this program is prohibited from giving any competitor of
 Gaussian, Inc. access to this program.  By using this program,
 the user acknowledges that Gaussian, Inc. is engaged in the
 business of creating and licensing software in the field of
 computational chemistry and represents and warrants to the
 licensee that it is not a competitor of Gaussian, Inc. and that
 it will not use this program in any manner prohibited above.
 ---------------------------------------------------------------
  

 Cite this work as:
 Gaussian 16, Revision B.01,
 M. J. Frisch, G. W. Trucks, H. B. Schlegel, G. E. Scuseria, 
 M. A. Robb, J. R. Cheeseman, G. Scalmani, V. Barone, 
 G. A. Petersson, H. Nakatsuji, X. Li, M. Caricato, A. V. Marenich, 
 J. Bloino, B. G. Janesko, R. Gomperts, B. Mennucci, H. P. Hratchian, 
 J. V. Ortiz, A. F. Izmaylov, J. L. Sonnenberg, D. Williams-Young, 
 F. Ding, F. Lipparini, F. Egidi, J. Goings, B. Peng, A. Petrone, 
 T. Henderson, D. Ranasinghe, V. G. Zakrzewski, J. Gao, N. Rega, 
 G. Zheng, W. Liang, M. Hada, M. Ehara, K. Toyota, R. Fukuda, 
 J. Hasegawa, M. Ishida, T. Nakajima, Y. Honda, O. Kitao, H. Nakai, 
 T. Vreven, K. Throssell, J. A. Montgomery, Jr., J. E. Peralta, 
 F. Ogliaro, M. J. Bearpark, J. J. Heyd, E. N. Brothers, K. N. Kudin, 
 V. N. Staroverov, T. A. Keith, R. Kobayashi, J. Normand, 
 K. Raghavachari, A. P. Rendell, J. C. Burant, S. S. Iyengar, 
 J. Tomasi, M. Cossi, J. M. Millam, M. Klene, C. Adamo, R. Cammi, 
 J. W. Ochterski, R. L. Martin, K. Morokuma, O. Farkas, 
 J. B. Foresman, and D. J. Fox, Gaussian, Inc., Wallingford CT, 2016.
 
 ******************************************
 Gaussian 16:  ES64L-G16RevB.01 20-Dec-2017
                 5-Dec-2023 
 ******************************************
 %nproc=15
 Will use up to   15 processors via shared memory.
 -------------------------
 #P B3LYP/6-311+g(d) force
 -------------------------
 1/10=7,30=1,38=1/1,3;
 2/12=2,17=6,18=5,40=1/2;
 3/5=4,6=6,7=11,11=2,25=1,30=1,71=1,74=-5/1,2,3;
 4//1;
 5/5=2,38=5/2;
 6/7=2,8=2,9=2,10=2,28=1/1;
 7/29=1/1,2,3,16;
 1/10=7,30=1/3;
 99//99;
 Leave Link    1 at Tue Dec  5 14:39:31 2023, MaxMem=           0 cpu:               0.3 elap:               0.0
 (Enter /home/sekinelabo/g16/l101.exe)
 -----
 DPGEN
 -----
 Symbolic Z-matrix:
 Charge =  0 Multiplicity = 2
 Na                    10.6795   11.8812   12.7304 
 Na                    14.4933   14.5077   13.3128 
 Na                    12.3175   9.06724   11.1453 
 Na                    14.1572   11.3833   12.1387 
 Na                    12.3208   12.7719   15.4903 
 Na                    11.918    13.0893   10.0769 
 Na                    11.8251   15.0109   12.8171 
 
 ITRead=  0  0  0  0  0  0  0
 MicOpt= -1 -1 -1 -1 -1 -1 -1
 NAtoms=      7 NQM=        7 NQMF=       0 NMMI=      0 NMMIF=      0
                NMic=       0 NMicF=      0.
                    Isotopes and Nuclear Properties:
 (Nuclear quadrupole moments (NQMom) in fm**2, nuclear magnetic moments (NMagM)
  in nuclear magnetons)

  Atom         1           2           3           4           5           6           7
 IAtWgt=          23          23          23          23          23          23          23
 AtmWgt=  22.9897697  22.9897697  22.9897697  22.9897697  22.9897697  22.9897697  22.9897697
 NucSpn=           3           3           3           3           3           3           3
 AtZEff=  -0.0000000  -0.0000000  -0.0000000  -0.0000000  -0.0000000  -0.0000000  -0.0000000
 NQMom=   10.4000000  10.4000000  10.4000000  10.4000000  10.4000000  10.4000000  10.4000000
 NMagM=    2.2175200   2.2175200   2.2175200   2.2175200   2.2175200   2.2175200   2.2175200
 AtZNuc=  11.0000000  11.0000000  11.0000000  11.0000000  11.0000000  11.0000000  11.0000000
 Leave Link  101 at Tue Dec  5 14:39:32 2023, MaxMem=  1879048192 cpu:               2.4 elap:               0.2
 (Enter /home/sekinelabo/g16/l103.exe)

 GradGradGradGradGradGradGradGradGradGradGradGradGradGradGradGradGradGrad
 Berny optimization.
 Initialization pass.
 Trust Radius=3.00D-01 FncErr=1.00D-07 GrdErr=1.00D-07 EigMax=2.50D+02 EigMin=1.00D-04
 Number of steps in this run=      2 maximum allowed number of steps=      2.
 GradGradGradGradGradGradGradGradGradGradGradGradGradGradGradGradGradGrad

 Leave Link  103 at Tue Dec  5 14:39:32 2023, MaxMem=  1879048192 cpu:               0.2 elap:               0.0
 (Enter /home/sekinelabo/g16/l202.exe)
                          Input orientation:                          
 ---------------------------------------------------------------------
 Center     Atomic      Atomic             Coordinates (Angstroms)
 Number     Number       Type             X           Y           Z
 ---------------------------------------------------------------------
      1         11           0       10.679500   11.881200   12.730400
      2         11           0       14.493300   14.507700   13.312800
      3         11           0       12.317500    9.067240   11.145300
      4         11           0       14.157200   11.383300   12.138700
      5         11           0       12.320800   12.771900   15.490300
      6         11           0       11.918000   13.089300   10.076900
      7         11           0       11.825100   15.010900   12.817100
 ---------------------------------------------------------------------
                    Distance matrix (angstroms):
                    1          2          3          4          5
     1  Na   0.000000
     2  Na   4.667201   0.000000
     3  Na   3.621320   6.247461   0.000000
     4  Na   3.562641   3.354601   3.120172   0.000000
     5  Na   3.332306   3.531892   5.709951   4.066177   0.000000
     6  Na   3.167720   4.372079   4.180675   3.489337   5.437636
     7  Na   3.333907   2.760112   6.193906   4.365593   3.522050
                    6          7
     6  Na   0.000000
     7  Na   3.348115   0.000000
 Stoichiometry    Na7(2)
 Framework group  C1[X(Na7)]
 Deg. of freedom    15
 Full point group                 C1      NOp   1
 Largest Abelian subgroup         C1      NOp   1
 Largest concise Abelian subgroup C1      NOp   1
                         Standard orientation:                         
 ---------------------------------------------------------------------
 Center     Atomic      Atomic             Coordinates (Angstroms)
 Number     Number       Type             X           Y           Z
 ---------------------------------------------------------------------
      1         11           0        0.680423   -0.317633   -1.822780
      2         11           0       -2.328679    0.203466    1.706601
      3         11           0        3.665803   -0.693092    0.192287
      4         11           0        0.957736   -0.469186    1.725817
      5         11           0       -1.735944   -2.316568   -0.695973
      6         11           0        0.903315    2.415382   -0.236779
      7         11           0       -2.142654    1.177631   -0.869174
 ---------------------------------------------------------------------
 Rotational constants (GHZ):           0.9168465           0.5606727           0.5222592
 Leave Link  202 at Tue Dec  5 14:39:32 2023, MaxMem=  1879048192 cpu:               0.0 elap:               0.0
 (Enter /home/sekinelabo/g16/l301.exe)
 Standard basis: 6-311+G(d) (5D, 7F)
 Ernie: Thresh=  0.10000D-02 Tol=  0.10000D-05 Strict=F.
 There are   217 symmetry adapted cartesian basis functions of A   symmetry.
 There are   210 symmetry adapted basis functions of A   symmetry.
   210 basis functions,   350 primitive gaussians,   217 cartesian basis functions
    39 alpha electrons       38 beta electrons
       nuclear repulsion energy       348.5500440345 Hartrees.
 IExCor=  402 DFT=T Ex+Corr=B3LYP ExCW=0 ScaHFX=  0.200000
 ScaDFX=  0.800000  0.720000  1.000000  0.810000 ScalE2=  1.000000  1.000000
 IRadAn=      5 IRanWt=     -1 IRanGd=            0 ICorTp=0 IEmpDi=  4
 NAtoms=    7 NActive=    7 NUniq=    7 SFac= 1.00D+00 NAtFMM=   60 NAOKFM=F Big=F
 Integral buffers will be    131072 words long.
 Raffenetti 2 integral format.
 Two-electron integral symmetry is turned on.
 Leave Link  301 at Tue Dec  5 14:39:32 2023, MaxMem=  1879048192 cpu:               0.5 elap:               0.0
 (Enter /home/sekinelabo/g16/l302.exe)
 NPDir=0 NMtPBC=     1 NCelOv=     1 NCel=       1 NClECP=     1 NCelD=      1
         NCelK=      1 NCelE2=     1 NClLst=     1 CellRange=     0.0.
 One-electron integrals computed using PRISM.
 One-electron integral symmetry used in STVInt
 NBasis=   210 RedAO= T EigKep=  3.34D-06  NBF=   210
 NBsUse=   210 1.00D-06 EigRej= -1.00D+00 NBFU=   210
 Precomputing XC quadrature grid using
 IXCGrd= 4 IRadAn=           5 IRanWt=          -1 IRanGd=           0 AccXCQ= 0.00D+00.
 Generated NRdTot=       0 NPtTot=           0 NUsed=           0 NTot=          32
 NSgBfM=   210   210   210   210   210 MxSgAt=     7 MxSgA2=     7.
 Leave Link  302 at Tue Dec  5 14:39:32 2023, MaxMem=  1879048192 cpu:               2.0 elap:               0.1
 (Enter /home/sekinelabo/g16/l303.exe)
 DipDrv:  MaxL=1.
 Leave Link  303 at Tue Dec  5 14:39:32 2023, MaxMem=  1879048192 cpu:               0.5 elap:               0.0
 (Enter /home/sekinelabo/g16/l401.exe)
 ExpMin= 7.60D-03 ExpMax= 3.62D+04 ExpMxC= 1.21D+03 IAcc=3 IRadAn=         5 AccDes= 0.00D+00
 Harris functional with IExCor=  402 and IRadAn=       5 diagonalized for initial guess.
 HarFok:  IExCor=  402 AccDes= 0.00D+00 IRadAn=         5 IDoV= 1 UseB2=F ITyADJ=14
 ICtDFT=  3500011 ScaDFX=  1.000000  1.000000  1.000000  1.000000
 FoFCou: FMM=F IPFlag=           0 FMFlag=      100000 FMFlg1=           0
         NFxFlg=           0 DoJE=T BraDBF=F KetDBF=T FulRan=T
         wScrn=  0.000000 ICntrl=       500 IOpCl=  0 I1Cent=   200000004 NGrid=           0
         NMat0=    1 NMatS0=      1 NMatT0=    0 NMatD0=    1 NMtDS0=    0 NMtDT0=    0
 Petite list used in FoFCou.
 Harris En= -1135.89213299661    
 JPrj=0 DoOrth=F DoCkMO=F.
 Initial guess <Sx>= 0.0000 <Sy>= 0.0000 <Sz>= 0.5000 <S**2>= 0.7500 S= 0.5000
 Leave Link  401 at Tue Dec  5 14:39:32 2023, MaxMem=  1879048192 cpu:               4.5 elap:               0.3
 (Enter /home/sekinelabo/g16/l502.exe)
 Keep R1 and R2 ints in memory in canonical form, NReq=506573321.
 FoFCou: FMM=F IPFlag=           0 FMFlag=           0 FMFlg1=           0
         NFxFlg=           0 DoJE=F BraDBF=F KetDBF=F FulRan=T
         wScrn=  0.000000 ICntrl=       600 IOpCl=  0 I1Cent=           0 NGrid=           0
         NMat0=    1 NMatS0=  22155 NMatT0=    0 NMatD0=    1 NMtDS0=    0 NMtDT0=    0
 Symmetry not used in FoFCou.
 Two-electron integral symmetry not used.
 UHF open shell SCF:
 Using DIIS extrapolation, IDIIS=  1040.
 NGot=  1879048192 LenX=  1388082579 LenY=  1388035049
 Requested convergence on RMS density matrix=1.00D-08 within 128 cycles.
 Requested convergence on MAX density matrix=1.00D-06.
 Requested convergence on             energy=1.00D-06.
 No special actions if energy rises.

 Cycle   1  Pass 1  IDiag  1:
 E= -1136.08347502695    
 DIIS: error= 1.11D-02 at cycle   1 NSaved=   1.
 NSaved= 1 IEnMin= 1 EnMin= -1136.08347502695     IErMin= 1 ErrMin= 1.11D-02
 ErrMax= 1.11D-02  0.00D+00 EMaxC= 1.00D-01 BMatC= 1.95D-01 BMatP= 1.95D-01
 IDIUse=3 WtCom= 8.89D-01 WtEn= 1.11D-01
 Coeff-Com:  0.100D+01
 Coeff-En:   0.100D+01
 Coeff:      0.100D+01
 Gap=     0.046 Goal=   None    Shift=    0.000
 Gap=     0.026 Goal=   None    Shift=    0.000
 GapD=    0.026 DampG=0.250 DampE=0.500 DampFc=0.2500 IDamp=-1.
 Damping current iteration by 2.50D-01
 RMSDP=2.94D-02 MaxDP=3.49D+00              OVMax= 2.36D-01

 Cycle   2  Pass 1  IDiag  1:
 E= -1136.09674734782     Delta-E=       -0.013272320869 Rises=F Damp=T
 DIIS: error= 6.89D-03 at cycle   2 NSaved=   2.
 NSaved= 2 IEnMin= 2 EnMin= -1136.09674734782     IErMin= 2 ErrMin= 6.89D-03
 ErrMax= 6.89D-03  0.00D+00 EMaxC= 1.00D-01 BMatC= 7.40D-02 BMatP= 1.95D-01
 IDIUse=3 WtCom= 9.31D-01 WtEn= 6.89D-02
 Coeff-Com: -0.126D+01 0.226D+01
 Coeff-En:   0.000D+00 0.100D+01
 Coeff:     -0.117D+01 0.217D+01
 Gap=     0.054 Goal=   None    Shift=    0.000
 Gap=     0.031 Goal=   None    Shift=    0.000
 RMSDP=1.80D-02 MaxDP=2.27D+00 DE=-1.33D-02 OVMax= 1.76D-01

 Cycle   3  Pass 1  IDiag  1:
 E= -1136.11881783723     Delta-E=       -0.022070489413 Rises=F Damp=F
 DIIS: error= 3.17D-03 at cycle   3 NSaved=   3.
 NSaved= 3 IEnMin= 3 EnMin= -1136.11881783723     IErMin= 3 ErrMin= 3.17D-03
 ErrMax= 3.17D-03  0.00D+00 EMaxC= 1.00D-01 BMatC= 3.24D-03 BMatP= 7.40D-02
 IDIUse=3 WtCom= 9.68D-01 WtEn= 3.17D-02
 Coeff-Com: -0.245D+00 0.430D+00 0.815D+00
 Coeff-En:   0.000D+00 0.000D+00 0.100D+01
 Coeff:     -0.237D+00 0.417D+00 0.821D+00
 Gap=     0.046 Goal=   None    Shift=    0.000
 Gap=     0.029 Goal=   None    Shift=    0.000
 RMSDP=6.91D-03 MaxDP=4.97D-01 DE=-2.21D-02 OVMax= 1.02D-01

 Cycle   4  Pass 1  IDiag  1:
 E= -1136.11795911142     Delta-E=        0.000858725818 Rises=F Damp=F
 DIIS: error= 2.48D-03 at cycle   4 NSaved=   4.
 NSaved= 4 IEnMin= 3 EnMin= -1136.11881783723     IErMin= 4 ErrMin= 2.48D-03
 ErrMax= 2.48D-03  0.00D+00 EMaxC= 1.00D-01 BMatC= 3.78D-03 BMatP= 3.24D-03
 IDIUse=3 WtCom= 1.67D-01 WtEn= 8.33D-01
 Coeff-Com: -0.161D-01 0.244D-01 0.517D+00 0.474D+00
 Coeff-En:   0.000D+00 0.000D+00 0.553D+00 0.447D+00
 Coeff:     -0.269D-02 0.407D-02 0.547D+00 0.451D+00
 Gap=     0.049 Goal=   None    Shift=    0.000
 Gap=     0.030 Goal=   None    Shift=    0.000
 RMSDP=3.72D-03 MaxDP=2.17D-01 DE= 8.59D-04 OVMax= 6.23D-02

 Cycle   5  Pass 1  IDiag  1:
 E= -1136.12151602648     Delta-E=       -0.003556915060 Rises=F Damp=F
 DIIS: error= 7.67D-04 at cycle   5 NSaved=   5.
 NSaved= 5 IEnMin= 5 EnMin= -1136.12151602648     IErMin= 5 ErrMin= 7.67D-04
 ErrMax= 7.67D-04  0.00D+00 EMaxC= 1.00D-01 BMatC= 2.23D-04 BMatP= 3.24D-03
 IDIUse=3 WtCom= 9.92D-01 WtEn= 7.67D-03
 Coeff-Com: -0.255D-02 0.251D-02 0.322D+00 0.287D+00 0.391D+00
 Coeff-En:   0.000D+00 0.000D+00 0.000D+00 0.000D+00 0.100D+01
 Coeff:     -0.253D-02 0.249D-02 0.320D+00 0.285D+00 0.395D+00
 Gap=     0.049 Goal=   None    Shift=    0.000
 Gap=     0.030 Goal=   None    Shift=    0.000
 RMSDP=8.54D-04 MaxDP=7.41D-02 DE=-3.56D-03 OVMax= 1.60D-02

 Cycle   6  Pass 1  IDiag  1:
 E= -1136.12175396359     Delta-E=       -0.000237937118 Rises=F Damp=F
 DIIS: error= 1.91D-04 at cycle   6 NSaved=   6.
 NSaved= 6 IEnMin= 6 EnMin= -1136.12175396359     IErMin= 6 ErrMin= 1.91D-04
 ErrMax= 1.91D-04  0.00D+00 EMaxC= 1.00D-01 BMatC= 6.60D-06 BMatP= 2.23D-04
 IDIUse=3 WtCom= 9.98D-01 WtEn= 1.91D-03
 Coeff-Com: -0.142D-02 0.131D-02 0.208D-01 0.139D-01 0.121D+00 0.844D+00
 Coeff-En:   0.000D+00 0.000D+00 0.000D+00 0.000D+00 0.000D+00 0.100D+01
 Coeff:     -0.142D-02 0.131D-02 0.208D-01 0.139D-01 0.121D+00 0.844D+00
 Gap=     0.049 Goal=   None    Shift=    0.000
 Gap=     0.030 Goal=   None    Shift=    0.000
 RMSDP=2.97D-04 MaxDP=1.58D-02 DE=-2.38D-04 OVMax= 5.95D-03

 Cycle   7  Pass 1  IDiag  1:
 E= -1136.12176339233     Delta-E=       -0.000009428734 Rises=F Damp=F
 DIIS: error= 1.23D-04 at cycle   7 NSaved=   7.
 NSaved= 7 IEnMin= 7 EnMin= -1136.12176339233     IErMin= 7 ErrMin= 1.23D-04
 ErrMax= 1.23D-04  0.00D+00 EMaxC= 1.00D-01 BMatC= 4.29D-06 BMatP= 6.60D-06
 IDIUse=3 WtCom= 9.99D-01 WtEn= 1.23D-03
 Coeff-Com: -0.351D-03 0.186D-03-0.489D-01-0.463D-01 0.407D-02 0.559D+00
 Coeff-Com:  0.533D+00
 Coeff-En:   0.000D+00 0.000D+00 0.000D+00 0.000D+00 0.000D+00 0.160D-01
 Coeff-En:   0.984D+00
 Coeff:     -0.351D-03 0.186D-03-0.488D-01-0.463D-01 0.406D-02 0.558D+00
 Coeff:      0.533D+00
 Gap=     0.049 Goal=   None    Shift=    0.000
 Gap=     0.030 Goal=   None    Shift=    0.000
 RMSDP=1.68D-04 MaxDP=8.31D-03 DE=-9.43D-06 OVMax= 4.36D-03

 Cycle   8  Pass 1  IDiag  1:
 E= -1136.12177041274     Delta-E=       -0.000007020414 Rises=F Damp=F
 DIIS: error= 3.05D-05 at cycle   8 NSaved=   8.
 NSaved= 8 IEnMin= 8 EnMin= -1136.12177041274     IErMin= 8 ErrMin= 3.05D-05
 ErrMax= 3.05D-05  0.00D+00 EMaxC= 1.00D-01 BMatC= 2.58D-07 BMatP= 4.29D-06
 IDIUse=1 WtCom= 1.00D+00 WtEn= 0.00D+00
 Coeff-Com:  0.737D-03-0.898D-03-0.549D-02-0.214D-02-0.272D-01-0.189D+00
 Coeff-Com: -0.216D-01 0.125D+01
 Coeff:      0.737D-03-0.898D-03-0.549D-02-0.214D-02-0.272D-01-0.189D+00
 Coeff:     -0.216D-01 0.125D+01
 Gap=     0.049 Goal=   None    Shift=    0.000
 Gap=     0.030 Goal=   None    Shift=    0.000
 RMSDP=1.19D-04 MaxDP=5.70D-03 DE=-7.02D-06 OVMax= 4.47D-03

 Cycle   9  Pass 1  IDiag  1:
 E= -1136.12177267516     Delta-E=       -0.000002262418 Rises=F Damp=F
 DIIS: error= 1.71D-05 at cycle   9 NSaved=   9.
 NSaved= 9 IEnMin= 9 EnMin= -1136.12177267516     IErMin= 9 ErrMin= 1.71D-05
 ErrMax= 1.71D-05  0.00D+00 EMaxC= 1.00D-01 BMatC= 7.85D-08 BMatP= 2.58D-07
 IDIUse=1 WtCom= 1.00D+00 WtEn= 0.00D+00
 Coeff-Com:  0.345D-03-0.404D-03 0.564D-02 0.604D-02-0.796D-02-0.101D+00
 Coeff-Com: -0.805D-01 0.158D+00 0.102D+01
 Coeff:      0.345D-03-0.404D-03 0.564D-02 0.604D-02-0.796D-02-0.101D+00
 Coeff:     -0.805D-01 0.158D+00 0.102D+01
 Gap=     0.049 Goal=   None    Shift=    0.000
 Gap=     0.030 Goal=   None    Shift=    0.000
 RMSDP=6.87D-05 MaxDP=3.44D-03 DE=-2.26D-06 OVMax= 2.82D-03

 Cycle  10  Pass 1  IDiag  1:
 E= -1136.12177340038     Delta-E=       -0.000000725224 Rises=F Damp=F
 DIIS: error= 1.36D-05 at cycle  10 NSaved=  10.
 NSaved=10 IEnMin=10 EnMin= -1136.12177340038     IErMin=10 ErrMin= 1.36D-05
 ErrMax= 1.36D-05  0.00D+00 EMaxC= 1.00D-01 BMatC= 5.26D-08 BMatP= 7.85D-08
 IDIUse=1 WtCom= 1.00D+00 WtEn= 0.00D+00
 Coeff-Com: -0.593D-04 0.948D-04 0.542D-02 0.432D-02 0.291D-02-0.287D-02
 Coeff-Com: -0.425D-01-0.287D+00 0.584D+00 0.735D+00
 Coeff:     -0.593D-04 0.948D-04 0.542D-02 0.432D-02 0.291D-02-0.287D-02
 Coeff:     -0.425D-01-0.287D+00 0.584D+00 0.735D+00
 Gap=     0.049 Goal=   None    Shift=    0.000
 Gap=     0.030 Goal=   None    Shift=    0.000
 RMSDP=4.80D-05 MaxDP=2.75D-03 DE=-7.25D-07 OVMax= 2.02D-03

 Cycle  11  Pass 1  IDiag  1:
 E= -1136.12177376084     Delta-E=       -0.000000360453 Rises=F Damp=F
 DIIS: error= 1.11D-05 at cycle  11 NSaved=  11.
 NSaved=11 IEnMin=11 EnMin= -1136.12177376084     IErMin=11 ErrMin= 1.11D-05
 ErrMax= 1.11D-05  0.00D+00 EMaxC= 1.00D-01 BMatC= 2.11D-08 BMatP= 5.26D-08
 IDIUse=1 WtCom= 1.00D+00 WtEn= 0.00D+00
 Coeff-Com: -0.270D-03 0.348D-03 0.660D-03-0.404D-03 0.543D-02 0.467D-01
 Coeff-Com:  0.124D-01-0.224D+00-0.231D+00 0.399D+00 0.992D+00
 Coeff:     -0.270D-03 0.348D-03 0.660D-03-0.404D-03 0.543D-02 0.467D-01
 Coeff:      0.124D-01-0.224D+00-0.231D+00 0.399D+00 0.992D+00
 Gap=     0.049 Goal=   None    Shift=    0.000
 Gap=     0.030 Goal=   None    Shift=    0.000
 RMSDP=5.12D-05 MaxDP=2.50D-03 DE=-3.60D-07 OVMax= 2.40D-03

 Cycle  12  Pass 1  IDiag  1:
 E= -1136.12177402372     Delta-E=       -0.000000262881 Rises=F Damp=F
 DIIS: error= 8.06D-06 at cycle  12 NSaved=  12.
 NSaved=12 IEnMin=12 EnMin= -1136.12177402372     IErMin=12 ErrMin= 8.06D-06
 ErrMax= 8.06D-06  0.00D+00 EMaxC= 1.00D-01 BMatC= 8.32D-09 BMatP= 2.11D-08
 IDIUse=1 WtCom= 1.00D+00 WtEn= 0.00D+00
 Coeff-Com: -0.669D-04 0.756D-04-0.167D-02-0.147D-02 0.469D-03 0.196D-01
 Coeff-Com:  0.137D-01 0.271D-01-0.253D+00-0.176D+00 0.330D+00 0.104D+01
 Coeff:     -0.669D-04 0.756D-04-0.167D-02-0.147D-02 0.469D-03 0.196D-01
 Coeff:      0.137D-01 0.271D-01-0.253D+00-0.176D+00 0.330D+00 0.104D+01
 Gap=     0.049 Goal=   None    Shift=    0.000
 Gap=     0.030 Goal=   None    Shift=    0.000
 RMSDP=3.50D-05 MaxDP=1.91D-03 DE=-2.63D-07 OVMax= 1.80D-03

 Cycle  13  Pass 1  IDiag  1:
 E= -1136.12177415016     Delta-E=       -0.000000126443 Rises=F Damp=F
 DIIS: error= 6.04D-06 at cycle  13 NSaved=  13.
 NSaved=13 IEnMin=13 EnMin= -1136.12177415016     IErMin=13 ErrMin= 6.04D-06
 ErrMax= 6.04D-06  0.00D+00 EMaxC= 1.00D-01 BMatC= 3.58D-09 BMatP= 8.32D-09
 IDIUse=1 WtCom= 1.00D+00 WtEn= 0.00D+00
 Coeff-Com:  0.123D-03-0.162D-03-0.502D-03 0.779D-04-0.269D-02-0.161D-01
 Coeff-Com: -0.624D-02 0.117D+00 0.492D-01-0.222D+00-0.362D+00 0.328D-01
 Coeff-Com:  0.141D+01
 Coeff:      0.123D-03-0.162D-03-0.502D-03 0.779D-04-0.269D-02-0.161D-01
 Coeff:     -0.624D-02 0.117D+00 0.492D-01-0.222D+00-0.362D+00 0.328D-01
 Coeff:      0.141D+01
 Gap=     0.049 Goal=   None    Shift=    0.000
 Gap=     0.030 Goal=   None    Shift=    0.000
 RMSDP=3.36D-05 MaxDP=1.78D-03 DE=-1.26D-07 OVMax= 1.90D-03

 Cycle  14  Pass 1  IDiag  1:
 E= -1136.12177424014     Delta-E=       -0.000000089984 Rises=F Damp=F
 DIIS: error= 4.06D-06 at cycle  14 NSaved=  14.
 NSaved=14 IEnMin=14 EnMin= -1136.12177424014     IErMin=14 ErrMin= 4.06D-06
 ErrMax= 4.06D-06  0.00D+00 EMaxC= 1.00D-01 BMatC= 1.78D-09 BMatP= 3.58D-09
 IDIUse=1 WtCom= 1.00D+00 WtEn= 0.00D+00
 Coeff-Com: -0.289D-04 0.416D-04 0.495D-03 0.319D-03 0.288D-03 0.172D-02
 Coeff-Com: -0.472D-02-0.465D-01 0.699D-01 0.131D+00 0.462D-01-0.501D+00
 Coeff-Com: -0.450D+00 0.175D+01
 Coeff:     -0.289D-04 0.416D-04 0.495D-03 0.319D-03 0.288D-03 0.172D-02
 Coeff:     -0.472D-02-0.465D-01 0.699D-01 0.131D+00 0.462D-01-0.501D+00
 Coeff:     -0.450D+00 0.175D+01
 Gap=     0.049 Goal=   None    Shift=    0.000
 Gap=     0.030 Goal=   None    Shift=    0.000
 RMSDP=2.67D-05 MaxDP=1.71D-03 DE=-9.00D-08 OVMax= 1.69D-03

 Cycle  15  Pass 1  IDiag  1:
 E= -1136.12177429512     Delta-E=       -0.000000054975 Rises=F Damp=F
 DIIS: error= 2.48D-06 at cycle  15 NSaved=  15.
 NSaved=15 IEnMin=15 EnMin= -1136.12177429512     IErMin=15 ErrMin= 2.48D-06
 ErrMax= 2.48D-06  0.00D+00 EMaxC= 1.00D-01 BMatC= 8.32D-10 BMatP= 1.78D-09
 IDIUse=1 WtCom= 1.00D+00 WtEn= 0.00D+00
 Coeff-Com: -0.634D-04 0.825D-04 0.252D-03-0.967D-04 0.118D-02 0.941D-02
 Coeff-Com:  0.366D-02-0.458D-01-0.703D-01 0.636D-01 0.254D+00 0.148D+00
 Coeff-Com: -0.656D+00-0.680D+00 0.197D+01
 Coeff:     -0.634D-04 0.825D-04 0.252D-03-0.967D-04 0.118D-02 0.941D-02
 Coeff:      0.366D-02-0.458D-01-0.703D-01 0.636D-01 0.254D+00 0.148D+00
 Coeff:     -0.656D+00-0.680D+00 0.197D+01
 Gap=     0.049 Goal=   None    Shift=    0.000
 Gap=     0.030 Goal=   None    Shift=    0.000
 RMSDP=2.42D-05 MaxDP=1.67D-03 DE=-5.50D-08 OVMax= 1.60D-03

 Cycle  16  Pass 1  IDiag  1:
 E= -1136.12177432756     Delta-E=       -0.000000032444 Rises=F Damp=F
 DIIS: error= 1.11D-06 at cycle  16 NSaved=  16.
 NSaved=16 IEnMin=16 EnMin= -1136.12177432756     IErMin=16 ErrMin= 1.11D-06
 ErrMax= 1.11D-06  0.00D+00 EMaxC= 1.00D-01 BMatC= 2.69D-10 BMatP= 8.32D-10
 IDIUse=1 WtCom= 1.00D+00 WtEn= 0.00D+00
 Coeff-Com:  0.143D-04-0.215D-04-0.284D-03-0.129D-03-0.210D-03-0.114D-02
 Coeff-Com:  0.945D-03 0.339D-01-0.387D-01-0.874D-01-0.376D-01 0.277D+00
 Coeff-Com:  0.272D+00-0.793D+00-0.237D+00 0.161D+01
 Coeff:      0.143D-04-0.215D-04-0.284D-03-0.129D-03-0.210D-03-0.114D-02
 Coeff:      0.945D-03 0.339D-01-0.387D-01-0.874D-01-0.376D-01 0.277D+00
 Coeff:      0.272D+00-0.793D+00-0.237D+00 0.161D+01
 Gap=     0.049 Goal=   None    Shift=    0.000
 Gap=     0.030 Goal=   None    Shift=    0.000
 RMSDP=1.58D-05 MaxDP=1.09D-03 DE=-3.24D-08 OVMax= 9.95D-04

 Cycle  17  Pass 1  IDiag  1:
 E= -1136.12177433741     Delta-E=       -0.000000009847 Rises=F Damp=F
 DIIS: error= 5.94D-07 at cycle  17 NSaved=  17.
 NSaved=17 IEnMin=17 EnMin= -1136.12177433741     IErMin=17 ErrMin= 5.94D-07
 ErrMax= 5.94D-07  0.00D+00 EMaxC= 1.00D-01 BMatC= 6.62D-11 BMatP= 2.69D-10
 IDIUse=1 WtCom= 1.00D+00 WtEn= 0.00D+00
 Coeff-Com:  0.180D-04-0.239D-04-0.158D-03-0.248D-04-0.423D-03-0.185D-02
 Coeff-Com: -0.736D-03 0.112D-01 0.182D-01-0.147D-01-0.648D-01-0.544D-01
 Coeff-Com:  0.194D+00 0.189D+00-0.579D+00 0.624D-01 0.124D+01
 Coeff:      0.180D-04-0.239D-04-0.158D-03-0.248D-04-0.423D-03-0.185D-02
 Coeff:     -0.736D-03 0.112D-01 0.182D-01-0.147D-01-0.648D-01-0.544D-01
 Coeff:      0.194D+00 0.189D+00-0.579D+00 0.624D-01 0.124D+01
 Gap=     0.049 Goal=   None    Shift=    0.000
 Gap=     0.030 Goal=   None    Shift=    0.000
 RMSDP=5.88D-06 MaxDP=4.09D-04 DE=-9.85D-09 OVMax= 3.28D-04

 Cycle  18  Pass 1  IDiag  1:
 E= -1136.12177433877     Delta-E=       -0.000000001364 Rises=F Damp=F
 DIIS: error= 3.01D-07 at cycle  18 NSaved=  18.
 NSaved=18 IEnMin=18 EnMin= -1136.12177433877     IErMin=18 ErrMin= 3.01D-07
 ErrMax= 3.01D-07  0.00D+00 EMaxC= 1.00D-01 BMatC= 1.61D-11 BMatP= 6.62D-11
 IDIUse=1 WtCom= 1.00D+00 WtEn= 0.00D+00
 Coeff-Com:  0.418D-05-0.451D-05 0.740D-04 0.464D-04-0.705D-04-0.811D-03
 Coeff-Com: -0.719D-03-0.474D-02 0.137D-01 0.208D-01-0.267D-02-0.921D-01
 Coeff-Com: -0.282D-01 0.241D+00 0.560D-02-0.528D+00 0.278D+00 0.110D+01
 Coeff:      0.418D-05-0.451D-05 0.740D-04 0.464D-04-0.705D-04-0.811D-03
 Coeff:     -0.719D-03-0.474D-02 0.137D-01 0.208D-01-0.267D-02-0.921D-01
 Coeff:     -0.282D-01 0.241D+00 0.560D-02-0.528D+00 0.278D+00 0.110D+01
 Gap=     0.049 Goal=   None    Shift=    0.000
 Gap=     0.030 Goal=   None    Shift=    0.000
 RMSDP=2.49D-06 MaxDP=2.06D-04 DE=-1.36D-09 OVMax= 1.14D-04

 Cycle  19  Pass 1  IDiag  1:
 E= -1136.12177433899     Delta-E=       -0.000000000215 Rises=F Damp=F
 DIIS: error= 9.32D-08 at cycle  19 NSaved=  19.
 NSaved=19 IEnMin=19 EnMin= -1136.12177433899     IErMin=19 ErrMin= 9.32D-08
 ErrMax= 9.32D-08  0.00D+00 EMaxC= 1.00D-01 BMatC= 1.50D-12 BMatP= 1.61D-11
 IDIUse=1 WtCom= 1.00D+00 WtEn= 0.00D+00
 Coeff-Com: -0.681D-05 0.889D-05 0.194D-04-0.932D-06 0.928D-04 0.659D-03
 Coeff-Com:  0.310D-03-0.279D-02-0.488D-02 0.242D-02 0.151D-01 0.169D-01
 Coeff-Com: -0.471D-01-0.395D-01 0.980D-01 0.271D-01-0.226D+00-0.107D+00
 Coeff-Com:  0.127D+01
 Coeff:     -0.681D-05 0.889D-05 0.194D-04-0.932D-06 0.928D-04 0.659D-03
 Coeff:      0.310D-03-0.279D-02-0.488D-02 0.242D-02 0.151D-01 0.169D-01
 Coeff:     -0.471D-01-0.395D-01 0.980D-01 0.271D-01-0.226D+00-0.107D+00
 Coeff:      0.127D+01
 Gap=     0.049 Goal=   None    Shift=    0.000
 Gap=     0.030 Goal=   None    Shift=    0.000
 RMSDP=8.74D-07 MaxDP=5.52D-05 DE=-2.15D-10 OVMax= 3.93D-05

 Cycle  20  Pass 1  IDiag  1:
 E= -1136.12177433901     Delta-E=       -0.000000000017 Rises=F Damp=F
 DIIS: error= 2.40D-08 at cycle  20 NSaved=  20.
 NSaved=20 IEnMin=20 EnMin= -1136.12177433901     IErMin=20 ErrMin= 2.40D-08
 ErrMax= 2.40D-08  0.00D+00 EMaxC= 1.00D-01 BMatC= 1.20D-13 BMatP= 1.50D-12
 IDIUse=1 WtCom= 1.00D+00 WtEn= 0.00D+00
 Coeff-Com:  0.162D-06-0.284D-06-0.143D-06 0.114D-05 0.144D-05-0.273D-04
 Coeff-Com:  0.222D-04 0.553D-03-0.642D-03-0.157D-02-0.746D-03 0.660D-02
 Coeff-Com:  0.339D-02-0.149D-01-0.363D-02 0.401D-01-0.188D-01-0.881D-01
 Coeff-Com:  0.242D-01 0.105D+01
 Coeff:      0.162D-06-0.284D-06-0.143D-06 0.114D-05 0.144D-05-0.273D-04
 Coeff:      0.222D-04 0.553D-03-0.642D-03-0.157D-02-0.746D-03 0.660D-02
 Coeff:      0.339D-02-0.149D-01-0.363D-02 0.401D-01-0.188D-01-0.881D-01
 Coeff:      0.242D-01 0.105D+01
 Gap=     0.049 Goal=   None    Shift=    0.000
 Gap=     0.030 Goal=   None    Shift=    0.000
 RMSDP=1.02D-07 MaxDP=4.69D-06 DE=-1.73D-11 OVMax= 6.24D-06

 Cycle  21  Pass 1  IDiag  1:
 E= -1136.12177433901     Delta-E=       -0.000000000000 Rises=F Damp=F
 DIIS: error= 7.40D-09 at cycle  21 NSaved=  20.
 NSaved=20 IEnMin=20 EnMin= -1136.12177433901     IErMin=20 ErrMin= 7.40D-09
 ErrMax= 7.40D-09  0.00D+00 EMaxC= 1.00D-01 BMatC= 2.29D-14 BMatP= 1.20D-13
 IDIUse=1 WtCom= 1.00D+00 WtEn= 0.00D+00
 Coeff-Com:  0.489D-07-0.186D-05-0.176D-05 0.911D-06 0.343D-05-0.261D-05
 Coeff-Com:  0.745D-04-0.302D-04-0.137D-03-0.357D-03 0.100D-03 0.218D-02
 Coeff-Com: -0.131D-02-0.497D-02 0.664D-02 0.880D-02-0.106D-01-0.868D-01
 Coeff-Com:  0.181D+00 0.905D+00
 Coeff:      0.489D-07-0.186D-05-0.176D-05 0.911D-06 0.343D-05-0.261D-05
 Coeff:      0.745D-04-0.302D-04-0.137D-03-0.357D-03 0.100D-03 0.218D-02
 Coeff:     -0.131D-02-0.497D-02 0.664D-02 0.880D-02-0.106D-01-0.868D-01
 Coeff:      0.181D+00 0.905D+00
 Gap=     0.049 Goal=   None    Shift=    0.000
 Gap=     0.030 Goal=   None    Shift=    0.000
 RMSDP=4.64D-08 MaxDP=3.36D-06 DE=-4.55D-13 OVMax= 2.56D-06

 Cycle  22  Pass 1  IDiag  1:
 E= -1136.12177433901     Delta-E=        0.000000000003 Rises=F Damp=F
 DIIS: error= 3.98D-09 at cycle  22 NSaved=  20.
 NSaved=20 IEnMin=19 EnMin= -1136.12177433901     IErMin=20 ErrMin= 3.98D-09
 ErrMax= 3.98D-09  0.00D+00 EMaxC= 1.00D-01 BMatC= 5.94D-15 BMatP= 2.29D-14
 IDIUse=1 WtCom= 1.00D+00 WtEn= 0.00D+00
 Coeff-Com: -0.801D-06-0.438D-06-0.219D-05-0.431D-05-0.119D-04-0.374D-04
 Coeff-Com:  0.180D-03 0.195D-03-0.747D-04-0.148D-02 0.257D-03 0.321D-02
 Coeff-Com: -0.129D-02-0.739D-02 0.774D-02 0.171D-01-0.306D-01-0.194D+00
 Coeff-Com:  0.184D+00 0.102D+01
 Coeff:     -0.801D-06-0.438D-06-0.219D-05-0.431D-05-0.119D-04-0.374D-04
 Coeff:      0.180D-03 0.195D-03-0.747D-04-0.148D-02 0.257D-03 0.321D-02
 Coeff:     -0.129D-02-0.739D-02 0.774D-02 0.171D-01-0.306D-01-0.194D+00
 Coeff:      0.184D+00 0.102D+01
 Gap=     0.049 Goal=   None    Shift=    0.000
 Gap=     0.030 Goal=   None    Shift=    0.000
 RMSDP=1.27D-08 MaxDP=7.20D-07 DE= 2.73D-12 OVMax= 7.28D-07

 Cycle  23  Pass 1  IDiag  1:
 E= -1136.12177433901     Delta-E=       -0.000000000010 Rises=F Damp=F
 DIIS: error= 1.62D-09 at cycle  23 NSaved=  20.
 NSaved=20 IEnMin=20 EnMin= -1136.12177433901     IErMin=20 ErrMin= 1.62D-09
 ErrMax= 1.62D-09  0.00D+00 EMaxC= 1.00D-01 BMatC= 9.84D-16 BMatP= 5.94D-15
 IDIUse=1 WtCom= 1.00D+00 WtEn= 0.00D+00
 Large coefficients: NSaved= 20 BigCof=    0.00 CofMax=   10.00 Det=-2.02D-15
 Inversion failed.  Reducing to 19 matrices.
 Large coefficients: NSaved= 19 BigCof=    0.00 CofMax=   10.00 Det=-2.05D-15
 Inversion failed.  Reducing to 18 matrices.
 Large coefficients: NSaved= 18 BigCof=    0.00 CofMax=   10.00 Det=-2.19D-15
 Inversion failed.  Reducing to 17 matrices.
 Large coefficients: NSaved= 17 BigCof=    0.00 CofMax=   10.00 Det=-2.33D-15
 Inversion failed.  Reducing to 16 matrices.
 Large coefficients: NSaved= 16 BigCof=    0.00 CofMax=   10.00 Det=-2.64D-15
 Inversion failed.  Reducing to 15 matrices.
 Coeff-Com:  0.716D-05-0.277D-05-0.401D-05 0.145D-03-0.336D-03 0.522D-04
 Coeff-Com:  0.977D-03-0.896D-03-0.193D-02 0.131D-02 0.173D-01-0.363D-01
 Coeff-Com: -0.178D+00-0.105D-01 0.121D+01
 Coeff:      0.716D-05-0.277D-05-0.401D-05 0.145D-03-0.336D-03 0.522D-04
 Coeff:      0.977D-03-0.896D-03-0.193D-02 0.131D-02 0.173D-01-0.363D-01
 Coeff:     -0.178D+00-0.105D-01 0.121D+01
 Gap=     0.049 Goal=   None    Shift=    0.000
 Gap=     0.030 Goal=   None    Shift=    0.000
 RMSDP=1.09D-08 MaxDP=6.20D-07 DE=-9.78D-12 OVMax= 3.52D-07

 Cycle  24  Pass 1  IDiag  1:
 E= -1136.12177433901     Delta-E=        0.000000000009 Rises=F Damp=F
 DIIS: error= 8.45D-10 at cycle  24 NSaved=  16.
 NSaved=16 IEnMin=15 EnMin= -1136.12177433901     IErMin=16 ErrMin= 8.45D-10
 ErrMax= 8.45D-10  0.00D+00 EMaxC= 1.00D-01 BMatC= 2.09D-16 BMatP= 9.84D-16
 IDIUse=1 WtCom= 1.00D+00 WtEn= 0.00D+00
 Large coefficients: NSaved= 16 BigCof=    0.00 CofMax=   10.00 Det=-3.58D-16
 Inversion failed.  Reducing to 15 matrices.
 Coeff-Com: -0.138D-04-0.110D-04 0.115D-03-0.883D-04-0.133D-03 0.208D-03
 Coeff-Com:  0.312D-03-0.114D-02-0.100D-02 0.951D-02 0.572D-02-0.887D-01
 Coeff-Com: -0.929D-01 0.316D+00 0.852D+00
 Coeff:     -0.138D-04-0.110D-04 0.115D-03-0.883D-04-0.133D-03 0.208D-03
 Coeff:      0.312D-03-0.114D-02-0.100D-02 0.951D-02 0.572D-02-0.887D-01
 Coeff:     -0.929D-01 0.316D+00 0.852D+00
 Gap=     0.049 Goal=   None    Shift=    0.000
 Gap=     0.030 Goal=   None    Shift=    0.000
 RMSDP=4.05D-09 MaxDP=2.36D-07 DE= 9.09D-12 OVMax= 2.11D-07

 SCF Done:  E(UB3LYP) =  -1136.12177434     A.U. after   24 cycles
            NFock= 24  Conv=0.40D-08     -V/T= 2.0028
 <Sx>= 0.0000 <Sy>= 0.0000 <Sz>= 0.5000 <S**2>= 0.7683 S= 0.5091
 <L.S>= 0.000000000000E+00
 KE= 1.133000429730D+03 PE=-3.426502072228D+03 EE= 8.088298241246D+02
 Annihilation of the first spin contaminant:
 S**2 before annihilation     0.7683,   after     0.7502
 Leave Link  502 at Tue Dec  5 14:39:52 2023, MaxMem=  1879048192 cpu:             220.8 elap:              19.9
 (Enter /home/sekinelabo/g16/l601.exe)
 Copying SCF densities to generalized density rwf, IOpCl= 1 IROHF=0.

 **********************************************************************

            Population analysis using the SCF Density.

 **********************************************************************

 Orbital symmetries:
 Alpha Orbitals:
       Occupied  (A) (A) (A) (A) (A) (A) (A) (A) (A) (A) (A) (A)
                 (A) (A) (A) (A) (A) (A) (A) (A) (A) (A) (A) (A)
                 (A) (A) (A) (A) (A) (A) (A) (A) (A) (A) (A) (A)
                 (A) (A) (A)
       Virtual   (A) (A) (A) (A) (A) (A) (A) (A) (A) (A) (A) (A)
                 (A) (A) (A) (A) (A) (A) (A) (A) (A) (A) (A) (A)
                 (A) (A) (A) (A) (A) (A) (A) (A) (A) (A) (A) (A)
                 (A) (A) (A) (A) (A) (A) (A) (A) (A) (A) (A) (A)
                 (A) (A) (A) (A) (A) (A) (A) (A) (A) (A) (A) (A)
                 (A) (A) (A) (A) (A) (A) (A) (A) (A) (A) (A) (A)
                 (A) (A) (A) (A) (A) (A) (A) (A) (A) (A) (A) (A)
                 (A) (A) (A) (A) (A) (A) (A) (A) (A) (A) (A) (A)
                 (A) (A) (A) (A) (A) (A) (A) (A) (A) (A) (A) (A)
                 (A) (A) (A) (A) (A) (A) (A) (A) (A) (A) (A) (A)
                 (A) (A) (A) (A) (A) (A) (A) (A) (A) (A) (A) (A)
                 (A) (A) (A) (A) (A) (A) (A) (A) (A) (A) (A) (A)
                 (A) (A) (A) (A) (A) (A) (A) (A) (A) (A) (A) (A)
                 (A) (A) (A) (A) (A) (A) (A) (A) (A) (A) (A) (A)
                 (A) (A) (A)
 Beta  Orbitals:
       Occupied  (A) (A) (A) (A) (A) (A) (A) (A) (A) (A) (A) (A)
                 (A) (A) (A) (A) (A) (A) (A) (A) (A) (A) (A) (A)
                 (A) (A) (A) (A) (A) (A) (A) (A) (A) (A) (A) (A)
                 (A) (A)
       Virtual   (A) (A) (A) (A) (A) (A) (A) (A) (A) (A) (A) (A)
                 (A) (A) (A) (A) (A) (A) (A) (A) (A) (A) (A) (A)
                 (A) (A) (A) (A) (A) (A) (A) (A) (A) (A) (A) (A)
                 (A) (A) (A) (A) (A) (A) (A) (A) (A) (A) (A) (A)
                 (A) (A) (A) (A) (A) (A) (A) (A) (A) (A) (A) (A)
                 (A) (A) (A) (A) (A) (A) (A) (A) (A) (A) (A) (A)
                 (A) (A) (A) (A) (A) (A) (A) (A) (A) (A) (A) (A)
                 (A) (A) (A) (A) (A) (A) (A) (A) (A) (A) (A) (A)
                 (A) (A) (A) (A) (A) (A) (A) (A) (A) (A) (A) (A)
                 (A) (A) (A) (A) (A) (A) (A) (A) (A) (A) (A) (A)
                 (A) (A) (A) (A) (A) (A) (A) (A) (A) (A) (A) (A)
                 (A) (A) (A) (A) (A) (A) (A) (A) (A) (A) (A) (A)
                 (A) (A) (A) (A) (A) (A) (A) (A) (A) (A) (A) (A)
                 (A) (A) (A) (A) (A) (A) (A) (A) (A) (A) (A) (A)
                 (A) (A) (A) (A)
 The electronic state is 2-A.
 Alpha  occ. eigenvalues --  -38.44603 -38.44542 -38.43952 -38.43812 -38.43632
 Alpha  occ. eigenvalues --  -38.43527 -38.42671  -2.20476  -2.20415  -2.19918
 Alpha  occ. eigenvalues --   -2.19731  -2.19608  -2.19382  -2.18554  -1.14290
 Alpha  occ. eigenvalues --   -1.14125  -1.14112  -1.14069  -1.14045  -1.14037
 Alpha  occ. eigenvalues --   -1.13618  -1.13567  -1.13532  -1.13399  -1.13381
 Alpha  occ. eigenvalues --   -1.13355  -1.13305  -1.13255  -1.13180  -1.13067
 Alpha  occ. eigenvalues --   -1.13021  -1.13004  -1.12252  -1.12228  -1.12160
 Alpha  occ. eigenvalues --   -0.19070  -0.13682  -0.12117  -0.11246
 Alpha virt. eigenvalues --   -0.06325  -0.04664  -0.04390  -0.03447  -0.02971
 Alpha virt. eigenvalues --   -0.02674  -0.02038  -0.00710  -0.00535   0.00124
 Alpha virt. eigenvalues --    0.00274   0.00336   0.00410   0.00831   0.00881
 Alpha virt. eigenvalues --    0.00957   0.01066   0.01102   0.01261   0.01340
 Alpha virt. eigenvalues --    0.01445   0.01663   0.01724   0.01822   0.01889
 Alpha virt. eigenvalues --    0.02264   0.02499   0.02558   0.02715   0.02746
 Alpha virt. eigenvalues --    0.02831   0.02870   0.02919   0.02986   0.03017
 Alpha virt. eigenvalues --    0.03106   0.03217   0.03508   0.03608   0.03784
 Alpha virt. eigenvalues --    0.03986   0.04466   0.04595   0.04721   0.04820
 Alpha virt. eigenvalues --    0.05207   0.05391   0.05488   0.05790   0.06048
 Alpha virt. eigenvalues --    0.06084   0.06286   0.06640   0.06943   0.07055
 Alpha virt. eigenvalues --    0.07158   0.07865   0.08337   0.08664   0.09009
 Alpha virt. eigenvalues --    0.09223   0.09979   0.10395   0.10708   0.11628
 Alpha virt. eigenvalues --    0.12316   0.12537   0.12975   0.13111   0.13389
 Alpha virt. eigenvalues --    0.13654   0.13926   0.14306   0.14675   0.15090
 Alpha virt. eigenvalues --    0.15471   0.15838   0.16541   0.16744   0.18268
 Alpha virt. eigenvalues --    0.24653   0.25647   0.26518   0.27133   0.28821
 Alpha virt. eigenvalues --    0.29643   0.31161   0.31993   0.32959   0.33470
 Alpha virt. eigenvalues --    0.34479   0.34787   0.36354   0.36964   0.37709
 Alpha virt. eigenvalues --    0.37828   0.40051   0.40409   0.41639   0.42290
 Alpha virt. eigenvalues --    0.42691   0.44117   0.44717   0.44900   0.45095
 Alpha virt. eigenvalues --    0.45309   0.45701   0.45732   0.46198   0.46686
 Alpha virt. eigenvalues --    0.47157   0.47957   0.48521   0.48727   0.49455
 Alpha virt. eigenvalues --    0.49866   0.51555   0.51649   0.52409   0.53249
 Alpha virt. eigenvalues --    0.53302   0.54108   0.55128   0.56798   0.57580
 Alpha virt. eigenvalues --    0.57696   0.59637   0.60475   0.61156   0.62217
 Alpha virt. eigenvalues --    0.64024   0.64463   0.65783   0.69355   0.70031
 Alpha virt. eigenvalues --    0.82354   2.04472   2.12884   2.18348   2.18995
 Alpha virt. eigenvalues --    2.22716   2.24423   2.28116   4.41823   4.43067
 Alpha virt. eigenvalues --    4.43646   4.44440   4.44666   4.45285   4.45936
 Alpha virt. eigenvalues --    4.46444   4.47270   4.48331   4.49034   4.49803
 Alpha virt. eigenvalues --    4.51210   4.52802   4.53944   4.54755   4.57056
 Alpha virt. eigenvalues --    4.60905   4.63347   4.63701   4.76879  96.24141
 Alpha virt. eigenvalues --   96.34427  96.40729  96.42478  96.46291  96.48845
 Alpha virt. eigenvalues --   96.54164
  Beta  occ. eigenvalues --  -38.44608 -38.44489 -38.43880 -38.43765 -38.43620
  Beta  occ. eigenvalues --  -38.43490 -38.42671  -2.20425  -2.20378  -2.19787
  Beta  occ. eigenvalues --   -2.19646  -2.19591  -2.19318  -2.18555  -1.14228
  Beta  occ. eigenvalues --   -1.14115  -1.14074  -1.14053  -1.14046  -1.13970
  Beta  occ. eigenvalues --   -1.13537  -1.13457  -1.13441  -1.13345  -1.13307
  Beta  occ. eigenvalues --   -1.13297  -1.13267  -1.13231  -1.13173  -1.13009
  Beta  occ. eigenvalues --   -1.12980  -1.12955  -1.12254  -1.12209  -1.12164
  Beta  occ. eigenvalues --   -0.18255  -0.13549  -0.11024
  Beta virt. eigenvalues --   -0.07995  -0.06128  -0.04348  -0.03991  -0.03039
  Beta virt. eigenvalues --   -0.02311  -0.02080  -0.01813  -0.00575  -0.00258
  Beta virt. eigenvalues --    0.00175   0.00323   0.00387   0.00517   0.00905
  Beta virt. eigenvalues --    0.00939   0.01021   0.01120   0.01230   0.01304
  Beta virt. eigenvalues --    0.01442   0.01574   0.01710   0.01779   0.01917
  Beta virt. eigenvalues --    0.02013   0.02301   0.02550   0.02597   0.02731
  Beta virt. eigenvalues --    0.02752   0.02843   0.02926   0.02942   0.03068
  Beta virt. eigenvalues --    0.03115   0.03170   0.03282   0.03570   0.03753
  Beta virt. eigenvalues --    0.03873   0.04108   0.04619   0.04667   0.04877
  Beta virt. eigenvalues --    0.04938   0.05271   0.05461   0.05684   0.05881
  Beta virt. eigenvalues --    0.06079   0.06155   0.06433   0.06816   0.07048
  Beta virt. eigenvalues --    0.07166   0.07285   0.07938   0.08394   0.08897
  Beta virt. eigenvalues --    0.09140   0.09389   0.10105   0.10633   0.11076
  Beta virt. eigenvalues --    0.11893   0.12576   0.12716   0.13145   0.13264
  Beta virt. eigenvalues --    0.13508   0.13916   0.14146   0.14534   0.14924
  Beta virt. eigenvalues --    0.15256   0.15716   0.16042   0.16738   0.16955
  Beta virt. eigenvalues --    0.18578   0.24850   0.26025   0.26869   0.27518
  Beta virt. eigenvalues --    0.29160   0.30054   0.31512   0.32280   0.33357
  Beta virt. eigenvalues --    0.33790   0.34705   0.34949   0.36587   0.37230
  Beta virt. eigenvalues --    0.37860   0.38253   0.40284   0.40594   0.41886
  Beta virt. eigenvalues --    0.42386   0.42776   0.44284   0.44856   0.44999
  Beta virt. eigenvalues --    0.45299   0.45440   0.45806   0.45857   0.46411
  Beta virt. eigenvalues --    0.46852   0.47288   0.48113   0.48741   0.48952
  Beta virt. eigenvalues --    0.49738   0.50054   0.51674   0.51873   0.52573
  Beta virt. eigenvalues --    0.53323   0.53459   0.54287   0.55310   0.56930
  Beta virt. eigenvalues --    0.57699   0.57944   0.59786   0.60632   0.61430
  Beta virt. eigenvalues --    0.62447   0.64269   0.64659   0.65821   0.69625
  Beta virt. eigenvalues --    0.70240   0.82486   2.04600   2.12921   2.18385
  Beta virt. eigenvalues --    2.19213   2.22835   2.24561   2.28303   4.41897
  Beta virt. eigenvalues --    4.43151   4.43720   4.44477   4.44671   4.45319
  Beta virt. eigenvalues --    4.45969   4.46501   4.47296   4.48402   4.49113
  Beta virt. eigenvalues --    4.49854   4.51267   4.52841   4.54019   4.54799
  Beta virt. eigenvalues --    4.57112   4.60960   4.63404   4.63756   4.76920
  Beta virt. eigenvalues --   96.24183  96.34443  96.40744  96.42549  96.46334
  Beta virt. eigenvalues --   96.48892  96.54220
          Condensed to atoms (all electrons):
               1          2          3          4          5          6
     1  Na  12.401217   0.304383  -0.241205  -0.034381   0.212584  -0.421516
     2  Na   0.304383  11.560575   0.105693  -0.059723  -0.094425  -0.047819
     3  Na  -0.241205   0.105693  10.902691  -0.607119   0.287185   0.598811
     4  Na  -0.034381  -0.059723  -0.607119  12.535214  -0.557381  -0.913750
     5  Na   0.212584  -0.094425   0.287185  -0.557381  11.431165   0.448412
     6  Na  -0.421516  -0.047819   0.598811  -0.913750   0.448412  12.204901
     7  Na  -1.137364  -0.914049  -0.403128   0.912863  -0.428419  -0.437875
               7
     1  Na  -1.137364
     2  Na  -0.914049
     3  Na  -0.403128
     4  Na   0.912863
     5  Na  -0.428419
     6  Na  -0.437875
     7  Na  12.820684
          Atomic-Atomic Spin Densities.
               1          2          3          4          5          6
     1  Na   0.458379  -0.079855   0.073233  -0.418812   0.440330   0.080073
     2  Na  -0.079855   0.177097   0.012569   0.038748  -0.077446   0.008235
     3  Na   0.073233   0.012569  -0.048739  -0.083383  -0.005156  -0.092136
     4  Na  -0.418812   0.038748  -0.083383   0.750960  -0.301961   0.096145
     5  Na   0.440330  -0.077446  -0.005156  -0.301961   0.318965  -0.047945
     6  Na   0.080073   0.008235  -0.092136   0.096145  -0.047945  -0.211640
     7  Na  -0.201557   0.100758   0.084887   0.183576  -0.153936   0.172581
               7
     1  Na  -0.201557
     2  Na   0.100758
     3  Na   0.084887
     4  Na   0.183576
     5  Na  -0.153936
     6  Na   0.172581
     7  Na  -0.102916
 Mulliken charges and spin densities:
               1          2
     1  Na  -0.083718   0.351790
     2  Na   0.145364   0.180106
     3  Na   0.357073  -0.058725
     4  Na  -0.275723   0.265273
     5  Na  -0.299120   0.172851
     6  Na  -0.431164   0.005313
     7  Na   0.587288   0.083393
 Sum of Mulliken charges =  -0.00000   1.00000
 Mulliken charges and spin densities with hydrogens summed into heavy atoms:
               1          2
     1  Na  -0.083718   0.351790
     2  Na   0.145364   0.180106
     3  Na   0.357073  -0.058725
     4  Na  -0.275723   0.265273
     5  Na  -0.299120   0.172851
     6  Na  -0.431164   0.005313
     7  Na   0.587288   0.083393
 Electronic spatial extent (au):  <R**2>=           2212.8804
 Charge=              0.0000 electrons
 Dipole moment (field-independent basis, Debye):
    X=              0.6404    Y=             -0.1835    Z=              0.0262  Tot=              0.6667
 Quadrupole moment (field-independent basis, Debye-Ang):
   XX=            -53.9318   YY=            -73.5800   ZZ=            -67.7443
   XY=             -0.1658   XZ=             -1.4406   YZ=              4.3954
 Traceless Quadrupole moment (field-independent basis, Debye-Ang):
   XX=             11.1536   YY=             -8.4946   ZZ=             -2.6589
   XY=             -0.1658   XZ=             -1.4406   YZ=              4.3954
 Octapole moment (field-independent basis, Debye-Ang**2):
  XXX=             38.0253  YYY=             -2.3439  ZZZ=              3.2686  XYY=             -0.5070
  XXY=             -0.8117  XXZ=             -2.0968  XZZ=             -5.6464  YZZ=             -1.8493
  YYZ=             -3.4850  XYZ=             -0.3097
 Hexadecapole moment (field-independent basis, Debye-Ang**3):
 XXXX=          -1574.9392 YYYY=          -1126.7675 ZZZZ=           -892.4871 XXXY=            -81.8771
 XXXZ=            -19.2193 YYYX=             75.4054 YYYZ=             43.0985 ZZZX=            -34.1966
 ZZZY=             31.3253 XXYY=           -486.8579 XXZZ=           -445.4587 YYZZ=           -369.6665
 XXYZ=             13.2911 YYXZ=             16.9661 ZZXY=            -14.4762
 N-N= 3.485500440345D+02 E-N=-3.426502072292D+03  KE= 1.133000429730D+03
                          Isotropic Fermi Contact Couplings
        Atom                 a.u.       MegaHertz       Gauss      10(-4) cm-1
     1  Na(23)             0.27282     322.75196     115.16592     107.65846
     2  Na(23)             0.21575     255.23336      91.07361      85.13669
     3  Na(23)            -0.03288     -38.89630     -13.87917     -12.97441
     4  Na(23)             0.17116     202.49171      72.25408      67.54396
     5  Na(23)             0.12167     143.93357      51.35908      48.01107
     6  Na(23)            -0.02562     -30.31283     -10.81637     -10.11127
     7  Na(23)            -0.00470      -5.55563      -1.98239      -1.85316
 --------------------------------------------------------
       Center         ----  Spin Dipole Couplings  ----
                      3XX-RR        3YY-RR        3ZZ-RR
 --------------------------------------------------------
     1   Atom        0.008482      0.004113     -0.012595
     2   Atom        0.009754     -0.001527     -0.008227
     3   Atom       -0.002944     -0.005538      0.008482
     4   Atom        0.001356     -0.002232      0.000876
     5   Atom       -0.004912     -0.011228      0.016140
     6   Atom       -0.011267     -0.009603      0.020871
     7   Atom       -0.017934     -0.013765      0.031699
 --------------------------------------------------------
                        XY            XZ            YZ
 --------------------------------------------------------
     1   Atom        0.014277      0.009381      0.002242
     2   Atom        0.003599      0.009237     -0.002929
     3   Atom       -0.000919     -0.001214      0.003209
     4   Atom       -0.006312     -0.010256      0.009753
     5   Atom        0.008232     -0.014662     -0.016165
     6   Atom        0.000995     -0.002508      0.002384
     7   Atom       -0.014498     -0.015402      0.030673
 --------------------------------------------------------


 ---------------------------------------------------------------------------------
              Anisotropic Spin Dipole Couplings in Principal Axis System
 ---------------------------------------------------------------------------------

       Atom             a.u.   MegaHertz   Gauss  10(-4) cm-1        Axes

              Baa    -0.0168    -2.373    -0.847    -0.791 -0.4412  0.2076  0.8731
     1 Na(23) Bbb    -0.0061    -0.855    -0.305    -0.285 -0.4798  0.7676 -0.4249
              Bcc     0.0229     3.227     1.152     1.076  0.7584  0.6064  0.2390
 
              Baa    -0.0135    -1.913    -0.682    -0.638 -0.3915  0.3269  0.8602
     2 Na(23) Bbb    -0.0004    -0.060    -0.022    -0.020 -0.0058  0.9339 -0.3575
              Bcc     0.0140     1.973     0.704     0.658  0.9202  0.1450  0.3637
 
              Baa    -0.0064    -0.898    -0.321    -0.300  0.1905  0.9626 -0.1925
     3 Na(23) Bbb    -0.0030    -0.420    -0.150    -0.140  0.9753 -0.1632  0.1491
              Bcc     0.0093     1.319     0.470     0.440 -0.1121  0.2162  0.9699
 
              Baa    -0.0112    -1.578    -0.563    -0.526  0.3105 -0.5921  0.7436
     4 Na(23) Bbb    -0.0067    -0.943    -0.336    -0.314  0.7473  0.6356  0.1940
              Bcc     0.0178     2.520     0.899     0.841 -0.5875  0.4955  0.6398
 
              Baa    -0.0190    -2.676    -0.955    -0.893 -0.1718  0.9201  0.3521
     5 Na(23) Bbb    -0.0124    -1.756    -0.627    -0.586  0.8913 -0.0070  0.4534
              Bcc     0.0314     4.432     1.581     1.478 -0.4196 -0.3917  0.8188
 
              Baa    -0.0121    -1.704    -0.608    -0.568  0.8848 -0.4550  0.1003
     6 Na(23) Bbb    -0.0092    -1.295    -0.462    -0.432  0.4600  0.8874 -0.0320
              Bcc     0.0212     2.999     1.070     1.000 -0.0745  0.0745  0.9944
 
              Baa    -0.0329    -4.646    -1.658    -1.550  0.5179  0.8140 -0.2630
     7 Na(23) Bbb    -0.0201    -2.836    -1.012    -0.946  0.8096 -0.3670  0.4582
              Bcc     0.0530     7.481     2.670     2.496 -0.2765  0.4502  0.8490
 

 ---------------------------------------------------------------------------------

 No NMR shielding tensors so no spin-rotation constants.
 Leave Link  601 at Tue Dec  5 14:39:52 2023, MaxMem=  1879048192 cpu:               2.3 elap:               0.2
 (Enter /home/sekinelabo/g16/l701.exe)
 ... and contract with generalized density number  0.
 Compute integral first derivatives.
 Leave Link  701 at Tue Dec  5 14:39:53 2023, MaxMem=  1879048192 cpu:               1.6 elap:               0.1
 (Enter /home/sekinelabo/g16/l702.exe)
 L702 exits ... SP integral derivatives will be done elsewhere.
 Leave Link  702 at Tue Dec  5 14:39:53 2023, MaxMem=  1879048192 cpu:               0.4 elap:               0.0
 (Enter /home/sekinelabo/g16/l703.exe)
 Integral derivatives from FoFJK, PRISM(SPDF).
 Compute integral first derivatives, UseDBF=F ICtDFT=           0.
 Calling FoFJK, ICntrl=      2127 FMM=F ISym2X=0 I1Cent= 0 IOpClX= 1 NMat=1 NMatS=1 NMatT=0.
 FoFJK:  IHMeth= 1 ICntrl=    2127 DoSepK=F KAlg= 0 I1Cent=           0 FoldK=F
 IRaf=         0 NMat=       1 IRICut=       1 DoRegI=T DoRafI=F ISym2E= 0 IDoP0=0 IntGTp=1.
 FoFCou: FMM=F IPFlag=           0 FMFlag=      100000 FMFlg1=         800
         NFxFlg=           0 DoJE=F BraDBF=F KetDBF=F FulRan=T
         wScrn=  0.000000 ICntrl=      2127 IOpCl=  1 I1Cent=           0 NGrid=           0
         NMat0=    1 NMatS0=      1 NMatT0=    0 NMatD0=    1 NMtDS0=    0 NMtDT0=    0
 Symmetry not used in FoFCou.
 Leave Link  703 at Tue Dec  5 14:39:55 2023, MaxMem=  1879048192 cpu:              34.1 elap:               2.3
 (Enter /home/sekinelabo/g16/l716.exe)
 Dipole        = 2.51951000D-01-7.22067153D-02 1.03240194D-02
 ***** Axes restored to original set *****
 -------------------------------------------------------------------
 Center     Atomic                   Forces (Hartrees/Bohr)
 Number     Number              X              Y              Z
 -------------------------------------------------------------------
      1       11          -0.001481022   -0.002549719   -0.000001165
      2       11           0.010455842   -0.002410469    0.002836351
      3       11          -0.001543812    0.000238316    0.000033572
      4       11           0.001247485    0.000322849    0.003673491
      5       11           0.003315526   -0.001082491    0.001499770
      6       11          -0.000224749    0.002251524   -0.003981129
      7       11          -0.011769270    0.003229990   -0.004060889
 -------------------------------------------------------------------
 Cartesian Forces:  Max     0.011769270 RMS     0.004084192
 Z-matrix is all fixed cartesians, so copy forces.
 Force constants in Cartesian coordinates: 
                1             2             3             4             5 
      1  0.129969D+00
      2  0.201175D-01  0.902891D-01
      3 -0.124966D-01 -0.791614D-03  0.962793D-01
      4 -0.463499D-02 -0.717219D-02 -0.379966D-03  0.100722D+00
      5 -0.851222D-02  0.237934D-02 -0.391106D-03  0.991136D-02  0.618633D-01
      6 -0.327927D-02 -0.220516D-02  0.566145D-02  0.529711D-02  0.591432D-03
      7 -0.194411D-01  0.150902D-01  0.948377D-02  0.622581D-02 -0.783273D-03
      8 -0.941133D-02 -0.136618D-01  0.194484D-03 -0.446959D-02  0.871111D-03
      9 -0.773299D-03 -0.577650D-02 -0.136824D-01 -0.103013D-02 -0.670754D-03
     10 -0.302485D-01  0.457007D-02 -0.391714D-03 -0.311056D-01 -0.111431D-01
     11 -0.584566D-02 -0.151626D-01  0.255376D-03  0.170962D-01 -0.272612D-01
     12  0.468084D-02 -0.231693D-02 -0.142430D-01  0.587235D-02  0.120255D-02
     13 -0.274492D-01 -0.391807D-02 -0.211195D-01 -0.132619D-01 -0.926037D-02
     14 -0.396013D-02 -0.160602D-01 -0.916762D-02 -0.550813D-02 -0.117855D-01
     15  0.112125D-01  0.802194D-02 -0.275130D-01 -0.417554D-02 -0.358288D-02
     16 -0.219571D-01 -0.966622D-02  0.220975D-01 -0.173391D-03 -0.369088D-02
     17 -0.300334D-02 -0.173303D-01  0.105132D-01 -0.334069D-02  0.249410D-02
     18 -0.413477D-02 -0.274057D-04 -0.305044D-01 -0.232286D-02  0.121340D-03
     19 -0.262383D-01 -0.190213D-01  0.280655D-02 -0.577722D-01  0.234785D-01
     20  0.106152D-01 -0.304534D-01 -0.612690D-03 -0.651701D-02 -0.285612D-01
     21  0.479060D-02  0.309568D-02 -0.159979D-01 -0.326097D-02  0.272941D-02
                6             7             8             9            10 
      6  0.456418D-01
      7  0.199046D-03  0.397378D-01
      8 -0.109265D-02  0.321299D-02  0.458077D-01
      9  0.206915D-02 -0.553972D-03  0.109917D-01  0.254570D-01
     10 -0.490461D-02 -0.388924D-01  0.921464D-02  0.415794D-02  0.128659D+00
     11 -0.403702D-02 -0.167055D-01 -0.248583D-01 -0.553464D-02 -0.152923D-01
     12 -0.161504D-01 -0.694598D-02 -0.583545D-02 -0.168768D-01 -0.371800D-02
     13  0.187731D-01  0.554755D-02 -0.860893D-03 -0.267910D-03 -0.123696D-01
     14  0.110974D-01 -0.812461D-03 -0.722581D-04 -0.681132D-02  0.283018D-02
     15 -0.166357D-01 -0.680394D-04 -0.403336D-03 -0.952207D-03 -0.480359D-02
     16 -0.765527D-02  0.280085D-02 -0.624106D-03 -0.344049D-03 -0.164558D-01
     17 -0.323302D-02  0.135534D-02 -0.701313D-02  0.737463D-02  0.160196D-02
     18 -0.205711D-02  0.552428D-04 -0.158914D-02  0.224000D-02  0.699163D-02
     19 -0.843009D-02  0.402145D-02  0.293828D-02 -0.118858D-02  0.412652D-03
     20 -0.112101D-02 -0.135735D-02 -0.107333D-02  0.426883D-03  0.821858D-02
     21 -0.185292D-01 -0.217006D-02 -0.226560D-02  0.174525D-02  0.266835D-02
               11            12            13            14            15 
     11  0.985255D-01
     12  0.102460D-01  0.743990D-01
     13  0.156341D-02  0.147268D-01  0.483365D-01
     14 -0.793965D-02 -0.914888D-02  0.543971D-02  0.493295D-01
     15  0.829990D-02 -0.148292D-01 -0.360888D-02 -0.640947D-02  0.871395D-01
     16  0.845671D-02 -0.160120D-01  0.562209D-02  0.610052D-03 -0.211852D-02
     17 -0.153514D-01  0.612214D-02  0.228341D-03  0.744463D-02  0.886823D-03
     18 -0.613329D-02 -0.189687D-01  0.431206D-04  0.117199D-02 -0.713865D-02
     19  0.107271D-01  0.139605D-02 -0.642545D-02  0.140078D-02  0.356203D-02
     20 -0.795229D-02 -0.269450D-03  0.680788D-02 -0.209165D-01 -0.681299D-02
     21 -0.309636D-02  0.666914D-02 -0.854671D-02  0.192679D-01 -0.200707D-01
               16            17            18            19            20 
     16  0.404259D-01
     17 -0.615153D-03  0.510375D-01
     18  0.122316D-02 -0.205508D-02  0.789282D-01
     19 -0.102626D-01  0.377354D-02 -0.185552D-02  0.962645D-01
     20  0.552959D-02 -0.212814D-01  0.851159D-02 -0.232969D-01  0.110238D+00
     21  0.280923D-02 -0.196087D-01 -0.224993D-01  0.370955D-02 -0.122339D-03
               21 
     21  0.686826D-01
 Leave Link  716 at Tue Dec  5 14:39:55 2023, MaxMem=  1879048192 cpu:               0.4 elap:               0.0
 (Enter /home/sekinelabo/g16/l103.exe)

 GradGradGradGradGradGradGradGradGradGradGradGradGradGradGradGradGradGrad
 Berny optimization.
 Search for a local minimum.
 Step number   1 out of a maximum of    2
 All quantities printed in internal units (Hartrees-Bohrs-Radians)
 Second derivative matrix not updated -- first step.
 ITU=  0
     Eigenvalues ---    0.03678   0.04107   0.04463   0.05998   0.08240
     Eigenvalues ---    0.08767   0.08905   0.09705   0.11388   0.12208
     Eigenvalues ---    0.12864   0.13878   0.15897   0.16586   0.19479
 Angle between quadratic step and forces=  19.01 degrees.
 Linear search not attempted -- first point.
 B after Tr=     0.000000   -0.000000    0.000000
         Rot=    1.000000   -0.000000    0.000000   -0.000000 Ang=   0.00 deg.
 Variable       Old X    -DE/DX   Delta X   Delta X   Delta X     New X
                                 (Linear)    (Quad)   (Total)
    X1       20.18133  -0.00148   0.00000  -0.01750  -0.01750  20.16383
    Y1       22.45221  -0.00255   0.00000  -0.02431  -0.02431  22.42791
    Z1       24.05697  -0.00000   0.00000  -0.00350  -0.00350  24.05347
    X2       27.38837   0.01046   0.00000   0.06589   0.06589  27.45426
    Y2       27.41558  -0.00241   0.00000  -0.00739  -0.00739  27.40819
    Z2       25.15755   0.00284   0.00000   0.03115   0.03115  25.18870
    X3       23.27670  -0.00154   0.00000  -0.02123  -0.02123  23.25547
    Y3       17.13460   0.00024   0.00000   0.00486   0.00486  17.13946
    Z3       21.06156   0.00003   0.00000   0.00275   0.00275  21.06431
    X4       26.75323   0.00125   0.00000   0.02316   0.02316  26.77639
    Y4       21.51132   0.00032   0.00000  -0.00889  -0.00889  21.50243
    Z4       22.93882   0.00367   0.00000   0.03617   0.03617  22.97499
    X5       23.28294   0.00332   0.00000   0.04022   0.04022  23.32316
    Y5       24.13539  -0.00108   0.00000  -0.00900  -0.00900  24.12639
    Z5       29.27242   0.00150   0.00000   0.02894   0.02894  29.30136
    X6       22.52176  -0.00022   0.00000  -0.00750  -0.00750  22.51425
    Y6       24.73519   0.00225   0.00000   0.03024   0.03024  24.76543
    Z6       19.04258  -0.00398   0.00000  -0.05541  -0.05541  18.98717
    X7       22.34620  -0.01177   0.00000  -0.08304  -0.08304  22.26316
    Y7       28.36649   0.00323   0.00000   0.01449   0.01449  28.38098
    Z7       24.22081  -0.00406   0.00000  -0.04010  -0.04010  24.18071
         Item               Value     Threshold  Converged?
 Maximum Force            0.011769     0.000450     NO 
 RMS     Force            0.004084     0.000300     NO 
 Maximum Displacement     0.083041     0.001800     NO 
 RMS     Displacement     0.033786     0.001200     NO 
 Predicted change in Energy=-1.369872D-03
 GradGradGradGradGradGradGradGradGradGradGradGradGradGradGradGradGradGrad

 Leave Link  103 at Tue Dec  5 14:39:55 2023, MaxMem=  1879048192 cpu:               0.2 elap:               0.0
 (Enter /home/sekinelabo/g16/l9999.exe)
 1\1\GINC-SEKINELABO-XA7R-R37\Force\UB3LYP\6-311+G(d)\Na7(2)\SEKINELABO
 \05-Dec-2023\0\\#P B3LYP/6-311+g(d) force\\DPGEN\\0,2\Na,10.6795,11.88
 12,12.7304\Na,14.4933,14.5077,13.3128\Na,12.3175,9.06724,11.1453\Na,14
 .1572,11.3833,12.1387\Na,12.3208,12.7719,15.4903\Na,11.918,13.0893,10.
 0769\Na,11.8251,15.0109,12.8171\\Version=ES64L-G16RevB.01\State=2-A\HF
 =-1136.1217743\S2=0.768308\S2-1=0.\S2A=0.75015\RMSD=4.045e-09\RMSF=4.0
 84e-03\Dipole=-0.0148115,-0.2511414,-0.0742181\Quadrupole=-2.2789723,3
 .8347383,-1.555766,4.0119074,-1.8037612,6.1328312\PG=C01 [X(Na7)]\\@


 THE WHOLE OF SCIENCE IS NOTHING MORE THAN A REFINEMENT OF EVERYDAY THINKING.
                                                              -- A. EINSTEIN
 Job cpu time:       0 days  0 hours  4 minutes 30.9 seconds.
 Elapsed time:       0 days  0 hours  0 minutes 23.2 seconds.
 File lengths (MBytes):  RWF=     32 Int=      0 D2E=      0 Chk=      4 Scr=      1
 Normal termination of Gaussian 16 at Tue Dec  5 14:39:55 2023.
