ITEM: TIMESTEP
300
ITEM: NUMBER OF ATOMS
7
ITEM: BOX BOUNDS xy xz yz ff ff ff
0.0000000000000000e+00 2.5668002796600000e+01 0.0000000000000000e+00
0.0000000000000000e+00 2.5668002796600000e+01 0.0000000000000000e+00
0.0000000000000000e+00 2.5668002796600000e+01 0.0000000000000000e+00
ITEM: ATOMS id type x y z fx fy fz
1 1 14.1868 11.2723 14.1108 -0.0417136 -0.0489556 -0.16708
7 1 12.89 11.6684 10.559 0.101243 0.0194361 0.129907
3 1 7.57106 12.0744 13.81 0.0335065 0.0142041 -0.0069491
4 1 10.5434 13.0968 13.1571 0.0818057 -0.0182238 -0.00617622
6 1 16.5693 12.5389 11.6098 -0.241663 0.0500127 0.0763842
2 1 13.4844 14.923 11.5209 0.0763178 -0.0907995 0.109549
5 1 14.5931 14.2642 15.0704 -0.00949692 0.074326 -0.135635
