ITEM: TIMESTEP
1960
ITEM: NUMBER OF ATOMS
7
ITEM: BOX BOUNDS xy xz yz ff ff ff
0.0000000000000000e+00 2.2588896550099999e+01 0.0000000000000000e+00
0.0000000000000000e+00 2.2588896550099999e+01 0.0000000000000000e+00
0.0000000000000000e+00 2.2588896550099999e+01 0.0000000000000000e+00
ITEM: ATOMS id type x y z fx fy fz
7 1 10.633 9.29069 11.7425 0.117702 -0.0659129 0.061244
3 1 11.4513 10.4518 8.29829 -0.0150382 -0.115558 -0.0047515
5 1 8.30702 8.74772 9.33095 0.0519816 0.0585119 -0.0251516
4 1 14.74 13.0815 14.0613 -0.0081164 -0.00101465 -0.0325093
6 1 9.61978 12.052 10.5204 -0.280697 0.175867 0.0235561
2 1 11.5278 12.9299 14.3748 -0.0276339 -0.0740802 -0.131904
1 1 12.7823 12.5075 10.733 0.161802 0.022186 0.109516
