 Set GAUSS_MDEF to "14GB".
 Entering Gaussian System, Link 0=g16
 Initial command:
 /home/sekinelabo/g16/l1.exe "/home/sekinelabo/g16temp/Gau-282903.inp" -scrdir="/home/sekinelabo/g16temp/"
 Entering Link 1 = /home/sekinelabo/g16/l1.exe PID=    282905.
  
 Copyright (c) 1988-2017, Gaussian, Inc.  All Rights Reserved.
  
 This is part of the Gaussian(R) 16 program.  It is based on
 the Gaussian(R) 09 system (copyright 2009, Gaussian, Inc.),
 the Gaussian(R) 03 system (copyright 2003, Gaussian, Inc.),
 the Gaussian(R) 98 system (copyright 1998, Gaussian, Inc.),
 the Gaussian(R) 94 system (copyright 1995, Gaussian, Inc.),
 the Gaussian 92(TM) system (copyright 1992, Gaussian, Inc.),
 the Gaussian 90(TM) system (copyright 1990, Gaussian, Inc.),
 the Gaussian 88(TM) system (copyright 1988, Gaussian, Inc.),
 the Gaussian 86(TM) system (copyright 1986, Carnegie Mellon
 University), and the Gaussian 82(TM) system (copyright 1983,
 Carnegie Mellon University). Gaussian is a federally registered
 trademark of Gaussian, Inc.
  
 This software contains proprietary and confidential information,
 including trade secrets, belonging to Gaussian, Inc.
  
 This software is provided under written license and may be
 used, copied, transmitted, or stored only in accord with that
 written license.
  
 The following legend is applicable only to US Government
 contracts under FAR:
  
                    RESTRICTED RIGHTS LEGEND
  
 Use, reproduction and disclosure by the US Government is
 subject to restrictions as set forth in subparagraphs (a)
 and (c) of the Commercial Computer Software - Restricted
 Rights clause in FAR 52.227-19.
  
 Gaussian, Inc.
 340 Quinnipiac St., Bldg. 40, Wallingford CT 06492
  
  
 ---------------------------------------------------------------
 Warning -- This program may not be used in any manner that
 competes with the business of Gaussian, Inc. or will provide
 assistance to any competitor of Gaussian, Inc.  The licensee
 of this program is prohibited from giving any competitor of
 Gaussian, Inc. access to this program.  By using this program,
 the user acknowledges that Gaussian, Inc. is engaged in the
 business of creating and licensing software in the field of
 computational chemistry and represents and warrants to the
 licensee that it is not a competitor of Gaussian, Inc. and that
 it will not use this program in any manner prohibited above.
 ---------------------------------------------------------------
  

 Cite this work as:
 Gaussian 16, Revision B.01,
 M. J. Frisch, G. W. Trucks, H. B. Schlegel, G. E. Scuseria, 
 M. A. Robb, J. R. Cheeseman, G. Scalmani, V. Barone, 
 G. A. Petersson, H. Nakatsuji, X. Li, M. Caricato, A. V. Marenich, 
 J. Bloino, B. G. Janesko, R. Gomperts, B. Mennucci, H. P. Hratchian, 
 J. V. Ortiz, A. F. Izmaylov, J. L. Sonnenberg, D. Williams-Young, 
 F. Ding, F. Lipparini, F. Egidi, J. Goings, B. Peng, A. Petrone, 
 T. Henderson, D. Ranasinghe, V. G. Zakrzewski, J. Gao, N. Rega, 
 G. Zheng, W. Liang, M. Hada, M. Ehara, K. Toyota, R. Fukuda, 
 J. Hasegawa, M. Ishida, T. Nakajima, Y. Honda, O. Kitao, H. Nakai, 
 T. Vreven, K. Throssell, J. A. Montgomery, Jr., J. E. Peralta, 
 F. Ogliaro, M. J. Bearpark, J. J. Heyd, E. N. Brothers, K. N. Kudin, 
 V. N. Staroverov, T. A. Keith, R. Kobayashi, J. Normand, 
 K. Raghavachari, A. P. Rendell, J. C. Burant, S. S. Iyengar, 
 J. Tomasi, M. Cossi, J. M. Millam, M. Klene, C. Adamo, R. Cammi, 
 J. W. Ochterski, R. L. Martin, K. Morokuma, O. Farkas, 
 J. B. Foresman, and D. J. Fox, Gaussian, Inc., Wallingford CT, 2016.
 
 ******************************************
 Gaussian 16:  ES64L-G16RevB.01 20-Dec-2017
                 5-Dec-2023 
 ******************************************
 %nproc=15
 Will use up to   15 processors via shared memory.
 -------------------------
 #P B3LYP/6-311+g(d) force
 -------------------------
 1/10=7,30=1,38=1/1,3;
 2/12=2,17=6,18=5,40=1/2;
 3/5=4,6=6,7=11,11=2,25=1,30=1,71=1,74=-5/1,2,3;
 4//1;
 5/5=2,38=5/2;
 6/7=2,8=2,9=2,10=2,28=1/1;
 7/29=1/1,2,3,16;
 1/10=7,30=1/3;
 99//99;
 Leave Link    1 at Tue Dec  5 17:10:51 2023, MaxMem=           0 cpu:               0.3 elap:               0.0
 (Enter /home/sekinelabo/g16/l101.exe)
 -----
 DPGEN
 -----
 Symbolic Z-matrix:
 Charge =  0 Multiplicity = 2
 Na                    11.2743   14.8548   14.1545 
 Na                    12.9215   10.7298   9.0798 
 Na                    12.662    13.2299   11.6256 
 Na                    15.3708   11.1859   11.4514 
 Na                    11.9042   10.1892   12.2724 
 Na                    10.0236   11.654    14.5238 
 Na                    9.55071   11.8636   10.5997 
 
 ITRead=  0  0  0  0  0  0  0
 MicOpt= -1 -1 -1 -1 -1 -1 -1
 NAtoms=      7 NQM=        7 NQMF=       0 NMMI=      0 NMMIF=      0
                NMic=       0 NMicF=      0.
                    Isotopes and Nuclear Properties:
 (Nuclear quadrupole moments (NQMom) in fm**2, nuclear magnetic moments (NMagM)
  in nuclear magnetons)

  Atom         1           2           3           4           5           6           7
 IAtWgt=          23          23          23          23          23          23          23
 AtmWgt=  22.9897697  22.9897697  22.9897697  22.9897697  22.9897697  22.9897697  22.9897697
 NucSpn=           3           3           3           3           3           3           3
 AtZEff=  -0.0000000  -0.0000000  -0.0000000  -0.0000000  -0.0000000  -0.0000000  -0.0000000
 NQMom=   10.4000000  10.4000000  10.4000000  10.4000000  10.4000000  10.4000000  10.4000000
 NMagM=    2.2175200   2.2175200   2.2175200   2.2175200   2.2175200   2.2175200   2.2175200
 AtZNuc=  11.0000000  11.0000000  11.0000000  11.0000000  11.0000000  11.0000000  11.0000000
 Leave Link  101 at Tue Dec  5 17:10:51 2023, MaxMem=  1879048192 cpu:               2.4 elap:               0.2
 (Enter /home/sekinelabo/g16/l103.exe)

 GradGradGradGradGradGradGradGradGradGradGradGradGradGradGradGradGradGrad
 Berny optimization.
 Initialization pass.
 Trust Radius=3.00D-01 FncErr=1.00D-07 GrdErr=1.00D-07 EigMax=2.50D+02 EigMin=1.00D-04
 Number of steps in this run=      2 maximum allowed number of steps=      2.
 GradGradGradGradGradGradGradGradGradGradGradGradGradGradGradGradGradGrad

 Leave Link  103 at Tue Dec  5 17:10:51 2023, MaxMem=  1879048192 cpu:               0.2 elap:               0.0
 (Enter /home/sekinelabo/g16/l202.exe)
                          Input orientation:                          
 ---------------------------------------------------------------------
 Center     Atomic      Atomic             Coordinates (Angstroms)
 Number     Number       Type             X           Y           Z
 ---------------------------------------------------------------------
      1         11           0       11.274300   14.854800   14.154500
      2         11           0       12.921500   10.729800    9.079800
      3         11           0       12.662000   13.229900   11.625600
      4         11           0       15.370800   11.185900   11.451400
      5         11           0       11.904200   10.189200   12.272400
      6         11           0       10.023600   11.654000   14.523800
      7         11           0        9.550710   11.863600   10.599700
 ---------------------------------------------------------------------
                    Distance matrix (angstroms):
                    1          2          3          4          5
     1  Na   0.000000
     2  Na   6.743995   0.000000
     3  Na   3.310792   3.577560   0.000000
     4  Na   6.127715   3.439707   3.397923   0.000000
     5  Na   5.070197   3.394089   3.199761   3.699293   0.000000
     6  Na   3.456263   6.236113   4.224237   6.184764   3.278887
     7  Na   4.955264   3.867535   3.549559   5.920990   3.337732
                    6          7
     6  Na   0.000000
     7  Na   3.958045   0.000000
 Stoichiometry    Na7(2)
 Framework group  C1[X(Na7)]
 Deg. of freedom    15
 Full point group                 C1      NOp   1
 Largest Abelian subgroup         C1      NOp   1
 Largest concise Abelian subgroup C1      NOp   1
                         Standard orientation:                         
 ---------------------------------------------------------------------
 Center     Atomic      Atomic             Coordinates (Angstroms)
 Number     Number       Type             X           Y           Z
 ---------------------------------------------------------------------
      1         11           0        3.122910   -1.701508   -1.016998
      2         11           0       -3.039789    1.015632   -0.670912
      3         11           0       -0.108573   -0.987468   -1.111940
      4         11           0       -2.739201   -2.116538    0.718599
      5         11           0       -0.509733    0.709776    1.570764
      6         11           0        2.766266    0.572531    1.561239
      7         11           0        0.508120    2.507574   -1.050753
 ---------------------------------------------------------------------
 Rotational constants (GHZ):           0.8537989           0.5004710           0.4295265
 Leave Link  202 at Tue Dec  5 17:10:51 2023, MaxMem=  1879048192 cpu:               0.0 elap:               0.0
 (Enter /home/sekinelabo/g16/l301.exe)
 Standard basis: 6-311+G(d) (5D, 7F)
 Ernie: Thresh=  0.10000D-02 Tol=  0.10000D-05 Strict=F.
 There are   217 symmetry adapted cartesian basis functions of A   symmetry.
 There are   210 symmetry adapted basis functions of A   symmetry.
   210 basis functions,   350 primitive gaussians,   217 cartesian basis functions
    39 alpha electrons       38 beta electrons
       nuclear repulsion energy       330.9787888194 Hartrees.
 IExCor=  402 DFT=T Ex+Corr=B3LYP ExCW=0 ScaHFX=  0.200000
 ScaDFX=  0.800000  0.720000  1.000000  0.810000 ScalE2=  1.000000  1.000000
 IRadAn=      5 IRanWt=     -1 IRanGd=            0 ICorTp=0 IEmpDi=  4
 NAtoms=    7 NActive=    7 NUniq=    7 SFac= 1.00D+00 NAtFMM=   60 NAOKFM=F Big=F
 Integral buffers will be    131072 words long.
 Raffenetti 2 integral format.
 Two-electron integral symmetry is turned on.
 Leave Link  301 at Tue Dec  5 17:10:51 2023, MaxMem=  1879048192 cpu:               0.5 elap:               0.0
 (Enter /home/sekinelabo/g16/l302.exe)
 NPDir=0 NMtPBC=     1 NCelOv=     1 NCel=       1 NClECP=     1 NCelD=      1
         NCelK=      1 NCelE2=     1 NClLst=     1 CellRange=     0.0.
 One-electron integrals computed using PRISM.
 One-electron integral symmetry used in STVInt
 NBasis=   210 RedAO= T EigKep=  4.70D-06  NBF=   210
 NBsUse=   210 1.00D-06 EigRej= -1.00D+00 NBFU=   210
 Precomputing XC quadrature grid using
 IXCGrd= 4 IRadAn=           5 IRanWt=          -1 IRanGd=           0 AccXCQ= 0.00D+00.
 Generated NRdTot=       0 NPtTot=           0 NUsed=           0 NTot=          32
 NSgBfM=   211   211   211   211   211 MxSgAt=     7 MxSgA2=     7.
 Leave Link  302 at Tue Dec  5 17:10:51 2023, MaxMem=  1879048192 cpu:               2.0 elap:               0.1
 (Enter /home/sekinelabo/g16/l303.exe)
 DipDrv:  MaxL=1.
 Leave Link  303 at Tue Dec  5 17:10:51 2023, MaxMem=  1879048192 cpu:               0.5 elap:               0.0
 (Enter /home/sekinelabo/g16/l401.exe)
 ExpMin= 7.60D-03 ExpMax= 3.62D+04 ExpMxC= 1.21D+03 IAcc=3 IRadAn=         5 AccDes= 0.00D+00
 Harris functional with IExCor=  402 and IRadAn=       5 diagonalized for initial guess.
 HarFok:  IExCor=  402 AccDes= 0.00D+00 IRadAn=         5 IDoV= 1 UseB2=F ITyADJ=14
 ICtDFT=  3500011 ScaDFX=  1.000000  1.000000  1.000000  1.000000
 FoFCou: FMM=F IPFlag=           0 FMFlag=      100000 FMFlg1=           0
         NFxFlg=           0 DoJE=T BraDBF=F KetDBF=T FulRan=T
         wScrn=  0.000000 ICntrl=       500 IOpCl=  0 I1Cent=   200000004 NGrid=           0
         NMat0=    1 NMatS0=      1 NMatT0=    0 NMatD0=    1 NMtDS0=    0 NMtDT0=    0
 Petite list used in FoFCou.
 Harris En= -1135.89741615916    
 JPrj=0 DoOrth=F DoCkMO=F.
 Initial guess <Sx>= 0.0000 <Sy>= 0.0000 <Sz>= 0.5000 <S**2>= 0.7500 S= 0.5000
 Leave Link  401 at Tue Dec  5 17:10:52 2023, MaxMem=  1879048192 cpu:               4.4 elap:               0.3
 (Enter /home/sekinelabo/g16/l502.exe)
 Keep R1 and R2 ints in memory in canonical form, NReq=506573321.
 FoFCou: FMM=F IPFlag=           0 FMFlag=           0 FMFlg1=           0
         NFxFlg=           0 DoJE=F BraDBF=F KetDBF=F FulRan=T
         wScrn=  0.000000 ICntrl=       600 IOpCl=  0 I1Cent=           0 NGrid=           0
         NMat0=    1 NMatS0=  22155 NMatT0=    0 NMatD0=    1 NMtDS0=    0 NMtDT0=    0
 Symmetry not used in FoFCou.
 Two-electron integral symmetry not used.
 UHF open shell SCF:
 Using DIIS extrapolation, IDIIS=  1040.
 NGot=  1879048192 LenX=  1388082579 LenY=  1388035049
 Requested convergence on RMS density matrix=1.00D-08 within 128 cycles.
 Requested convergence on MAX density matrix=1.00D-06.
 Requested convergence on             energy=1.00D-06.
 No special actions if energy rises.

 Cycle   1  Pass 1  IDiag  1:
 E= -1136.08976120732    
 DIIS: error= 9.71D-03 at cycle   1 NSaved=   1.
 NSaved= 1 IEnMin= 1 EnMin= -1136.08976120732     IErMin= 1 ErrMin= 9.71D-03
 ErrMax= 9.71D-03  0.00D+00 EMaxC= 1.00D-01 BMatC= 1.93D-01 BMatP= 1.93D-01
 IDIUse=3 WtCom= 9.03D-01 WtEn= 9.71D-02
 Coeff-Com:  0.100D+01
 Coeff-En:   0.100D+01
 Coeff:      0.100D+01
 Gap=     0.036 Goal=   None    Shift=    0.000
 Gap=     0.038 Goal=   None    Shift=    0.000
 GapD=    0.036 DampG=0.250 DampE=1.000 DampFc=0.2500 IDamp=-1.
 Damping current iteration by 2.50D-01
 RMSDP=2.29D-02 MaxDP=1.67D+00              OVMax= 2.52D-01

 Cycle   2  Pass 1  IDiag  1:
 E= -1136.10271563661     Delta-E=       -0.012954429292 Rises=F Damp=T
 DIIS: error= 6.71D-03 at cycle   2 NSaved=   2.
 NSaved= 2 IEnMin= 2 EnMin= -1136.10271563661     IErMin= 2 ErrMin= 6.71D-03
 ErrMax= 6.71D-03  0.00D+00 EMaxC= 1.00D-01 BMatC= 7.29D-02 BMatP= 1.93D-01
 IDIUse=3 WtCom= 9.33D-01 WtEn= 6.71D-02
 Coeff-Com: -0.125D+01 0.225D+01
 Coeff-En:   0.000D+00 0.100D+01
 Coeff:     -0.116D+01 0.216D+01
 Gap=     0.048 Goal=   None    Shift=    0.000
 Gap=     0.041 Goal=   None    Shift=    0.000
 RMSDP=9.79D-03 MaxDP=7.51D-01 DE=-1.30D-02 OVMax= 1.81D-01

 Cycle   3  Pass 1  IDiag  1:
 E= -1136.12370532514     Delta-E=       -0.020989688530 Rises=F Damp=F
 DIIS: error= 3.73D-03 at cycle   3 NSaved=   3.
 NSaved= 3 IEnMin= 3 EnMin= -1136.12370532514     IErMin= 3 ErrMin= 3.73D-03
 ErrMax= 3.73D-03  0.00D+00 EMaxC= 1.00D-01 BMatC= 3.83D-03 BMatP= 7.29D-02
 IDIUse=3 WtCom= 9.63D-01 WtEn= 3.73D-02
 Coeff-Com: -0.285D+00 0.494D+00 0.791D+00
 Coeff-En:   0.000D+00 0.000D+00 0.100D+01
 Coeff:     -0.274D+00 0.475D+00 0.799D+00
 Gap=     0.044 Goal=   None    Shift=    0.000
 Gap=     0.039 Goal=   None    Shift=    0.000
 RMSDP=5.68D-03 MaxDP=3.52D-01 DE=-2.10D-02 OVMax= 8.77D-02

 Cycle   4  Pass 1  IDiag  1:
 E= -1136.12425043309     Delta-E=       -0.000545107945 Rises=F Damp=F
 DIIS: error= 3.22D-03 at cycle   4 NSaved=   4.
 NSaved= 4 IEnMin= 4 EnMin= -1136.12425043309     IErMin= 4 ErrMin= 3.22D-03
 ErrMax= 3.22D-03  0.00D+00 EMaxC= 1.00D-01 BMatC= 3.24D-03 BMatP= 3.83D-03
 IDIUse=3 WtCom= 9.68D-01 WtEn= 3.22D-02
 Coeff-Com: -0.172D-01 0.231D-01 0.478D+00 0.516D+00
 Coeff-En:   0.000D+00 0.000D+00 0.462D+00 0.538D+00
 Coeff:     -0.167D-01 0.224D-01 0.478D+00 0.516D+00
 Gap=     0.046 Goal=   None    Shift=    0.000
 Gap=     0.039 Goal=   None    Shift=    0.000
 RMSDP=2.20D-03 MaxDP=1.26D-01 DE=-5.45D-04 OVMax= 5.47D-02

 Cycle   5  Pass 1  IDiag  1:
 E= -1136.12695405133     Delta-E=       -0.002703618238 Rises=F Damp=F
 DIIS: error= 5.31D-04 at cycle   5 NSaved=   5.
 NSaved= 5 IEnMin= 5 EnMin= -1136.12695405133     IErMin= 5 ErrMin= 5.31D-04
 ErrMax= 5.31D-04  0.00D+00 EMaxC= 1.00D-01 BMatC= 1.05D-04 BMatP= 3.24D-03
 IDIUse=3 WtCom= 9.95D-01 WtEn= 5.31D-03
 Coeff-Com: -0.956D-02 0.115D-01 0.289D+00 0.323D+00 0.386D+00
 Coeff-En:   0.000D+00 0.000D+00 0.000D+00 0.000D+00 0.100D+01
 Coeff:     -0.951D-02 0.115D-01 0.288D+00 0.321D+00 0.389D+00
 Gap=     0.047 Goal=   None    Shift=    0.000
 Gap=     0.039 Goal=   None    Shift=    0.000
 RMSDP=4.89D-04 MaxDP=5.19D-02 DE=-2.70D-03 OVMax= 1.47D-02

 Cycle   6  Pass 1  IDiag  1:
 E= -1136.12709272823     Delta-E=       -0.000138676903 Rises=F Damp=F
 DIIS: error= 1.24D-04 at cycle   6 NSaved=   6.
 NSaved= 6 IEnMin= 6 EnMin= -1136.12709272823     IErMin= 6 ErrMin= 1.24D-04
 ErrMax= 1.24D-04  0.00D+00 EMaxC= 1.00D-01 BMatC= 7.86D-06 BMatP= 1.05D-04
 IDIUse=3 WtCom= 9.99D-01 WtEn= 1.24D-03
 Coeff-Com: -0.129D-02 0.114D-02-0.322D-01-0.300D-01 0.168D+00 0.895D+00
 Coeff-En:   0.000D+00 0.000D+00 0.000D+00 0.000D+00 0.735D-02 0.993D+00
 Coeff:     -0.128D-02 0.114D-02-0.322D-01-0.300D-01 0.167D+00 0.895D+00
 Gap=     0.047 Goal=   None    Shift=    0.000
 Gap=     0.039 Goal=   None    Shift=    0.000
 RMSDP=2.75D-04 MaxDP=2.68D-02 DE=-1.39D-04 OVMax= 9.90D-03

 Cycle   7  Pass 1  IDiag  1:
 E= -1136.12711208240     Delta-E=       -0.000019354174 Rises=F Damp=F
 DIIS: error= 1.03D-04 at cycle   7 NSaved=   7.
 NSaved= 7 IEnMin= 7 EnMin= -1136.12711208240     IErMin= 7 ErrMin= 1.03D-04
 ErrMax= 1.03D-04  0.00D+00 EMaxC= 1.00D-01 BMatC= 2.82D-06 BMatP= 7.86D-06
 IDIUse=3 WtCom= 9.99D-01 WtEn= 1.03D-03
 Coeff-Com:  0.833D-03-0.131D-02-0.612D-01-0.636D-01 0.314D-01 0.505D+00
 Coeff-Com:  0.589D+00
 Coeff-En:   0.000D+00 0.000D+00 0.000D+00 0.000D+00 0.000D+00 0.000D+00
 Coeff-En:   0.100D+01
 Coeff:      0.832D-03-0.131D-02-0.611D-01-0.636D-01 0.314D-01 0.505D+00
 Coeff:      0.589D+00
 Gap=     0.047 Goal=   None    Shift=    0.000
 Gap=     0.039 Goal=   None    Shift=    0.000
 RMSDP=1.24D-04 MaxDP=5.03D-03 DE=-1.94D-05 OVMax= 5.29D-03

 Cycle   8  Pass 1  IDiag  1:
 E= -1136.12711880684     Delta-E=       -0.000006724436 Rises=F Damp=F
 DIIS: error= 5.44D-05 at cycle   8 NSaved=   8.
 NSaved= 8 IEnMin= 8 EnMin= -1136.12711880684     IErMin= 8 ErrMin= 5.44D-05
 ErrMax= 5.44D-05  0.00D+00 EMaxC= 1.00D-01 BMatC= 6.99D-07 BMatP= 2.82D-06
 IDIUse=1 WtCom= 1.00D+00 WtEn= 0.00D+00
 Coeff-Com:  0.161D-02-0.204D-02-0.771D-02-0.869D-02-0.721D-01-0.202D+00
 Coeff-Com:  0.268D+00 0.102D+01
 Coeff:      0.161D-02-0.204D-02-0.771D-02-0.869D-02-0.721D-01-0.202D+00
 Coeff:      0.268D+00 0.102D+01
 Gap=     0.047 Goal=   None    Shift=    0.000
 Gap=     0.039 Goal=   None    Shift=    0.000
 RMSDP=1.08D-04 MaxDP=8.31D-03 DE=-6.72D-06 OVMax= 5.46D-03

 Cycle   9  Pass 1  IDiag  1:
 E= -1136.12712287995     Delta-E=       -0.000004073107 Rises=F Damp=F
 DIIS: error= 2.04D-05 at cycle   9 NSaved=   9.
 NSaved= 9 IEnMin= 9 EnMin= -1136.12712287995     IErMin= 9 ErrMin= 2.04D-05
 ErrMax= 2.04D-05  0.00D+00 EMaxC= 1.00D-01 BMatC= 1.29D-07 BMatP= 6.99D-07
 IDIUse=1 WtCom= 1.00D+00 WtEn= 0.00D+00
 Coeff-Com:  0.477D-03-0.565D-03 0.967D-02 0.839D-02-0.220D-01-0.105D+00
 Coeff-Com: -0.793D-01 0.777D-01 0.111D+01
 Coeff:      0.477D-03-0.565D-03 0.967D-02 0.839D-02-0.220D-01-0.105D+00
 Coeff:     -0.793D-01 0.777D-01 0.111D+01
 Gap=     0.047 Goal=   None    Shift=    0.000
 Gap=     0.039 Goal=   None    Shift=    0.000
 RMSDP=8.53D-05 MaxDP=9.66D-03 DE=-4.07D-06 OVMax= 3.52D-03

 Cycle  10  Pass 1  IDiag  1:
 E= -1136.12712406051     Delta-E=       -0.000001180563 Rises=F Damp=F
 DIIS: error= 1.36D-05 at cycle  10 NSaved=  10.
 NSaved=10 IEnMin=10 EnMin= -1136.12712406051     IErMin=10 ErrMin= 1.36D-05
 ErrMax= 1.36D-05  0.00D+00 EMaxC= 1.00D-01 BMatC= 7.07D-08 BMatP= 1.29D-07
 IDIUse=1 WtCom= 1.00D+00 WtEn= 0.00D+00
 Coeff-Com: -0.303D-03 0.416D-03 0.769D-02 0.709D-02 0.922D-02 0.980D-02
 Coeff-Com: -0.125D+00-0.283D+00 0.618D+00 0.756D+00
 Coeff:     -0.303D-03 0.416D-03 0.769D-02 0.709D-02 0.922D-02 0.980D-02
 Coeff:     -0.125D+00-0.283D+00 0.618D+00 0.756D+00
 Gap=     0.047 Goal=   None    Shift=    0.000
 Gap=     0.039 Goal=   None    Shift=    0.000
 RMSDP=4.86D-05 MaxDP=5.50D-03 DE=-1.18D-06 OVMax= 1.85D-03

 Cycle  11  Pass 1  IDiag  1:
 E= -1136.12712445304     Delta-E=       -0.000000392530 Rises=F Damp=F
 DIIS: error= 7.54D-06 at cycle  11 NSaved=  11.
 NSaved=11 IEnMin=11 EnMin= -1136.12712445304     IErMin=11 ErrMin= 7.54D-06
 ErrMax= 7.54D-06  0.00D+00 EMaxC= 1.00D-01 BMatC= 1.84D-08 BMatP= 7.07D-08
 IDIUse=1 WtCom= 1.00D+00 WtEn= 0.00D+00
 Coeff-Com: -0.524D-03 0.673D-03-0.130D-02-0.660D-03 0.138D-01 0.545D-01
 Coeff-Com: -0.111D-01-0.149D+00-0.306D+00 0.308D+00 0.109D+01
 Coeff:     -0.524D-03 0.673D-03-0.130D-02-0.660D-03 0.138D-01 0.545D-01
 Coeff:     -0.111D-01-0.149D+00-0.306D+00 0.308D+00 0.109D+01
 Gap=     0.047 Goal=   None    Shift=    0.000
 Gap=     0.039 Goal=   None    Shift=    0.000
 RMSDP=5.02D-05 MaxDP=6.45D-03 DE=-3.93D-07 OVMax= 1.66D-03

 Cycle  12  Pass 1  IDiag  1:
 E= -1136.12712461094     Delta-E=       -0.000000157899 Rises=F Damp=F
 DIIS: error= 2.64D-06 at cycle  12 NSaved=  12.
 NSaved=12 IEnMin=12 EnMin= -1136.12712461094     IErMin=12 ErrMin= 2.64D-06
 ErrMax= 2.64D-06  0.00D+00 EMaxC= 1.00D-01 BMatC= 2.31D-09 BMatP= 1.84D-08
 IDIUse=1 WtCom= 1.00D+00 WtEn= 0.00D+00
 Coeff-Com: -0.224D-04 0.203D-04-0.951D-03-0.591D-03 0.161D-03 0.598D-02
 Coeff-Com:  0.152D-01 0.204D-01-0.148D+00-0.728D-01 0.193D+00 0.987D+00
 Coeff:     -0.224D-04 0.203D-04-0.951D-03-0.591D-03 0.161D-03 0.598D-02
 Coeff:      0.152D-01 0.204D-01-0.148D+00-0.728D-01 0.193D+00 0.987D+00
 Gap=     0.047 Goal=   None    Shift=    0.000
 Gap=     0.039 Goal=   None    Shift=    0.000
 RMSDP=1.19D-05 MaxDP=1.08D-03 DE=-1.58D-07 OVMax= 5.00D-04

 Cycle  13  Pass 1  IDiag  1:
 E= -1136.12712462915     Delta-E=       -0.000000018215 Rises=F Damp=F
 DIIS: error= 1.30D-06 at cycle  13 NSaved=  13.
 NSaved=13 IEnMin=13 EnMin= -1136.12712462915     IErMin=13 ErrMin= 1.30D-06
 ErrMax= 1.30D-06  0.00D+00 EMaxC= 1.00D-01 BMatC= 4.78D-10 BMatP= 2.31D-09
 IDIUse=1 WtCom= 1.00D+00 WtEn= 0.00D+00
 Coeff-Com:  0.927D-04-0.121D-03-0.220D-03-0.232D-03-0.273D-02-0.725D-02
 Coeff-Com:  0.940D-02 0.325D-01 0.978D-02-0.690D-01-0.154D+00 0.151D+00
 Coeff-Com:  0.103D+01
 Coeff:      0.927D-04-0.121D-03-0.220D-03-0.232D-03-0.273D-02-0.725D-02
 Coeff:      0.940D-02 0.325D-01 0.978D-02-0.690D-01-0.154D+00 0.151D+00
 Coeff:      0.103D+01
 Gap=     0.047 Goal=   None    Shift=    0.000
 Gap=     0.039 Goal=   None    Shift=    0.000
 RMSDP=4.76D-06 MaxDP=3.83D-04 DE=-1.82D-08 OVMax= 2.07D-04

 Cycle  14  Pass 1  IDiag  1:
 E= -1136.12712463293     Delta-E=       -0.000000003775 Rises=F Damp=F
 DIIS: error= 5.89D-07 at cycle  14 NSaved=  14.
 NSaved=14 IEnMin=14 EnMin= -1136.12712463293     IErMin=14 ErrMin= 5.89D-07
 ErrMax= 5.89D-07  0.00D+00 EMaxC= 1.00D-01 BMatC= 1.10D-10 BMatP= 4.78D-10
 IDIUse=1 WtCom= 1.00D+00 WtEn= 0.00D+00
 Coeff-Com:  0.199D-04-0.243D-04 0.297D-04-0.425D-04-0.416D-03-0.136D-02
 Coeff-Com: -0.872D-03-0.275D-02 0.367D-01 0.308D-02-0.687D-01-0.198D+00
 Coeff-Com:  0.188D+00 0.104D+01
 Coeff:      0.199D-04-0.243D-04 0.297D-04-0.425D-04-0.416D-03-0.136D-02
 Coeff:     -0.872D-03-0.275D-02 0.367D-01 0.308D-02-0.687D-01-0.198D+00
 Coeff:      0.188D+00 0.104D+01
 Gap=     0.047 Goal=   None    Shift=    0.000
 Gap=     0.039 Goal=   None    Shift=    0.000
 RMSDP=2.44D-06 MaxDP=1.69D-04 DE=-3.78D-09 OVMax= 9.39D-05

 Cycle  15  Pass 1  IDiag  1:
 E= -1136.12712463377     Delta-E=       -0.000000000840 Rises=F Damp=F
 DIIS: error= 3.16D-07 at cycle  15 NSaved=  15.
 NSaved=15 IEnMin=15 EnMin= -1136.12712463377     IErMin=15 ErrMin= 3.16D-07
 ErrMax= 3.16D-07  0.00D+00 EMaxC= 1.00D-01 BMatC= 1.74D-11 BMatP= 1.10D-10
 IDIUse=1 WtCom= 1.00D+00 WtEn= 0.00D+00
 Coeff-Com: -0.176D-04 0.234D-04 0.616D-04 0.522D-04 0.549D-03 0.970D-03
 Coeff-Com: -0.163D-02-0.490D-02-0.514D-02 0.110D-01 0.344D-01-0.757D-02
 Coeff-Com: -0.220D+00-0.817D-01 0.127D+01
 Coeff:     -0.176D-04 0.234D-04 0.616D-04 0.522D-04 0.549D-03 0.970D-03
 Coeff:     -0.163D-02-0.490D-02-0.514D-02 0.110D-01 0.344D-01-0.757D-02
 Coeff:     -0.220D+00-0.817D-01 0.127D+01
 Gap=     0.047 Goal=   None    Shift=    0.000
 Gap=     0.039 Goal=   None    Shift=    0.000
 RMSDP=1.16D-06 MaxDP=7.15D-05 DE=-8.40D-10 OVMax= 4.04D-05

 Cycle  16  Pass 1  IDiag  1:
 E= -1136.12712463394     Delta-E=       -0.000000000171 Rises=F Damp=F
 DIIS: error= 1.11D-07 at cycle  16 NSaved=  16.
 NSaved=16 IEnMin=16 EnMin= -1136.12712463394     IErMin=16 ErrMin= 1.11D-07
 ErrMax= 1.11D-07  0.00D+00 EMaxC= 1.00D-01 BMatC= 3.24D-12 BMatP= 1.74D-11
 IDIUse=1 WtCom= 1.00D+00 WtEn= 0.00D+00
 Coeff-Com: -0.271D-05 0.320D-05-0.981D-05 0.705D-05 0.209D-04 0.147D-03
 Coeff-Com:  0.328D-03 0.136D-02-0.691D-02-0.106D-02 0.822D-02 0.414D-01
 Coeff-Com: -0.783D-02-0.177D+00-0.113D+00 0.125D+01
 Coeff:     -0.271D-05 0.320D-05-0.981D-05 0.705D-05 0.209D-04 0.147D-03
 Coeff:      0.328D-03 0.136D-02-0.691D-02-0.106D-02 0.822D-02 0.414D-01
 Coeff:     -0.783D-02-0.177D+00-0.113D+00 0.125D+01
 Gap=     0.047 Goal=   None    Shift=    0.000
 Gap=     0.039 Goal=   None    Shift=    0.000
 RMSDP=4.94D-07 MaxDP=3.17D-05 DE=-1.71D-10 OVMax= 1.78D-05

 Cycle  17  Pass 1  IDiag  1:
 E= -1136.12712463398     Delta-E=       -0.000000000037 Rises=F Damp=F
 DIIS: error= 5.44D-08 at cycle  17 NSaved=  17.
 NSaved=17 IEnMin=17 EnMin= -1136.12712463398     IErMin=17 ErrMin= 5.44D-08
 ErrMax= 5.44D-08  0.00D+00 EMaxC= 1.00D-01 BMatC= 9.40D-13 BMatP= 3.24D-12
 IDIUse=1 WtCom= 1.00D+00 WtEn= 0.00D+00
 Coeff-Com:  0.361D-05-0.485D-05-0.163D-04-0.142D-04-0.782D-04-0.186D-03
 Coeff-Com:  0.325D-03 0.719D-03 0.114D-02-0.206D-02-0.605D-02-0.154D-02
 Coeff-Com:  0.394D-01 0.252D-01-0.226D+00-0.138D+00 0.131D+01
 Coeff:      0.361D-05-0.485D-05-0.163D-04-0.142D-04-0.782D-04-0.186D-03
 Coeff:      0.325D-03 0.719D-03 0.114D-02-0.206D-02-0.605D-02-0.154D-02
 Coeff:      0.394D-01 0.252D-01-0.226D+00-0.138D+00 0.131D+01
 Gap=     0.047 Goal=   None    Shift=    0.000
 Gap=     0.039 Goal=   None    Shift=    0.000
 RMSDP=3.12D-07 MaxDP=2.72D-05 DE=-3.73D-11 OVMax= 1.18D-05

 Cycle  18  Pass 1  IDiag  1:
 E= -1136.12712463398     Delta-E=        0.000000000002 Rises=F Damp=F
 DIIS: error= 4.00D-08 at cycle  18 NSaved=  18.
 NSaved=18 IEnMin=17 EnMin= -1136.12712463398     IErMin=18 ErrMin= 4.00D-08
 ErrMax= 4.00D-08  0.00D+00 EMaxC= 1.00D-01 BMatC= 3.59D-13 BMatP= 9.40D-13
 IDIUse=1 WtCom= 1.00D+00 WtEn= 0.00D+00
 Coeff-Com:  0.209D-05-0.265D-05 0.440D-05-0.142D-05-0.267D-04-0.193D-03
 Coeff-Com: -0.254D-04 0.556D-04 0.216D-02-0.453D-03-0.356D-02-0.114D-01
 Coeff-Com:  0.819D-02 0.560D-01-0.159D-02-0.456D+00 0.293D+00 0.111D+01
 Coeff:      0.209D-05-0.265D-05 0.440D-05-0.142D-05-0.267D-04-0.193D-03
 Coeff:     -0.254D-04 0.556D-04 0.216D-02-0.453D-03-0.356D-02-0.114D-01
 Coeff:      0.819D-02 0.560D-01-0.159D-02-0.456D+00 0.293D+00 0.111D+01
 Gap=     0.047 Goal=   None    Shift=    0.000
 Gap=     0.039 Goal=   None    Shift=    0.000
 RMSDP=1.97D-07 MaxDP=1.61D-05 DE= 1.82D-12 OVMax= 7.68D-06

 Cycle  19  Pass 1  IDiag  1:
 E= -1136.12712463398     Delta-E=       -0.000000000007 Rises=F Damp=F
 DIIS: error= 1.67D-08 at cycle  19 NSaved=  19.
 NSaved=19 IEnMin=19 EnMin= -1136.12712463398     IErMin=19 ErrMin= 1.67D-08
 ErrMax= 1.67D-08  0.00D+00 EMaxC= 1.00D-01 BMatC= 6.99D-14 BMatP= 3.59D-13
 IDIUse=1 WtCom= 1.00D+00 WtEn= 0.00D+00
 Coeff-Com: -0.127D-05 0.172D-05 0.314D-05 0.198D-05 0.291D-04 0.784D-04
 Coeff-Com: -0.126D-03-0.335D-03-0.171D-03 0.709D-03 0.223D-02-0.134D-02
 Coeff-Com: -0.137D-01-0.693D-03 0.794D-01-0.316D-01-0.309D+00 0.441D-01
 Coeff-Com:  0.123D+01
 Coeff:     -0.127D-05 0.172D-05 0.314D-05 0.198D-05 0.291D-04 0.784D-04
 Coeff:     -0.126D-03-0.335D-03-0.171D-03 0.709D-03 0.223D-02-0.134D-02
 Coeff:     -0.137D-01-0.693D-03 0.794D-01-0.316D-01-0.309D+00 0.441D-01
 Coeff:      0.123D+01
 Gap=     0.047 Goal=   None    Shift=    0.000
 Gap=     0.039 Goal=   None    Shift=    0.000
 RMSDP=1.28D-07 MaxDP=1.88D-05 DE=-6.82D-12 OVMax= 4.40D-06

 Cycle  20  Pass 1  IDiag  1:
 E= -1136.12712463398     Delta-E=        0.000000000000 Rises=F Damp=F
 DIIS: error= 6.33D-09 at cycle  20 NSaved=  20.
 NSaved=20 IEnMin=19 EnMin= -1136.12712463398     IErMin=20 ErrMin= 6.33D-09
 ErrMax= 6.33D-09  0.00D+00 EMaxC= 1.00D-01 BMatC= 1.29D-14 BMatP= 6.99D-14
 IDIUse=1 WtCom= 1.00D+00 WtEn= 0.00D+00
 Coeff-Com: -0.296D-06 0.368D-06-0.420D-06 0.771D-06 0.224D-05 0.162D-04
 Coeff-Com:  0.338D-04 0.593D-04-0.494D-03 0.734D-05 0.403D-03 0.280D-02
 Coeff-Com:  0.136D-03-0.130D-01-0.907D-02 0.106D+00-0.231D-01-0.273D+00
 Coeff-Com: -0.104D+00 0.131D+01
 Coeff:     -0.296D-06 0.368D-06-0.420D-06 0.771D-06 0.224D-05 0.162D-04
 Coeff:      0.338D-04 0.593D-04-0.494D-03 0.734D-05 0.403D-03 0.280D-02
 Coeff:      0.136D-03-0.130D-01-0.907D-02 0.106D+00-0.231D-01-0.273D+00
 Coeff:     -0.104D+00 0.131D+01
 Gap=     0.047 Goal=   None    Shift=    0.000
 Gap=     0.039 Goal=   None    Shift=    0.000
 RMSDP=5.44D-08 MaxDP=8.12D-06 DE= 0.00D+00 OVMax= 1.58D-06

 Cycle  21  Pass 1  IDiag  1:
 E= -1136.12712463399     Delta-E=       -0.000000000003 Rises=F Damp=F
 DIIS: error= 1.79D-09 at cycle  21 NSaved=  20.
 NSaved=20 IEnMin=20 EnMin= -1136.12712463399     IErMin=20 ErrMin= 1.79D-09
 ErrMax= 1.79D-09  0.00D+00 EMaxC= 1.00D-01 BMatC= 1.62D-15 BMatP= 1.29D-14
 IDIUse=1 WtCom= 1.00D+00 WtEn= 0.00D+00
 Large coefficients: NSaved= 20 BigCof=    0.00 CofMax=   10.00 Det=-1.79D-15
 Inversion failed.  Reducing to 19 matrices.
 Large coefficients: NSaved= 19 BigCof=    0.00 CofMax=   10.00 Det=-1.84D-15
 Inversion failed.  Reducing to 18 matrices.
 Large coefficients: NSaved= 18 BigCof=    0.00 CofMax=   10.00 Det=-1.85D-15
 Inversion failed.  Reducing to 17 matrices.
 Large coefficients: NSaved= 17 BigCof=    0.00 CofMax=   10.00 Det=-2.36D-15
 Inversion failed.  Reducing to 16 matrices.
 Large coefficients: NSaved= 16 BigCof=    0.00 CofMax=   10.00 Det=-2.47D-15
 Inversion failed.  Reducing to 15 matrices.
 Coeff-Com: -0.498D-05-0.903D-06 0.413D-04-0.310D-04-0.336D-04-0.762D-04
 Coeff-Com:  0.544D-03 0.519D-03-0.508D-02 0.347D-03 0.168D-01 0.271D-01
 Coeff-Com: -0.123D+00-0.162D+00 0.124D+01
 Coeff:     -0.498D-05-0.903D-06 0.413D-04-0.310D-04-0.336D-04-0.762D-04
 Coeff:      0.544D-03 0.519D-03-0.508D-02 0.347D-03 0.168D-01 0.271D-01
 Coeff:     -0.123D+00-0.162D+00 0.124D+01
 Gap=     0.047 Goal=   None    Shift=    0.000
 Gap=     0.039 Goal=   None    Shift=    0.000
 RMSDP=1.38D-08 MaxDP=1.90D-06 DE=-2.96D-12 OVMax= 4.90D-07

 Cycle  22  Pass 1  IDiag  1:
 E= -1136.12712463400     Delta-E=       -0.000000000014 Rises=F Damp=F
 DIIS: error= 1.05D-09 at cycle  22 NSaved=  16.
 NSaved=16 IEnMin=16 EnMin= -1136.12712463400     IErMin=16 ErrMin= 1.05D-09
 ErrMax= 1.05D-09  0.00D+00 EMaxC= 1.00D-01 BMatC= 3.50D-16 BMatP= 1.62D-15
 IDIUse=1 WtCom= 1.00D+00 WtEn= 0.00D+00
 Large coefficients: NSaved= 16 BigCof=    0.00 CofMax=   10.00 Det=-4.86D-16
 Inversion failed.  Reducing to 15 matrices.
 Coeff-Com: -0.606D-05 0.323D-04-0.124D-04-0.231D-04-0.267D-03 0.138D-03
 Coeff-Com:  0.130D-02 0.181D-03-0.134D-01 0.873D-02 0.368D-01-0.504D-03
 Coeff-Com: -0.202D+00 0.107D+00 0.106D+01
 Coeff:     -0.606D-05 0.323D-04-0.124D-04-0.231D-04-0.267D-03 0.138D-03
 Coeff:      0.130D-02 0.181D-03-0.134D-01 0.873D-02 0.368D-01-0.504D-03
 Coeff:     -0.202D+00 0.107D+00 0.106D+01
 Gap=     0.047 Goal=   None    Shift=    0.000
 Gap=     0.039 Goal=   None    Shift=    0.000
 RMSDP=4.15D-09 MaxDP=4.05D-07 DE=-1.39D-11 OVMax= 1.43D-07

 SCF Done:  E(UB3LYP) =  -1136.12712463     A.U. after   22 cycles
            NFock= 22  Conv=0.42D-08     -V/T= 2.0028
 <Sx>= 0.0000 <Sy>= 0.0000 <Sz>= 0.5000 <S**2>= 0.7736 S= 0.5117
 <L.S>= 0.000000000000E+00
 KE= 1.132909174801D+03 PE=-3.391346469486D+03 EE= 7.913313812319D+02
 Annihilation of the first spin contaminant:
 S**2 before annihilation     0.7736,   after     0.7504
 Leave Link  502 at Tue Dec  5 17:11:10 2023, MaxMem=  1879048192 cpu:             200.1 elap:              18.1
 (Enter /home/sekinelabo/g16/l601.exe)
 Copying SCF densities to generalized density rwf, IOpCl= 1 IROHF=0.

 **********************************************************************

            Population analysis using the SCF Density.

 **********************************************************************

 Orbital symmetries:
 Alpha Orbitals:
       Occupied  (A) (A) (A) (A) (A) (A) (A) (A) (A) (A) (A) (A)
                 (A) (A) (A) (A) (A) (A) (A) (A) (A) (A) (A) (A)
                 (A) (A) (A) (A) (A) (A) (A) (A) (A) (A) (A) (A)
                 (A) (A) (A)
       Virtual   (A) (A) (A) (A) (A) (A) (A) (A) (A) (A) (A) (A)
                 (A) (A) (A) (A) (A) (A) (A) (A) (A) (A) (A) (A)
                 (A) (A) (A) (A) (A) (A) (A) (A) (A) (A) (A) (A)
                 (A) (A) (A) (A) (A) (A) (A) (A) (A) (A) (A) (A)
                 (A) (A) (A) (A) (A) (A) (A) (A) (A) (A) (A) (A)
                 (A) (A) (A) (A) (A) (A) (A) (A) (A) (A) (A) (A)
                 (A) (A) (A) (A) (A) (A) (A) (A) (A) (A) (A) (A)
                 (A) (A) (A) (A) (A) (A) (A) (A) (A) (A) (A) (A)
                 (A) (A) (A) (A) (A) (A) (A) (A) (A) (A) (A) (A)
                 (A) (A) (A) (A) (A) (A) (A) (A) (A) (A) (A) (A)
                 (A) (A) (A) (A) (A) (A) (A) (A) (A) (A) (A) (A)
                 (A) (A) (A) (A) (A) (A) (A) (A) (A) (A) (A) (A)
                 (A) (A) (A) (A) (A) (A) (A) (A) (A) (A) (A) (A)
                 (A) (A) (A) (A) (A) (A) (A) (A) (A) (A) (A) (A)
                 (A) (A) (A)
 Beta  Orbitals:
       Occupied  (A) (A) (A) (A) (A) (A) (A) (A) (A) (A) (A) (A)
                 (A) (A) (A) (A) (A) (A) (A) (A) (A) (A) (A) (A)
                 (A) (A) (A) (A) (A) (A) (A) (A) (A) (A) (A) (A)
                 (A) (A)
       Virtual   (A) (A) (A) (A) (A) (A) (A) (A) (A) (A) (A) (A)
                 (A) (A) (A) (A) (A) (A) (A) (A) (A) (A) (A) (A)
                 (A) (A) (A) (A) (A) (A) (A) (A) (A) (A) (A) (A)
                 (A) (A) (A) (A) (A) (A) (A) (A) (A) (A) (A) (A)
                 (A) (A) (A) (A) (A) (A) (A) (A) (A) (A) (A) (A)
                 (A) (A) (A) (A) (A) (A) (A) (A) (A) (A) (A) (A)
                 (A) (A) (A) (A) (A) (A) (A) (A) (A) (A) (A) (A)
                 (A) (A) (A) (A) (A) (A) (A) (A) (A) (A) (A) (A)
                 (A) (A) (A) (A) (A) (A) (A) (A) (A) (A) (A) (A)
                 (A) (A) (A) (A) (A) (A) (A) (A) (A) (A) (A) (A)
                 (A) (A) (A) (A) (A) (A) (A) (A) (A) (A) (A) (A)
                 (A) (A) (A) (A) (A) (A) (A) (A) (A) (A) (A) (A)
                 (A) (A) (A) (A) (A) (A) (A) (A) (A) (A) (A) (A)
                 (A) (A) (A) (A) (A) (A) (A) (A) (A) (A) (A) (A)
                 (A) (A) (A) (A)
 The electronic state is 2-A.
 Alpha  occ. eigenvalues --  -38.44879 -38.44243 -38.43656 -38.43610 -38.43537
 Alpha  occ. eigenvalues --  -38.43495 -38.43185  -2.20720  -2.20081  -2.19504
 Alpha  occ. eigenvalues --   -2.19468  -2.19445  -2.19438  -2.19020  -1.14413
 Alpha  occ. eigenvalues --   -1.14384  -1.14326  -1.13773  -1.13718  -1.13704
 Alpha  occ. eigenvalues --   -1.13271  -1.13167  -1.13151  -1.13141  -1.13118
 Alpha  occ. eigenvalues --   -1.13116  -1.13112  -1.13103  -1.13096  -1.13080
 Alpha  occ. eigenvalues --   -1.13069  -1.13015  -1.12701  -1.12672  -1.12645
 Alpha  occ. eigenvalues --   -0.18393  -0.13751  -0.11491  -0.11004
 Alpha virt. eigenvalues --   -0.06300  -0.05246  -0.04651  -0.03201  -0.02770
 Alpha virt. eigenvalues --   -0.02216  -0.02072  -0.01143  -0.00751  -0.00168
 Alpha virt. eigenvalues --    0.00206   0.00239   0.00412   0.00606   0.00739
 Alpha virt. eigenvalues --    0.00803   0.00877   0.01016   0.01169   0.01377
 Alpha virt. eigenvalues --    0.01416   0.01568   0.01706   0.01889   0.01981
 Alpha virt. eigenvalues --    0.02310   0.02418   0.02564   0.02585   0.02668
 Alpha virt. eigenvalues --    0.02716   0.02814   0.02878   0.02968   0.02985
 Alpha virt. eigenvalues --    0.03109   0.03144   0.03479   0.03595   0.03643
 Alpha virt. eigenvalues --    0.03888   0.04058   0.04265   0.04594   0.04719
 Alpha virt. eigenvalues --    0.04973   0.05120   0.05285   0.05490   0.05738
 Alpha virt. eigenvalues --    0.06168   0.06357   0.06509   0.06772   0.07234
 Alpha virt. eigenvalues --    0.07317   0.07859   0.08054   0.08307   0.08987
 Alpha virt. eigenvalues --    0.09244   0.09476   0.10331   0.10801   0.11269
 Alpha virt. eigenvalues --    0.11562   0.12245   0.12725   0.12863   0.13092
 Alpha virt. eigenvalues --    0.13223   0.13535   0.13799   0.14054   0.14357
 Alpha virt. eigenvalues --    0.14450   0.15309   0.15626   0.16816   0.17571
 Alpha virt. eigenvalues --    0.24857   0.26580   0.27299   0.28575   0.29697
 Alpha virt. eigenvalues --    0.30130   0.31004   0.31806   0.32298   0.32821
 Alpha virt. eigenvalues --    0.34511   0.35272   0.35700   0.37654   0.38042
 Alpha virt. eigenvalues --    0.38281   0.39255   0.39823   0.41005   0.41875
 Alpha virt. eigenvalues --    0.42926   0.43197   0.43535   0.44089   0.44423
 Alpha virt. eigenvalues --    0.44668   0.44853   0.45130   0.45551   0.45907
 Alpha virt. eigenvalues --    0.46201   0.46538   0.46798   0.48203   0.48427
 Alpha virt. eigenvalues --    0.49674   0.50246   0.50406   0.50966   0.51159
 Alpha virt. eigenvalues --    0.52051   0.53177   0.53578   0.54293   0.55721
 Alpha virt. eigenvalues --    0.57187   0.57894   0.59216   0.60044   0.61093
 Alpha virt. eigenvalues --    0.61311   0.63302   0.63733   0.64647   0.65571
 Alpha virt. eigenvalues --    0.70164   2.03463   2.11008   2.14729   2.17281
 Alpha virt. eigenvalues --    2.18671   2.24571   2.28033   4.43195   4.43769
 Alpha virt. eigenvalues --    4.43907   4.44616   4.45446   4.45699   4.46035
 Alpha virt. eigenvalues --    4.46350   4.46768   4.47615   4.47905   4.48858
 Alpha virt. eigenvalues --    4.50477   4.50831   4.51586   4.52703   4.53999
 Alpha virt. eigenvalues --    4.56731   4.58014   4.59055   4.63153  96.22830
 Alpha virt. eigenvalues --   96.32217  96.36228  96.39657  96.41015  96.48064
 Alpha virt. eigenvalues --   96.53260
  Beta  occ. eigenvalues --  -38.44867 -38.44198 -38.43636 -38.43599 -38.43487
  Beta  occ. eigenvalues --  -38.43457 -38.43167  -2.20701  -2.20000  -2.19433
  Beta  occ. eigenvalues --   -2.19426  -2.19415  -2.19371  -2.18989  -1.14394
  Beta  occ. eigenvalues --   -1.14372  -1.14306  -1.13704  -1.13667  -1.13645
  Beta  occ. eigenvalues --   -1.13217  -1.13130  -1.13109  -1.13093  -1.13088
  Beta  occ. eigenvalues --   -1.13086  -1.13082  -1.13072  -1.13055  -1.13029
  Beta  occ. eigenvalues --   -1.13017  -1.12970  -1.12678  -1.12647  -1.12616
  Beta  occ. eigenvalues --   -0.17759  -0.13476  -0.11181
  Beta virt. eigenvalues --   -0.07238  -0.06210  -0.05095  -0.04113  -0.02874
  Beta virt. eigenvalues --   -0.02182  -0.02098  -0.01409  -0.00968  -0.00425
  Beta virt. eigenvalues --   -0.00083   0.00231   0.00278   0.00511   0.00726
  Beta virt. eigenvalues --    0.00779   0.00885   0.00949   0.01109   0.01270
  Beta virt. eigenvalues --    0.01475   0.01602   0.01633   0.01776   0.01961
  Beta virt. eigenvalues --    0.02116   0.02328   0.02433   0.02570   0.02621
  Beta virt. eigenvalues --    0.02680   0.02765   0.02879   0.02946   0.03057
  Beta virt. eigenvalues --    0.03104   0.03163   0.03209   0.03507   0.03673
  Beta virt. eigenvalues --    0.03721   0.04017   0.04182   0.04430   0.04733
  Beta virt. eigenvalues --    0.04855   0.05031   0.05231   0.05505   0.05620
  Beta virt. eigenvalues --    0.05840   0.06211   0.06476   0.06572   0.06861
  Beta virt. eigenvalues --    0.07295   0.07416   0.07913   0.08185   0.08487
  Beta virt. eigenvalues --    0.09160   0.09464   0.09642   0.10538   0.11066
  Beta virt. eigenvalues --    0.11414   0.11907   0.12432   0.12887   0.13141
  Beta virt. eigenvalues --    0.13290   0.13364   0.13800   0.13987   0.14133
  Beta virt. eigenvalues --    0.14494   0.14582   0.15752   0.15965   0.17181
  Beta virt. eigenvalues --    0.17771   0.25103   0.26785   0.27506   0.28840
  Beta virt. eigenvalues --    0.29991   0.30573   0.31159   0.32056   0.32478
  Beta virt. eigenvalues --    0.33091   0.34700   0.35598   0.35899   0.37920
  Beta virt. eigenvalues --    0.38373   0.38559   0.39530   0.40038   0.41222
  Beta virt. eigenvalues --    0.41987   0.43185   0.43349   0.43664   0.44210
  Beta virt. eigenvalues --    0.44564   0.44829   0.45003   0.45305   0.45655
  Beta virt. eigenvalues --    0.46050   0.46337   0.46677   0.46959   0.48358
  Beta virt. eigenvalues --    0.48565   0.49815   0.50385   0.50613   0.51146
  Beta virt. eigenvalues --    0.51272   0.52198   0.53434   0.53717   0.54469
  Beta virt. eigenvalues --    0.55915   0.57358   0.58027   0.59386   0.60170
  Beta virt. eigenvalues --    0.61189   0.61493   0.63400   0.63942   0.64865
  Beta virt. eigenvalues --    0.65873   0.70372   2.03564   2.11102   2.14821
  Beta virt. eigenvalues --    2.17379   2.18735   2.24714   2.28224   4.43275
  Beta virt. eigenvalues --    4.43815   4.43934   4.44659   4.45498   4.45740
  Beta virt. eigenvalues --    4.46069   4.46384   4.46814   4.47654   4.47943
  Beta virt. eigenvalues --    4.48912   4.50529   4.50855   4.51624   4.52743
  Beta virt. eigenvalues --    4.54035   4.56770   4.58095   4.59128   4.63196
  Beta virt. eigenvalues --   96.22865  96.32251  96.36259  96.39688  96.41037
  Beta virt. eigenvalues --   96.48110  96.53321
          Condensed to atoms (all electrons):
               1          2          3          4          5          6
     1  Na  10.978702  -0.421453  -0.082645  -0.319945   0.438102   0.092503
     2  Na  -0.421453  11.642377  -0.791571   0.612590  -0.159892  -0.326294
     3  Na  -0.082645  -0.791571  14.398380  -0.236713  -2.038105   0.340994
     4  Na  -0.319945   0.612590  -0.236713  10.993448  -0.398559   0.087114
     5  Na   0.438102  -0.159892  -2.038105  -0.398559  14.213273  -0.326120
     6  Na   0.092503  -0.326294   0.340994   0.087114  -0.326120  10.875251
     7  Na   0.256591  -0.263976   0.342340  -0.183599  -0.601672   0.258018
               7
     1  Na   0.256591
     2  Na  -0.263976
     3  Na   0.342340
     4  Na  -0.183599
     5  Na  -0.601672
     6  Na   0.258018
     7  Na  11.343156
          Atomic-Atomic Spin Densities.
               1          2          3          4          5          6
     1  Na   0.020243   0.023197   0.042427  -0.011350   0.103926  -0.065057
     2  Na   0.023197   0.001352   0.026618  -0.031981   0.020607   0.005604
     3  Na   0.042427   0.026618   1.227821  -0.075652  -1.317914  -0.071606
     4  Na  -0.011350  -0.031981  -0.075652  -0.018008   0.016210   0.008641
     5  Na   0.103926   0.020607  -1.317914   0.016210   2.285175  -0.002446
     6  Na  -0.065057   0.005604  -0.071606   0.008641  -0.002446   0.155634
     7  Na  -0.066041   0.043846   0.548824   0.059255  -0.799205   0.074498
               7
     1  Na  -0.066041
     2  Na   0.043846
     3  Na   0.548824
     4  Na   0.059255
     5  Na  -0.799205
     6  Na   0.074498
     7  Na   0.262984
 Mulliken charges and spin densities:
               1          2
     1  Na   0.058145   0.047344
     2  Na   0.708219   0.089242
     3  Na  -0.932679   0.380518
     4  Na   0.445665  -0.052886
     5  Na  -0.127027   0.306353
     6  Na  -0.001466   0.105269
     7  Na  -0.150857   0.124161
 Sum of Mulliken charges =  -0.00000   1.00000
 Mulliken charges and spin densities with hydrogens summed into heavy atoms:
               1          2
     1  Na   0.058145   0.047344
     2  Na   0.708219   0.089242
     3  Na  -0.932679   0.380518
     4  Na   0.445665  -0.052886
     5  Na  -0.127027   0.306353
     6  Na  -0.001466   0.105269
     7  Na  -0.150857   0.124161
 Electronic spatial extent (au):  <R**2>=           2517.0419
 Charge=             -0.0000 electrons
 Dipole moment (field-independent basis, Debye):
    X=             -0.6389    Y=              0.4641    Z=             -0.0428  Tot=              0.7909
 Quadrupole moment (field-independent basis, Debye-Ang):
   XX=            -51.3450   YY=            -71.1609   ZZ=            -70.4237
   XY=              0.5944   XZ=              1.1688   YZ=             -2.2696
 Traceless Quadrupole moment (field-independent basis, Debye-Ang):
   XX=             12.9649   YY=             -6.8511   ZZ=             -6.1138
   XY=              0.5944   XZ=              1.1688   YZ=             -2.2696
 Octapole moment (field-independent basis, Debye-Ang**2):
  XXX=            -14.1988  YYY=             -0.8845  ZZZ=              4.8770  XYY=             -4.0667
  XXY=              6.4421  XXZ=             -0.7291  XZZ=              1.7928  YZZ=              3.7153
  YYZ=             -5.8532  XYZ=             10.0033
 Hexadecapole moment (field-independent basis, Debye-Ang**3):
 XXXX=          -1956.2349 YYYY=          -1324.7549 ZZZZ=           -887.9334 XXXY=            -64.0549
 XXXZ=             61.4768 YYYX=             55.0364 YYYZ=            -53.2016 ZZZX=             14.1895
 ZZZY=             -6.9953 XXYY=           -515.9742 XXZZ=           -480.0655 YYZZ=           -366.9373
 XXYZ=             -3.2673 YYXZ=            -38.3877 ZZXY=              6.3092
 N-N= 3.309787888194D+02 E-N=-3.391346469558D+03  KE= 1.132909174801D+03
                          Isotropic Fermi Contact Couplings
        Atom                 a.u.       MegaHertz       Gauss      10(-4) cm-1
     1  Na(23)             0.07197      85.14237      30.38091      28.40044
     2  Na(23)             0.02683      31.73779      11.32483      10.58659
     3  Na(23)             0.11836     140.02016      49.96268      46.70570
     4  Na(23)             0.03817      45.16141      16.11471      15.06422
     5  Na(23)             0.16817     198.95009      70.99034      66.36261
     6  Na(23)             0.17154     202.93190      72.41115      67.69079
     7  Na(23)             0.04856      57.44468      20.49769      19.16148
 --------------------------------------------------------
       Center         ----  Spin Dipole Couplings  ----
                      3XX-RR        3YY-RR        3ZZ-RR
 --------------------------------------------------------
     1   Atom        0.005624     -0.007664      0.002040
     2   Atom       -0.001728     -0.011099      0.012827
     3   Atom       -0.009524     -0.008677      0.018201
     4   Atom       -0.001897     -0.001936      0.003833
     5   Atom        0.006418     -0.013868      0.007450
     6   Atom        0.007998     -0.011740      0.003742
     7   Atom       -0.003791     -0.003964      0.007754
 --------------------------------------------------------
                        XY            XZ            YZ
 --------------------------------------------------------
     1   Atom       -0.001092      0.010266     -0.003074
     2   Atom        0.001522     -0.014697     -0.011009
     3   Atom       -0.005190     -0.014414     -0.014986
     4   Atom        0.002357      0.003371      0.006027
     5   Atom        0.001551      0.018958     -0.006984
     6   Atom       -0.001383     -0.016792      0.002773
     7   Atom        0.006104      0.013430      0.012420
 --------------------------------------------------------


 ---------------------------------------------------------------------------------
              Anisotropic Spin Dipole Couplings in Principal Axis System
 ---------------------------------------------------------------------------------

       Atom             a.u.   MegaHertz   Gauss  10(-4) cm-1        Axes

              Baa    -0.0091    -1.284    -0.458    -0.428 -0.2758  0.8306  0.4837
     1 Na(23) Bbb    -0.0055    -0.779    -0.278    -0.260  0.5974  0.5424 -0.5907
              Bcc     0.0146     2.063     0.736     0.688  0.7530 -0.1260  0.6458
 
              Baa    -0.0170    -2.406    -0.858    -0.802  0.3814  0.7906  0.4791
     2 Na(23) Bbb    -0.0078    -1.105    -0.394    -0.369  0.7919 -0.5468  0.2720
              Bcc     0.0249     3.511     1.253     1.171 -0.4770 -0.2757  0.8346
 
              Baa    -0.0244    -3.450    -1.231    -1.151  0.6426  0.6285  0.4382
     3 Na(23) Bbb    -0.0039    -0.553    -0.197    -0.185 -0.7059  0.7080  0.0197
              Bcc     0.0283     4.003     1.428     1.335 -0.2979 -0.3220  0.8987
 
              Baa    -0.0057    -0.812    -0.290    -0.271 -0.0760  0.8559 -0.5116
     4 Na(23) Bbb    -0.0034    -0.481    -0.172    -0.161  0.9342 -0.1182 -0.3365
              Bcc     0.0092     1.293     0.461     0.431  0.3485  0.5035  0.7906
 
              Baa    -0.0192    -2.712    -0.968    -0.904 -0.4117  0.7661  0.4936
     5 Na(23) Bbb    -0.0071    -1.001    -0.357    -0.334  0.6037  0.6350 -0.4821
              Bcc     0.0263     3.713     1.325     1.238  0.6827 -0.0995  0.7239
 
              Baa    -0.0128    -1.803    -0.643    -0.601 -0.3216  0.8244 -0.4657
     6 Na(23) Bbb    -0.0103    -1.450    -0.517    -0.484  0.5833  0.5599  0.5884
              Bcc     0.0230     3.253     1.161     1.085  0.7458 -0.0824 -0.6610
 
              Baa    -0.0135    -1.912    -0.682    -0.638 -0.6110 -0.4527  0.6494
     7 Na(23) Bbb    -0.0099    -1.405    -0.501    -0.469 -0.6344  0.7707 -0.0595
              Bcc     0.0235     3.317     1.184     1.106  0.4736  0.4483  0.7581
 

 ---------------------------------------------------------------------------------

 No NMR shielding tensors so no spin-rotation constants.
 Leave Link  601 at Tue Dec  5 17:11:10 2023, MaxMem=  1879048192 cpu:               2.2 elap:               0.2
 (Enter /home/sekinelabo/g16/l701.exe)
 ... and contract with generalized density number  0.
 Compute integral first derivatives.
 Leave Link  701 at Tue Dec  5 17:11:10 2023, MaxMem=  1879048192 cpu:               1.5 elap:               0.1
 (Enter /home/sekinelabo/g16/l702.exe)
 L702 exits ... SP integral derivatives will be done elsewhere.
 Leave Link  702 at Tue Dec  5 17:11:10 2023, MaxMem=  1879048192 cpu:               0.5 elap:               0.0
 (Enter /home/sekinelabo/g16/l703.exe)
 Integral derivatives from FoFJK, PRISM(SPDF).
 Compute integral first derivatives, UseDBF=F ICtDFT=           0.
 Calling FoFJK, ICntrl=      2127 FMM=F ISym2X=0 I1Cent= 0 IOpClX= 1 NMat=1 NMatS=1 NMatT=0.
 FoFJK:  IHMeth= 1 ICntrl=    2127 DoSepK=F KAlg= 0 I1Cent=           0 FoldK=F
 IRaf=         0 NMat=       1 IRICut=       1 DoRegI=T DoRafI=F ISym2E= 0 IDoP0=0 IntGTp=1.
 FoFCou: FMM=F IPFlag=           0 FMFlag=      100000 FMFlg1=         800
         NFxFlg=           0 DoJE=F BraDBF=F KetDBF=F FulRan=T
         wScrn=  0.000000 ICntrl=      2127 IOpCl=  1 I1Cent=           0 NGrid=           0
         NMat0=    1 NMatS0=      1 NMatT0=    0 NMatD0=    1 NMtDS0=    0 NMtDT0=    0
 Symmetry not used in FoFCou.
 Leave Link  703 at Tue Dec  5 17:11:13 2023, MaxMem=  1879048192 cpu:              32.9 elap:               2.2
 (Enter /home/sekinelabo/g16/l716.exe)
 Dipole        =-2.51374504D-01 1.82605147D-01-1.68419372D-02
 ***** Axes restored to original set *****
 -------------------------------------------------------------------
 Center     Atomic                   Forces (Hartrees/Bohr)
 Number     Number              X              Y              Z
 -------------------------------------------------------------------
      1       11           0.000749573   -0.000116484   -0.000227406
      2       11          -0.002907922    0.001821812    0.001401809
      3       11           0.000572117    0.003274359   -0.000221890
      4       11           0.000886269    0.000002841    0.001041482
      5       11          -0.000054756   -0.004626873    0.000424515
      6       11           0.000392719    0.001003614   -0.001753150
      7       11           0.000362000   -0.001359270   -0.000665361
 -------------------------------------------------------------------
 Cartesian Forces:  Max     0.004626873 RMS     0.001626900
 Z-matrix is all fixed cartesians, so copy forces.
 Force constants in Cartesian coordinates: 
                1             2             3             4             5 
      1  0.238812D-01
      2  0.548668D-02  0.424536D-01
      3 -0.539007D-02  0.761305D-02  0.296521D-01
      4  0.530275D-02  0.315112D-02  0.857663D-03  0.623292D-01
      5  0.139314D-02  0.295591D-02 -0.118480D-02 -0.427167D-02  0.453151D-01
      6 -0.828711D-03 -0.258694D-02  0.120133D-02 -0.245482D-02  0.141100D-01
      7 -0.288678D-01 -0.108952D-01  0.474571D-03 -0.190593D-01 -0.579710D-03
      8  0.949687D-03 -0.243828D-01 -0.556495D-02 -0.702707D-02 -0.240065D-01
      9  0.517649D-02  0.101086D-01 -0.250603D-01 -0.470144D-03 -0.208001D-01
     10  0.831961D-03  0.197515D-03  0.325361D-03 -0.187857D-01  0.525967D-02
     11  0.786744D-03  0.493012D-03  0.122672D-03 -0.448766D-02 -0.489749D-02
     12  0.421929D-02 -0.285414D-02  0.414057D-02 -0.218867D-01 -0.339113D-02
     13  0.378929D-02  0.194170D-02 -0.261391D-02 -0.148969D-01 -0.153225D-02
     14  0.269819D-02 -0.355285D-02 -0.312227D-02  0.743977D-02 -0.200261D-01
     15 -0.210801D-02 -0.448213D-02  0.332498D-02  0.445135D-02  0.226476D-01
     16 -0.707133D-02 -0.676366D-03  0.747700D-02  0.338766D-02 -0.717004D-03
     17 -0.784226D-02 -0.174394D-01  0.803011D-02 -0.251758D-02  0.580977D-02
     18  0.300889D-02 -0.556706D-02 -0.124394D-01  0.245796D-02 -0.367883D-02
     19  0.213387D-02  0.794569D-03 -0.113062D-02 -0.182777D-01  0.447818D-03
     20 -0.347218D-02 -0.527472D-03 -0.589381D-02  0.771308D-02 -0.515061D-02
     21 -0.407787D-02 -0.223139D-02 -0.819243D-03  0.170447D-01 -0.770280D-02
                6             7             8             9            10 
      6  0.918041D-01
      7  0.408052D-02  0.118076D+00
      8  0.518632D-02  0.999645D-02  0.131556D+00
      9 -0.208621D-01 -0.100512D-01  0.509094D-02  0.102514D+00
     10  0.778989D-02 -0.223592D-01 -0.798997D-02 -0.656454D-02  0.650535D-01
     11 -0.748021D-02  0.216037D-01 -0.260529D-01 -0.136085D-02 -0.410062D-02
     12 -0.237043D-01 -0.145889D-02 -0.385512D-02 -0.168513D-01  0.678460D-02
     13  0.223782D-02 -0.214102D-01 -0.332332D-02  0.802738D-02 -0.195101D-01
     14 -0.751140D-02 -0.363710D-03 -0.406565D-01  0.114348D-01  0.551425D-02
     15 -0.324499D-01  0.359584D-02 -0.381540D-02 -0.220289D-01 -0.644601D-02
     16  0.467394D-02 -0.317797D-02 -0.313265D-02  0.743425D-02 -0.222753D-03
     17 -0.106235D-02 -0.360289D-02  0.296267D-02  0.608742D-02 -0.289511D-03
     18 -0.409156D-03  0.422886D-02  0.349936D-02 -0.291206D-02  0.197314D-04
     19 -0.154986D-01 -0.232014D-01  0.105269D-01 -0.355221D-02 -0.500764D-02
     20 -0.655461D-03 -0.161587D-01 -0.194196D-01 -0.105608D-01  0.140867D-02
     21 -0.155800D-01 -0.869663D-03 -0.541161D-03 -0.147990D-01 -0.190903D-02
               11            12            13            14            15 
     11  0.349344D-01
     12  0.563467D-02  0.410809D-01
     13 -0.189583D-01  0.113815D-01  0.989065D-01
     14 -0.152583D-01  0.170357D-02 -0.602654D-02  0.135512D+00
     15  0.201793D-02 -0.124624D-01 -0.913230D-02 -0.189241D-01  0.106797D+00
     16  0.326652D-02  0.332389D-02 -0.220521D-01 -0.380306D-02  0.822947D-02
     17  0.309568D-02  0.246919D-02  0.953901D-02 -0.338192D-01 -0.131556D-01
     18  0.729370D-03  0.111676D-02 -0.133473D-02  0.108445D-01 -0.211569D-01
     19  0.188959D-02 -0.236362D-02 -0.248264D-01 -0.545890D-02  0.140966D-02
     20  0.768553D-02  0.292962D-03  0.183597D-01 -0.221989D-01  0.157117D-01
     21  0.336423D-03  0.667982D-02 -0.856576D-02  0.557488D-02 -0.220241D-01
               16            17            18            19            20 
     16  0.391286D-01
     17  0.556680D-02  0.449709D-01
     18 -0.156505D-01 -0.654798D-02  0.498022D-01
     19 -0.999217D-02 -0.853572D-03  0.726974D-02  0.791714D-01
     20 -0.504248D-03 -0.558038D-02  0.720652D-03 -0.734637D-02  0.451914D-01
     21 -0.154881D-01  0.417926D-02 -0.140014D-01  0.138657D-01  0.384787D-03
               21 
     21  0.605439D-01
 Leave Link  716 at Tue Dec  5 17:11:13 2023, MaxMem=  1879048192 cpu:               0.4 elap:               0.0
 (Enter /home/sekinelabo/g16/l103.exe)

 GradGradGradGradGradGradGradGradGradGradGradGradGradGradGradGradGradGrad
 Berny optimization.
 Search for a local minimum.
 Step number   1 out of a maximum of    2
 All quantities printed in internal units (Hartrees-Bohrs-Radians)
 Second derivative matrix not updated -- first step.
 ITU=  0
     Eigenvalues ---    0.02422   0.03192   0.04670   0.05180   0.05395
     Eigenvalues ---    0.06552   0.07832   0.09607   0.10507   0.11050
     Eigenvalues ---    0.12678   0.13827   0.15630   0.16601   0.19047
 Angle between quadratic step and forces=  37.69 degrees.
 Linear search not attempted -- first point.
 B after Tr=     0.000000   -0.000000    0.000000
         Rot=    1.000000    0.000000   -0.000000    0.000000 Ang=   0.00 deg.
 Variable       Old X    -DE/DX   Delta X   Delta X   Delta X     New X
                                 (Linear)    (Quad)   (Total)
    X1       21.30534   0.00075   0.00000   0.03166   0.03166  21.33700
    Y1       28.07150  -0.00012   0.00000   0.00109   0.00109  28.07259
    Z1       26.74813  -0.00023   0.00000  -0.01717  -0.01717  26.73096
    X2       24.41810  -0.00291   0.00000  -0.03001  -0.03001  24.38809
    Y2       20.27638   0.00182   0.00000   0.02910   0.02910  20.30548
    Z2       17.15834   0.00140   0.00000   0.01473   0.01473  17.17306
    X3       23.92771   0.00057   0.00000   0.00174   0.00174  23.92945
    Y3       25.00089   0.00327   0.00000   0.01878   0.01878  25.01967
    Z3       21.96920  -0.00022   0.00000   0.00463   0.00463  21.97383
    X4       29.04660   0.00089   0.00000   0.00343   0.00343  29.05003
    Y4       21.13829   0.00000   0.00000   0.00670   0.00670  21.14498
    Z4       21.64001   0.00104   0.00000   0.02384   0.02384  21.66385
    X5       22.49568  -0.00005   0.00000  -0.00380  -0.00380  22.49188
    Y5       19.25480  -0.00463   0.00000  -0.02576  -0.02576  19.22904
    Z5       23.19147   0.00042   0.00000   0.00193   0.00193  23.19340
    X6       18.94186   0.00039   0.00000   0.00168   0.00168  18.94354
    Y6       22.02287   0.00100   0.00000  -0.00411  -0.00411  22.01876
    Z6       27.44600  -0.00175   0.00000  -0.03104  -0.03104  27.41497
    X7       18.04823   0.00036   0.00000  -0.00471  -0.00471  18.04352
    Y7       22.41895  -0.00136   0.00000  -0.02579  -0.02579  22.39317
    Z7       20.03053  -0.00067   0.00000   0.00307   0.00307  20.03360
         Item               Value     Threshold  Converged?
 Maximum Force            0.004627     0.000450     NO 
 RMS     Force            0.001627     0.000300     NO 
 Maximum Displacement     0.031658     0.001800     NO 
 RMS     Displacement     0.017762     0.001200     NO 
 Predicted change in Energy=-2.401142D-04
 GradGradGradGradGradGradGradGradGradGradGradGradGradGradGradGradGradGrad

 Leave Link  103 at Tue Dec  5 17:11:13 2023, MaxMem=  1879048192 cpu:               0.2 elap:               0.0
 (Enter /home/sekinelabo/g16/l9999.exe)
 1\1\GINC-SEKINELABO-XA7R-R37\Force\UB3LYP\6-311+G(d)\Na7(2)\SEKINELABO
 \05-Dec-2023\0\\#P B3LYP/6-311+g(d) force\\DPGEN\\0,2\Na,11.2743,14.85
 48,14.1545\Na,12.9215,10.7298,9.0798\Na,12.662,13.2299,11.6256\Na,15.3
 708,11.1859,11.4514\Na,11.9042,10.1892,12.2724\Na,10.0236,11.654,14.52
 38\Na,9.55071,11.8636,10.5997\\Version=ES64L-G16RevB.01\State=2-A\HF=-
 1136.1271246\S2=0.77355\S2-1=0.\S2A=0.750365\RMSD=4.152e-09\RMSF=1.627
 e-03\Dipole=0.0069938,-0.1764666,-0.2561798\Quadrupole=0.9542109,-4.03
 11618,3.0769509,-4.371009,-5.4314714,3.4111412\PG=C01 [X(Na7)]\\@


 ROSE IS A RED
 TY COBB IS BLUE
 'CAUSE PETE JUST HIT
 NO. 4592.
 Job cpu time:       0 days  0 hours  4 minutes  8.8 seconds.
 Elapsed time:       0 days  0 hours  0 minutes 21.4 seconds.
 File lengths (MBytes):  RWF=     32 Int=      0 D2E=      0 Chk=      4 Scr=      1
 Normal termination of Gaussian 16 at Tue Dec  5 17:11:13 2023.
