 Set GAUSS_MDEF to "14GB".
 Entering Gaussian System, Link 0=g16
 Initial command:
 /home/sekinelabo/g16/l1.exe "/home/sekinelabo/g16temp/Gau-243758.inp" -scrdir="/home/sekinelabo/g16temp/"
 Entering Link 1 = /home/sekinelabo/g16/l1.exe PID=    243760.
  
 Copyright (c) 1988-2017, Gaussian, Inc.  All Rights Reserved.
  
 This is part of the Gaussian(R) 16 program.  It is based on
 the Gaussian(R) 09 system (copyright 2009, Gaussian, Inc.),
 the Gaussian(R) 03 system (copyright 2003, Gaussian, Inc.),
 the Gaussian(R) 98 system (copyright 1998, Gaussian, Inc.),
 the Gaussian(R) 94 system (copyright 1995, Gaussian, Inc.),
 the Gaussian 92(TM) system (copyright 1992, Gaussian, Inc.),
 the Gaussian 90(TM) system (copyright 1990, Gaussian, Inc.),
 the Gaussian 88(TM) system (copyright 1988, Gaussian, Inc.),
 the Gaussian 86(TM) system (copyright 1986, Carnegie Mellon
 University), and the Gaussian 82(TM) system (copyright 1983,
 Carnegie Mellon University). Gaussian is a federally registered
 trademark of Gaussian, Inc.
  
 This software contains proprietary and confidential information,
 including trade secrets, belonging to Gaussian, Inc.
  
 This software is provided under written license and may be
 used, copied, transmitted, or stored only in accord with that
 written license.
  
 The following legend is applicable only to US Government
 contracts under FAR:
  
                    RESTRICTED RIGHTS LEGEND
  
 Use, reproduction and disclosure by the US Government is
 subject to restrictions as set forth in subparagraphs (a)
 and (c) of the Commercial Computer Software - Restricted
 Rights clause in FAR 52.227-19.
  
 Gaussian, Inc.
 340 Quinnipiac St., Bldg. 40, Wallingford CT 06492
  
  
 ---------------------------------------------------------------
 Warning -- This program may not be used in any manner that
 competes with the business of Gaussian, Inc. or will provide
 assistance to any competitor of Gaussian, Inc.  The licensee
 of this program is prohibited from giving any competitor of
 Gaussian, Inc. access to this program.  By using this program,
 the user acknowledges that Gaussian, Inc. is engaged in the
 business of creating and licensing software in the field of
 computational chemistry and represents and warrants to the
 licensee that it is not a competitor of Gaussian, Inc. and that
 it will not use this program in any manner prohibited above.
 ---------------------------------------------------------------
  

 Cite this work as:
 Gaussian 16, Revision B.01,
 M. J. Frisch, G. W. Trucks, H. B. Schlegel, G. E. Scuseria, 
 M. A. Robb, J. R. Cheeseman, G. Scalmani, V. Barone, 
 G. A. Petersson, H. Nakatsuji, X. Li, M. Caricato, A. V. Marenich, 
 J. Bloino, B. G. Janesko, R. Gomperts, B. Mennucci, H. P. Hratchian, 
 J. V. Ortiz, A. F. Izmaylov, J. L. Sonnenberg, D. Williams-Young, 
 F. Ding, F. Lipparini, F. Egidi, J. Goings, B. Peng, A. Petrone, 
 T. Henderson, D. Ranasinghe, V. G. Zakrzewski, J. Gao, N. Rega, 
 G. Zheng, W. Liang, M. Hada, M. Ehara, K. Toyota, R. Fukuda, 
 J. Hasegawa, M. Ishida, T. Nakajima, Y. Honda, O. Kitao, H. Nakai, 
 T. Vreven, K. Throssell, J. A. Montgomery, Jr., J. E. Peralta, 
 F. Ogliaro, M. J. Bearpark, J. J. Heyd, E. N. Brothers, K. N. Kudin, 
 V. N. Staroverov, T. A. Keith, R. Kobayashi, J. Normand, 
 K. Raghavachari, A. P. Rendell, J. C. Burant, S. S. Iyengar, 
 J. Tomasi, M. Cossi, J. M. Millam, M. Klene, C. Adamo, R. Cammi, 
 J. W. Ochterski, R. L. Martin, K. Morokuma, O. Farkas, 
 J. B. Foresman, and D. J. Fox, Gaussian, Inc., Wallingford CT, 2016.
 
 ******************************************
 Gaussian 16:  ES64L-G16RevB.01 20-Dec-2017
                 3-Dec-2023 
 ******************************************
 %nproc=15
 Will use up to   15 processors via shared memory.
 -------------------------
 #P B3LYP/6-311+g(d) force
 -------------------------
 1/10=7,30=1,38=1/1,3;
 2/12=2,17=6,18=5,40=1/2;
 3/5=4,6=6,7=11,11=2,25=1,30=1,71=1,74=-5/1,2,3;
 4//1;
 5/5=2,38=5/2;
 6/7=2,8=2,9=2,10=2,28=1/1;
 7/29=1/1,2,3,16;
 1/10=7,30=1/3;
 99//99;
 Leave Link    1 at Sun Dec  3 12:34:35 2023, MaxMem=           0 cpu:               0.3 elap:               0.0
 (Enter /home/sekinelabo/g16/l101.exe)
 -----
 DPGEN
 -----
 Symbolic Z-matrix:
 Charge =  0 Multiplicity = 2
 Na                    16.4717   10.3633   12.6266 
 Na                    13.3556   15.8761   11.9718 
 Na                    15.2482   10.2008   15.9895 
 Na                    14.8117   13.3077   10.7115 
 Na                    13.4983   13.0536   14.6065 
 Na                    9.76523   13.4725   13.9452 
 Na                    9.9141    16.7908   13.2136 
 
 ITRead=  0  0  0  0  0  0  0
 MicOpt= -1 -1 -1 -1 -1 -1 -1
 NAtoms=      7 NQM=        7 NQMF=       0 NMMI=      0 NMMIF=      0
                NMic=       0 NMicF=      0.
                    Isotopes and Nuclear Properties:
 (Nuclear quadrupole moments (NQMom) in fm**2, nuclear magnetic moments (NMagM)
  in nuclear magnetons)

  Atom         1           2           3           4           5           6           7
 IAtWgt=          23          23          23          23          23          23          23
 AtmWgt=  22.9897697  22.9897697  22.9897697  22.9897697  22.9897697  22.9897697  22.9897697
 NucSpn=           3           3           3           3           3           3           3
 AtZEff=  -0.0000000  -0.0000000  -0.0000000  -0.0000000  -0.0000000  -0.0000000  -0.0000000
 NQMom=   10.4000000  10.4000000  10.4000000  10.4000000  10.4000000  10.4000000  10.4000000
 NMagM=    2.2175200   2.2175200   2.2175200   2.2175200   2.2175200   2.2175200   2.2175200
 AtZNuc=  11.0000000  11.0000000  11.0000000  11.0000000  11.0000000  11.0000000  11.0000000
 Leave Link  101 at Sun Dec  3 12:34:36 2023, MaxMem=  1879048192 cpu:               2.5 elap:               0.2
 (Enter /home/sekinelabo/g16/l103.exe)

 GradGradGradGradGradGradGradGradGradGradGradGradGradGradGradGradGradGrad
 Berny optimization.
 Initialization pass.
 Trust Radius=3.00D-01 FncErr=1.00D-07 GrdErr=1.00D-07 EigMax=2.50D+02 EigMin=1.00D-04
 Number of steps in this run=      2 maximum allowed number of steps=      2.
 GradGradGradGradGradGradGradGradGradGradGradGradGradGradGradGradGradGrad

 Leave Link  103 at Sun Dec  3 12:34:36 2023, MaxMem=  1879048192 cpu:               0.2 elap:               0.0
 (Enter /home/sekinelabo/g16/l202.exe)
                          Input orientation:                          
 ---------------------------------------------------------------------
 Center     Atomic      Atomic             Coordinates (Angstroms)
 Number     Number       Type             X           Y           Z
 ---------------------------------------------------------------------
      1         11           0       16.471700   10.363300   12.626600
      2         11           0       13.355600   15.876100   11.971800
      3         11           0       15.248200   10.200800   15.989500
      4         11           0       14.811700   13.307700   10.711500
      5         11           0       13.498300   13.053600   14.606500
      6         11           0        9.765230   13.472500   13.945200
      7         11           0        9.914100   16.790800   13.213600
 ---------------------------------------------------------------------
                    Distance matrix (angstroms):
                    1          2          3          4          5
     1  Na   0.000000
     2  Na   6.366302   0.000000
     3  Na   3.582242   7.206447   0.000000
     4  Na   3.884932   3.210181   6.140085   0.000000
     5  Na   4.472005   3.863743   3.621230   4.118326   0.000000
     6  Na   7.508833   4.749985   6.704188   5.995901   3.814264
     7  Na   9.201057   3.771295   8.921118   6.509914   5.362213
                    6          7
     6  Na   0.000000
     7  Na   3.401252   0.000000
 Stoichiometry    Na7(2)
 Framework group  C1[X(Na7)]
 Deg. of freedom    15
 Full point group                 C1      NOp   1
 Largest Abelian subgroup         C1      NOp   1
 Largest concise Abelian subgroup C1      NOp   1
                         Standard orientation:                         
 ---------------------------------------------------------------------
 Center     Atomic      Atomic             Coordinates (Angstroms)
 Number     Number       Type             X           Y           Z
 ---------------------------------------------------------------------
      1         11           0       -4.221377    1.009891    0.541362
      2         11           0        1.900131    1.998807   -0.900509
      3         11           0       -3.835652   -2.355224   -0.624686
      4         11           0       -0.783377    2.815045    0.660837
      5         11           0       -0.456037   -1.057016   -0.703202
      6         11           0        2.555018   -2.112306    1.386897
      7         11           0        4.841295   -0.299198   -0.360699
 ---------------------------------------------------------------------
 Rotational constants (GHZ):           0.7677074           0.3078404           0.2413410
 Leave Link  202 at Sun Dec  3 12:34:36 2023, MaxMem=  1879048192 cpu:               0.0 elap:               0.0
 (Enter /home/sekinelabo/g16/l301.exe)
 Standard basis: 6-311+G(d) (5D, 7F)
 Ernie: Thresh=  0.10000D-02 Tol=  0.10000D-05 Strict=F.
 There are   217 symmetry adapted cartesian basis functions of A   symmetry.
 There are   210 symmetry adapted basis functions of A   symmetry.
   210 basis functions,   350 primitive gaussians,   217 cartesian basis functions
    39 alpha electrons       38 beta electrons
       nuclear repulsion energy       278.5348493254 Hartrees.
 IExCor=  402 DFT=T Ex+Corr=B3LYP ExCW=0 ScaHFX=  0.200000
 ScaDFX=  0.800000  0.720000  1.000000  0.810000 ScalE2=  1.000000  1.000000
 IRadAn=      5 IRanWt=     -1 IRanGd=            0 ICorTp=0 IEmpDi=  4
 NAtoms=    7 NActive=    7 NUniq=    7 SFac= 1.00D+00 NAtFMM=   60 NAOKFM=F Big=F
 Integral buffers will be    131072 words long.
 Raffenetti 2 integral format.
 Two-electron integral symmetry is turned on.
 Leave Link  301 at Sun Dec  3 12:34:36 2023, MaxMem=  1879048192 cpu:               0.5 elap:               0.0
 (Enter /home/sekinelabo/g16/l302.exe)
 NPDir=0 NMtPBC=     1 NCelOv=     1 NCel=       1 NClECP=     1 NCelD=      1
         NCelK=      1 NCelE2=     1 NClLst=     1 CellRange=     0.0.
 One-electron integrals computed using PRISM.
 One-electron integral symmetry used in STVInt
 NBasis=   210 RedAO= T EigKep=  1.06D-05  NBF=   210
 NBsUse=   210 1.00D-06 EigRej= -1.00D+00 NBFU=   210
 Precomputing XC quadrature grid using
 IXCGrd= 4 IRadAn=           5 IRanWt=          -1 IRanGd=           0 AccXCQ= 0.00D+00.
 Generated NRdTot=       0 NPtTot=           0 NUsed=           0 NTot=          32
 NSgBfM=   210   210   210   210   210 MxSgAt=     7 MxSgA2=     7.
 Leave Link  302 at Sun Dec  3 12:34:36 2023, MaxMem=  1879048192 cpu:               1.9 elap:               0.1
 (Enter /home/sekinelabo/g16/l303.exe)
 DipDrv:  MaxL=1.
 Leave Link  303 at Sun Dec  3 12:34:36 2023, MaxMem=  1879048192 cpu:               0.5 elap:               0.0
 (Enter /home/sekinelabo/g16/l401.exe)
 ExpMin= 7.60D-03 ExpMax= 3.62D+04 ExpMxC= 1.21D+03 IAcc=3 IRadAn=         5 AccDes= 0.00D+00
 Harris functional with IExCor=  402 and IRadAn=       5 diagonalized for initial guess.
 HarFok:  IExCor=  402 AccDes= 0.00D+00 IRadAn=         5 IDoV= 1 UseB2=F ITyADJ=14
 ICtDFT=  3500011 ScaDFX=  1.000000  1.000000  1.000000  1.000000
 FoFCou: FMM=F IPFlag=           0 FMFlag=      100000 FMFlg1=           0
         NFxFlg=           0 DoJE=T BraDBF=F KetDBF=T FulRan=T
         wScrn=  0.000000 ICntrl=       500 IOpCl=  0 I1Cent=   200000004 NGrid=           0
         NMat0=    1 NMatS0=      1 NMatT0=    0 NMatD0=    1 NMtDS0=    0 NMtDT0=    0
 Petite list used in FoFCou.
 Harris En= -1135.88295776645    
 JPrj=0 DoOrth=F DoCkMO=F.
 Initial guess <Sx>= 0.0000 <Sy>= 0.0000 <Sz>= 0.5000 <S**2>= 0.7500 S= 0.5000
 Leave Link  401 at Sun Dec  3 12:34:36 2023, MaxMem=  1879048192 cpu:               4.2 elap:               0.3
 (Enter /home/sekinelabo/g16/l502.exe)
 Keep R1 and R2 ints in memory in canonical form, NReq=506573279.
 FoFCou: FMM=F IPFlag=           0 FMFlag=           0 FMFlg1=           0
         NFxFlg=           0 DoJE=F BraDBF=F KetDBF=F FulRan=T
         wScrn=  0.000000 ICntrl=       600 IOpCl=  0 I1Cent=           0 NGrid=           0
         NMat0=    1 NMatS0=  22155 NMatT0=    0 NMatD0=    1 NMtDS0=    0 NMtDT0=    0
 Symmetry not used in FoFCou.
 Two-electron integral symmetry not used.
 UHF open shell SCF:
 Using DIIS extrapolation, IDIIS=  1040.
 NGot=  1879048192 LenX=  1388082621 LenY=  1388035091
 Requested convergence on RMS density matrix=1.00D-08 within 128 cycles.
 Requested convergence on MAX density matrix=1.00D-06.
 Requested convergence on             energy=1.00D-06.
 No special actions if energy rises.

 Cycle   1  Pass 1  IDiag  1:
 E= -1136.08633742650    
 DIIS: error= 1.11D-02 at cycle   1 NSaved=   1.
 NSaved= 1 IEnMin= 1 EnMin= -1136.08633742650     IErMin= 1 ErrMin= 1.11D-02
 ErrMax= 1.11D-02  0.00D+00 EMaxC= 1.00D-01 BMatC= 1.84D-01 BMatP= 1.84D-01
 IDIUse=3 WtCom= 8.89D-01 WtEn= 1.11D-01
 Coeff-Com:  0.100D+01
 Coeff-En:   0.100D+01
 Coeff:      0.100D+01
 Gap=     0.025 Goal=   None    Shift=    0.000
 Gap=     0.041 Goal=   None    Shift=    0.000
 GapD=    0.025 DampG=0.250 DampE=0.500 DampFc=0.2500 IDamp=-1.
 Damping current iteration by 2.50D-01
 RMSDP=8.82D-03 MaxDP=7.41D-01              OVMax= 1.58D-01

 Cycle   2  Pass 1  IDiag  1:
 E= -1136.09497492763     Delta-E=       -0.008637501139 Rises=F Damp=T
 DIIS: error= 7.74D-03 at cycle   2 NSaved=   2.
 NSaved= 2 IEnMin= 2 EnMin= -1136.09497492763     IErMin= 2 ErrMin= 7.74D-03
 ErrMax= 7.74D-03  0.00D+00 EMaxC= 1.00D-01 BMatC= 7.10D-02 BMatP= 1.84D-01
 IDIUse=3 WtCom= 9.23D-01 WtEn= 7.74D-02
 Coeff-Com: -0.129D+01 0.229D+01
 Coeff-En:   0.000D+00 0.100D+01
 Coeff:     -0.119D+01 0.219D+01
 Gap=     0.029 Goal=   None    Shift=    0.000
 Gap=     0.047 Goal=   None    Shift=    0.000
 RMSDP=4.03D-03 MaxDP=3.50D-01 DE=-8.64D-03 OVMax= 1.07D-01

 Cycle   3  Pass 1  IDiag  1:
 E= -1136.11174848211     Delta-E=       -0.016773554475 Rises=F Damp=F
 DIIS: error= 1.25D-03 at cycle   3 NSaved=   3.
 NSaved= 3 IEnMin= 3 EnMin= -1136.11174848211     IErMin= 3 ErrMin= 1.25D-03
 ErrMax= 1.25D-03  0.00D+00 EMaxC= 1.00D-01 BMatC= 7.62D-04 BMatP= 7.10D-02
 IDIUse=3 WtCom= 9.87D-01 WtEn= 1.25D-02
 Coeff-Com: -0.612D-01 0.113D+00 0.949D+00
 Coeff-En:   0.000D+00 0.000D+00 0.100D+01
 Coeff:     -0.604D-01 0.111D+00 0.949D+00
 Gap=     0.028 Goal=   None    Shift=    0.000
 Gap=     0.044 Goal=   None    Shift=    0.000
 RMSDP=1.72D-03 MaxDP=1.44D-01 DE=-1.68D-02 OVMax= 6.58D-02

 Cycle   4  Pass 1  IDiag  1:
 E= -1136.11132209834     Delta-E=        0.000426383773 Rises=F Damp=F
 DIIS: error= 1.33D-03 at cycle   4 NSaved=   4.
 NSaved= 4 IEnMin= 3 EnMin= -1136.11174848211     IErMin= 3 ErrMin= 1.25D-03
 ErrMax= 1.33D-03  0.00D+00 EMaxC= 1.00D-01 BMatC= 1.21D-03 BMatP= 7.62D-04
 IDIUse=3 WtCom= 2.15D-01 WtEn= 7.85D-01
 Coeff-Com:  0.698D-02-0.959D-02 0.560D+00 0.442D+00
 Coeff-En:   0.000D+00 0.000D+00 0.588D+00 0.412D+00
 Coeff:      0.150D-02-0.206D-02 0.582D+00 0.419D+00
 Gap=     0.029 Goal=   None    Shift=    0.000
 Gap=     0.045 Goal=   None    Shift=    0.000
 RMSDP=9.18D-04 MaxDP=6.17D-02 DE= 4.26D-04 OVMax= 3.57D-02

 Cycle   5  Pass 1  IDiag  1:
 E= -1136.11266741407     Delta-E=       -0.001345315733 Rises=F Damp=F
 DIIS: error= 1.81D-04 at cycle   5 NSaved=   5.
 NSaved= 5 IEnMin= 5 EnMin= -1136.11266741407     IErMin= 5 ErrMin= 1.81D-04
 ErrMax= 1.81D-04  0.00D+00 EMaxC= 1.00D-01 BMatC= 1.88D-05 BMatP= 7.62D-04
 IDIUse=3 WtCom= 9.98D-01 WtEn= 1.81D-03
 Coeff-Com:  0.351D-03-0.119D-02 0.240D+00 0.165D+00 0.596D+00
 Coeff-En:   0.000D+00 0.000D+00 0.000D+00 0.000D+00 0.100D+01
 Coeff:      0.351D-03-0.119D-02 0.240D+00 0.164D+00 0.597D+00
 Gap=     0.029 Goal=   None    Shift=    0.000
 Gap=     0.044 Goal=   None    Shift=    0.000
 RMSDP=1.61D-04 MaxDP=5.94D-03 DE=-1.35D-03 OVMax= 1.21D-02

 Cycle   6  Pass 1  IDiag  1:
 E= -1136.11269017654     Delta-E=       -0.000022762470 Rises=F Damp=F
 DIIS: error= 2.10D-04 at cycle   6 NSaved=   6.
 NSaved= 6 IEnMin= 6 EnMin= -1136.11269017654     IErMin= 5 ErrMin= 1.81D-04
 ErrMax= 2.10D-04  0.00D+00 EMaxC= 1.00D-01 BMatC= 1.15D-05 BMatP= 1.88D-05
 IDIUse=3 WtCom= 9.98D-01 WtEn= 1.81D-03
 Coeff-Com: -0.366D-02 0.435D-02-0.637D-01-0.730D-01 0.474D+00 0.662D+00
 Coeff-En:   0.000D+00 0.000D+00 0.000D+00 0.000D+00 0.231D+00 0.769D+00
 Coeff:     -0.365D-02 0.434D-02-0.636D-01-0.729D-01 0.473D+00 0.663D+00
 Gap=     0.029 Goal=   None    Shift=    0.000
 Gap=     0.045 Goal=   None    Shift=    0.000
 RMSDP=1.31D-04 MaxDP=8.70D-03 DE=-2.28D-05 OVMax= 7.52D-03

 Cycle   7  Pass 1  IDiag  1:
 E= -1136.11271978923     Delta-E=       -0.000029612689 Rises=F Damp=F
 DIIS: error= 6.92D-05 at cycle   7 NSaved=   7.
 NSaved= 7 IEnMin= 7 EnMin= -1136.11271978923     IErMin= 7 ErrMin= 6.92D-05
 ErrMax= 6.92D-05  0.00D+00 EMaxC= 1.00D-01 BMatC= 1.39D-06 BMatP= 1.15D-05
 IDIUse=1 WtCom= 1.00D+00 WtEn= 0.00D+00
 Coeff-Com: -0.161D-02 0.211D-02-0.785D-01-0.650D-01 0.715D-01 0.230D+00
 Coeff-Com:  0.842D+00
 Coeff:     -0.161D-02 0.211D-02-0.785D-01-0.650D-01 0.715D-01 0.230D+00
 Coeff:      0.842D+00
 Gap=     0.029 Goal=   None    Shift=    0.000
 Gap=     0.045 Goal=   None    Shift=    0.000
 RMSDP=8.30D-05 MaxDP=4.61D-03 DE=-2.96D-05 OVMax= 5.95D-03

 Cycle   8  Pass 1  IDiag  1:
 E= -1136.11272787929     Delta-E=       -0.000008090063 Rises=F Damp=F
 DIIS: error= 5.73D-05 at cycle   8 NSaved=   8.
 NSaved= 8 IEnMin= 8 EnMin= -1136.11272787929     IErMin= 8 ErrMin= 5.73D-05
 ErrMax= 5.73D-05  0.00D+00 EMaxC= 1.00D-01 BMatC= 1.06D-06 BMatP= 1.39D-06
 IDIUse=1 WtCom= 1.00D+00 WtEn= 0.00D+00
 Coeff-Com:  0.447D-03-0.411D-03-0.361D-01-0.242D-01-0.985D-01-0.785D-01
 Coeff-Com:  0.588D+00 0.649D+00
 Coeff:      0.447D-03-0.411D-03-0.361D-01-0.242D-01-0.985D-01-0.785D-01
 Coeff:      0.588D+00 0.649D+00
 Gap=     0.029 Goal=   None    Shift=    0.000
 Gap=     0.045 Goal=   None    Shift=    0.000
 RMSDP=5.32D-05 MaxDP=3.56D-03 DE=-8.09D-06 OVMax= 4.84D-03

 Cycle   9  Pass 1  IDiag  1:
 E= -1136.11273282082     Delta-E=       -0.000004941529 Rises=F Damp=F
 DIIS: error= 3.05D-05 at cycle   9 NSaved=   9.
 NSaved= 9 IEnMin= 9 EnMin= -1136.11273282082     IErMin= 9 ErrMin= 3.05D-05
 ErrMax= 3.05D-05  0.00D+00 EMaxC= 1.00D-01 BMatC= 2.34D-07 BMatP= 1.06D-06
 IDIUse=1 WtCom= 1.00D+00 WtEn= 0.00D+00
 Coeff-Com:  0.138D-02-0.175D-02 0.223D-01 0.158D-01-0.412D-01-0.126D+00
 Coeff-Com: -0.194D+00 0.131D+00 0.119D+01
 Coeff:      0.138D-02-0.175D-02 0.223D-01 0.158D-01-0.412D-01-0.126D+00
 Coeff:     -0.194D+00 0.131D+00 0.119D+01
 Gap=     0.029 Goal=   None    Shift=    0.000
 Gap=     0.045 Goal=   None    Shift=    0.000
 RMSDP=4.79D-05 MaxDP=2.11D-03 DE=-4.94D-06 OVMax= 4.75D-03

 Cycle  10  Pass 1  IDiag  1:
 E= -1136.11273565086     Delta-E=       -0.000002830039 Rises=F Damp=F
 DIIS: error= 1.44D-05 at cycle  10 NSaved=  10.
 NSaved=10 IEnMin=10 EnMin= -1136.11273565086     IErMin=10 ErrMin= 1.44D-05
 ErrMax= 1.44D-05  0.00D+00 EMaxC= 1.00D-01 BMatC= 8.29D-08 BMatP= 2.34D-07
 IDIUse=1 WtCom= 1.00D+00 WtEn= 0.00D+00
 Coeff-Com: -0.117D-03 0.129D-03 0.157D-01 0.924D-02 0.322D-01-0.358D-02
 Coeff-Com: -0.239D+00-0.206D+00 0.344D+00 0.105D+01
 Coeff:     -0.117D-03 0.129D-03 0.157D-01 0.924D-02 0.322D-01-0.358D-02
 Coeff:     -0.239D+00-0.206D+00 0.344D+00 0.105D+01
 Gap=     0.029 Goal=   None    Shift=    0.000
 Gap=     0.045 Goal=   None    Shift=    0.000
 RMSDP=2.99D-05 MaxDP=1.31D-03 DE=-2.83D-06 OVMax= 3.32D-03

 Cycle  11  Pass 1  IDiag  1:
 E= -1136.11273662590     Delta-E=       -0.000000975040 Rises=F Damp=F
 DIIS: error= 1.35D-05 at cycle  11 NSaved=  11.
 NSaved=11 IEnMin=11 EnMin= -1136.11273662590     IErMin=11 ErrMin= 1.35D-05
 ErrMax= 1.35D-05  0.00D+00 EMaxC= 1.00D-01 BMatC= 3.38D-08 BMatP= 8.29D-08
 IDIUse=1 WtCom= 1.00D+00 WtEn= 0.00D+00
 Coeff-Com: -0.803D-03 0.102D-02-0.140D-02-0.202D-02 0.342D-01 0.410D-01
 Coeff-Com: -0.105D-01-0.150D+00-0.364D+00 0.469D+00 0.983D+00
 Coeff:     -0.803D-03 0.102D-02-0.140D-02-0.202D-02 0.342D-01 0.410D-01
 Coeff:     -0.105D-01-0.150D+00-0.364D+00 0.469D+00 0.983D+00
 Gap=     0.029 Goal=   None    Shift=    0.000
 Gap=     0.045 Goal=   None    Shift=    0.000
 RMSDP=2.01D-05 MaxDP=9.35D-04 DE=-9.75D-07 OVMax= 2.56D-03

 Cycle  12  Pass 1  IDiag  1:
 E= -1136.11273701446     Delta-E=       -0.000000388560 Rises=F Damp=F
 DIIS: error= 5.87D-06 at cycle  12 NSaved=  12.
 NSaved=12 IEnMin=12 EnMin= -1136.11273701446     IErMin=12 ErrMin= 5.87D-06
 ErrMax= 5.87D-06  0.00D+00 EMaxC= 1.00D-01 BMatC= 9.01D-09 BMatP= 3.38D-08
 IDIUse=1 WtCom= 1.00D+00 WtEn= 0.00D+00
 Coeff-Com: -0.491D-04 0.595D-04-0.469D-02-0.345D-02-0.534D-03 0.252D-02
 Coeff-Com:  0.710D-01 0.334D-01-0.170D+00-0.203D+00 0.190D+00 0.108D+01
 Coeff:     -0.491D-04 0.595D-04-0.469D-02-0.345D-02-0.534D-03 0.252D-02
 Coeff:      0.710D-01 0.334D-01-0.170D+00-0.203D+00 0.190D+00 0.108D+01
 Gap=     0.029 Goal=   None    Shift=    0.000
 Gap=     0.045 Goal=   None    Shift=    0.000
 RMSDP=9.46D-06 MaxDP=3.48D-04 DE=-3.89D-07 OVMax= 1.37D-03

 Cycle  13  Pass 1  IDiag  1:
 E= -1136.11273713476     Delta-E=       -0.000000120301 Rises=F Damp=F
 DIIS: error= 4.30D-06 at cycle  13 NSaved=  13.
 NSaved=13 IEnMin=13 EnMin= -1136.11273713476     IErMin=13 ErrMin= 4.30D-06
 ErrMax= 4.30D-06  0.00D+00 EMaxC= 1.00D-01 BMatC= 2.79D-09 BMatP= 9.01D-09
 IDIUse=1 WtCom= 1.00D+00 WtEn= 0.00D+00
 Coeff-Com:  0.351D-03-0.450D-03 0.487D-03 0.457D-03-0.119D-01-0.175D-01
 Coeff-Com:  0.850D-02 0.564D-01 0.126D+00-0.155D+00-0.361D+00-0.179D+00
 Coeff-Com:  0.153D+01
 Coeff:      0.351D-03-0.450D-03 0.487D-03 0.457D-03-0.119D-01-0.175D-01
 Coeff:      0.850D-02 0.564D-01 0.126D+00-0.155D+00-0.361D+00-0.179D+00
 Coeff:      0.153D+01
 Gap=     0.029 Goal=   None    Shift=    0.000
 Gap=     0.045 Goal=   None    Shift=    0.000
 RMSDP=1.01D-05 MaxDP=5.78D-04 DE=-1.20D-07 OVMax= 1.16D-03

 Cycle  14  Pass 1  IDiag  1:
 E= -1136.11273719590     Delta-E=       -0.000000061140 Rises=F Damp=F
 DIIS: error= 1.73D-06 at cycle  14 NSaved=  14.
 NSaved=14 IEnMin=14 EnMin= -1136.11273719590     IErMin=14 ErrMin= 1.73D-06
 ErrMax= 1.73D-06  0.00D+00 EMaxC= 1.00D-01 BMatC= 7.72D-10 BMatP= 2.79D-09
 IDIUse=1 WtCom= 1.00D+00 WtEn= 0.00D+00
 Coeff-Com: -0.743D-04 0.994D-04 0.114D-02 0.567D-03 0.456D-02 0.308D-02
 Coeff-Com: -0.297D-01-0.237D-01 0.469D-01 0.105D+00-0.488D-01-0.389D+00
 Coeff-Com: -0.883D-01 0.142D+01
 Coeff:     -0.743D-04 0.994D-04 0.114D-02 0.567D-03 0.456D-02 0.308D-02
 Coeff:     -0.297D-01-0.237D-01 0.469D-01 0.105D+00-0.488D-01-0.389D+00
 Coeff:     -0.883D-01 0.142D+01
 Gap=     0.029 Goal=   None    Shift=    0.000
 Gap=     0.045 Goal=   None    Shift=    0.000
 RMSDP=7.23D-06 MaxDP=4.62D-04 DE=-6.11D-08 OVMax= 6.19D-04

 Cycle  15  Pass 1  IDiag  1:
 E= -1136.11273721177     Delta-E=       -0.000000015864 Rises=F Damp=F
 DIIS: error= 6.41D-07 at cycle  15 NSaved=  15.
 NSaved=15 IEnMin=15 EnMin= -1136.11273721177     IErMin=15 ErrMin= 6.41D-07
 ErrMax= 6.41D-07  0.00D+00 EMaxC= 1.00D-01 BMatC= 1.63D-10 BMatP= 7.72D-10
 IDIUse=1 WtCom= 1.00D+00 WtEn= 0.00D+00
 Coeff-Com: -0.108D-03 0.141D-03 0.116D-03-0.683D-04 0.386D-02 0.441D-02
 Coeff-Com: -0.778D-02-0.150D-01-0.240D-01 0.491D-01 0.819D-01-0.158D-01
 Coeff-Com: -0.357D+00 0.203D+00 0.108D+01
 Coeff:     -0.108D-03 0.141D-03 0.116D-03-0.683D-04 0.386D-02 0.441D-02
 Coeff:     -0.778D-02-0.150D-01-0.240D-01 0.491D-01 0.819D-01-0.158D-01
 Coeff:     -0.357D+00 0.203D+00 0.108D+01
 Gap=     0.029 Goal=   None    Shift=    0.000
 Gap=     0.045 Goal=   None    Shift=    0.000
 RMSDP=2.69D-06 MaxDP=1.97D-04 DE=-1.59D-08 OVMax= 1.77D-04

 Cycle  16  Pass 1  IDiag  1:
 E= -1136.11273721388     Delta-E=       -0.000000002111 Rises=F Damp=F
 DIIS: error= 3.95D-07 at cycle  16 NSaved=  16.
 NSaved=16 IEnMin=16 EnMin= -1136.11273721388     IErMin=16 ErrMin= 3.95D-07
 ErrMax= 3.95D-07  0.00D+00 EMaxC= 1.00D-01 BMatC= 5.16D-11 BMatP= 1.63D-10
 IDIUse=1 WtCom= 1.00D+00 WtEn= 0.00D+00
 Coeff-Com:  0.959D-05-0.136D-04-0.221D-03-0.781D-04-0.421D-03-0.285D-03
 Coeff-Com:  0.416D-02 0.484D-02-0.118D-01-0.151D-01 0.149D-01 0.854D-01
 Coeff-Com: -0.274D-01-0.264D+00 0.138D+00 0.107D+01
 Coeff:      0.959D-05-0.136D-04-0.221D-03-0.781D-04-0.421D-03-0.285D-03
 Coeff:      0.416D-02 0.484D-02-0.118D-01-0.151D-01 0.149D-01 0.854D-01
 Coeff:     -0.274D-01-0.264D+00 0.138D+00 0.107D+01
 Gap=     0.029 Goal=   None    Shift=    0.000
 Gap=     0.045 Goal=   None    Shift=    0.000
 RMSDP=8.18D-07 MaxDP=4.34D-05 DE=-2.11D-09 OVMax= 6.80D-05

 Cycle  17  Pass 1  IDiag  1:
 E= -1136.11273721447     Delta-E=       -0.000000000591 Rises=F Damp=F
 DIIS: error= 3.79D-07 at cycle  17 NSaved=  17.
 NSaved=17 IEnMin=17 EnMin= -1136.11273721447     IErMin=17 ErrMin= 3.79D-07
 ErrMax= 3.79D-07  0.00D+00 EMaxC= 1.00D-01 BMatC= 2.09D-11 BMatP= 5.16D-11
 IDIUse=1 WtCom= 1.00D+00 WtEn= 0.00D+00
 Coeff-Com:  0.424D-04-0.550D-04-0.712D-04 0.327D-04-0.163D-02-0.113D-02
 Coeff-Com:  0.265D-02 0.565D-02 0.865D-02-0.198D-01-0.296D-01 0.150D-01
 Coeff-Com:  0.122D+00-0.802D-01-0.380D+00-0.580D-01 0.142D+01
 Coeff:      0.424D-04-0.550D-04-0.712D-04 0.327D-04-0.163D-02-0.113D-02
 Coeff:      0.265D-02 0.565D-02 0.865D-02-0.198D-01-0.296D-01 0.150D-01
 Coeff:      0.122D+00-0.802D-01-0.380D+00-0.580D-01 0.142D+01
 Gap=     0.029 Goal=   None    Shift=    0.000
 Gap=     0.045 Goal=   None    Shift=    0.000
 RMSDP=6.01D-07 MaxDP=2.77D-05 DE=-5.91D-10 OVMax= 6.88D-05

 Cycle  18  Pass 1  IDiag  1:
 E= -1136.11273721485     Delta-E=       -0.000000000380 Rises=F Damp=F
 DIIS: error= 2.40D-07 at cycle  18 NSaved=  18.
 NSaved=18 IEnMin=18 EnMin= -1136.11273721485     IErMin=18 ErrMin= 2.40D-07
 ErrMax= 2.40D-07  0.00D+00 EMaxC= 1.00D-01 BMatC= 7.54D-12 BMatP= 2.09D-11
 IDIUse=1 WtCom= 1.00D+00 WtEn= 0.00D+00
 Coeff-Com: -0.242D-04 0.320D-04 0.705D-04-0.185D-05 0.730D-03 0.877D-03
 Coeff-Com: -0.238D-02-0.369D-02-0.710D-03 0.113D-01 0.911D-02-0.239D-01
 Coeff-Com: -0.610D-01 0.128D+00 0.123D+00-0.313D+00-0.603D+00 0.173D+01
 Coeff:     -0.242D-04 0.320D-04 0.705D-04-0.185D-05 0.730D-03 0.877D-03
 Coeff:     -0.238D-02-0.369D-02-0.710D-03 0.113D-01 0.911D-02-0.239D-01
 Coeff:     -0.610D-01 0.128D+00 0.123D+00-0.313D+00-0.603D+00 0.173D+01
 Gap=     0.029 Goal=   None    Shift=    0.000
 Gap=     0.045 Goal=   None    Shift=    0.000
 RMSDP=4.99D-07 MaxDP=2.34D-05 DE=-3.80D-10 OVMax= 5.43D-05

 Cycle  19  Pass 1  IDiag  1:
 E= -1136.11273721507     Delta-E=       -0.000000000219 Rises=F Damp=F
 DIIS: error= 1.49D-07 at cycle  19 NSaved=  19.
 NSaved=19 IEnMin=19 EnMin= -1136.11273721507     IErMin=19 ErrMin= 1.49D-07
 ErrMax= 1.49D-07  0.00D+00 EMaxC= 1.00D-01 BMatC= 3.47D-12 BMatP= 7.54D-12
 IDIUse=1 WtCom= 1.00D+00 WtEn= 0.00D+00
 Coeff-Com: -0.187D-04 0.244D-04 0.418D-04 0.462D-05 0.556D-03 0.600D-03
 Coeff-Com: -0.944D-03-0.242D-02-0.436D-02 0.857D-02 0.142D-01-0.594D-02
 Coeff-Com: -0.602D-01 0.495D-01 0.163D+00-0.199D-01-0.591D+00 0.914D-01
 Coeff-Com:  0.136D+01
 Coeff:     -0.187D-04 0.244D-04 0.418D-04 0.462D-05 0.556D-03 0.600D-03
 Coeff:     -0.944D-03-0.242D-02-0.436D-02 0.857D-02 0.142D-01-0.594D-02
 Coeff:     -0.602D-01 0.495D-01 0.163D+00-0.199D-01-0.591D+00 0.914D-01
 Coeff:      0.136D+01
 Gap=     0.029 Goal=   None    Shift=    0.000
 Gap=     0.045 Goal=   None    Shift=    0.000
 RMSDP=3.94D-07 MaxDP=2.05D-05 DE=-2.19D-10 OVMax= 3.81D-05

 Cycle  20  Pass 1  IDiag  1:
 E= -1136.11273721515     Delta-E=       -0.000000000079 Rises=F Damp=F
 DIIS: error= 8.53D-08 at cycle  20 NSaved=  20.
 NSaved=20 IEnMin=20 EnMin= -1136.11273721515     IErMin=20 ErrMin= 8.53D-08
 ErrMax= 8.53D-08  0.00D+00 EMaxC= 1.00D-01 BMatC= 1.21D-12 BMatP= 3.47D-12
 IDIUse=1 WtCom= 1.00D+00 WtEn= 0.00D+00
 Coeff-Com:  0.108D-04-0.144D-04-0.382D-04 0.302D-05-0.407D-03-0.314D-03
 Coeff-Com:  0.138D-02 0.182D-02-0.102D-02-0.546D-02-0.792D-03 0.127D-01
 Coeff-Com:  0.165D-01-0.552D-01-0.389D-01 0.127D+00 0.313D+00-0.954D+00
 Coeff-Com:  0.963D-01 0.149D+01
 Coeff:      0.108D-04-0.144D-04-0.382D-04 0.302D-05-0.407D-03-0.314D-03
 Coeff:      0.138D-02 0.182D-02-0.102D-02-0.546D-02-0.792D-03 0.127D-01
 Coeff:      0.165D-01-0.552D-01-0.389D-01 0.127D+00 0.313D+00-0.954D+00
 Coeff:      0.963D-01 0.149D+01
 Gap=     0.029 Goal=   None    Shift=    0.000
 Gap=     0.045 Goal=   None    Shift=    0.000
 RMSDP=3.38D-07 MaxDP=1.96D-05 DE=-7.87D-11 OVMax= 3.40D-05

 Cycle  21  Pass 1  IDiag  1:
 E= -1136.11273721518     Delta-E=       -0.000000000038 Rises=F Damp=F
 DIIS: error= 2.14D-08 at cycle  21 NSaved=  20.
 NSaved=20 IEnMin=20 EnMin= -1136.11273721518     IErMin=20 ErrMin= 2.14D-08
 ErrMax= 2.14D-08  0.00D+00 EMaxC= 1.00D-01 BMatC= 1.72D-13 BMatP= 1.21D-12
 IDIUse=1 WtCom= 1.00D+00 WtEn= 0.00D+00
 Coeff-Com:  0.857D-07-0.398D-05-0.545D-05-0.186D-05 0.951D-05-0.154D-04
 Coeff-Com: -0.377D-04 0.316D-03-0.290D-04-0.111D-02 0.254D-03 0.266D-02
 Coeff-Com:  0.311D-02-0.853D-02-0.355D-01 0.448D-01 0.161D+00-0.356D+00
 Coeff-Com: -0.162D+00 0.135D+01
 Coeff:      0.857D-07-0.398D-05-0.545D-05-0.186D-05 0.951D-05-0.154D-04
 Coeff:     -0.377D-04 0.316D-03-0.290D-04-0.111D-02 0.254D-03 0.266D-02
 Coeff:      0.311D-02-0.853D-02-0.355D-01 0.448D-01 0.161D+00-0.356D+00
 Coeff:     -0.162D+00 0.135D+01
 Gap=     0.029 Goal=   None    Shift=    0.000
 Gap=     0.045 Goal=   None    Shift=    0.000
 RMSDP=1.41D-07 MaxDP=1.01D-05 DE=-3.77D-11 OVMax= 1.44D-05

 Cycle  22  Pass 1  IDiag  1:
 E= -1136.11273721518     Delta-E=       -0.000000000000 Rises=F Damp=F
 DIIS: error= 9.52D-09 at cycle  22 NSaved=  20.
 NSaved=20 IEnMin=20 EnMin= -1136.11273721518     IErMin=20 ErrMin= 9.52D-09
 ErrMax= 9.52D-09  0.00D+00 EMaxC= 1.00D-01 BMatC= 2.01D-14 BMatP= 1.72D-13
 IDIUse=1 WtCom= 1.00D+00 WtEn= 0.00D+00
 Coeff-Com:  0.236D-05 0.276D-06 0.255D-06-0.335D-05-0.684D-04-0.455D-04
 Coeff-Com:  0.363D-03 0.672D-04-0.848D-03-0.685D-03 0.147D-02 0.383D-02
 Coeff-Com: -0.456D-02-0.153D-01-0.474D-02 0.113D+00-0.815D-01-0.194D+00
 Coeff-Com:  0.222D+00 0.961D+00
 Coeff:      0.236D-05 0.276D-06 0.255D-06-0.335D-05-0.684D-04-0.455D-04
 Coeff:      0.363D-03 0.672D-04-0.848D-03-0.685D-03 0.147D-02 0.383D-02
 Coeff:     -0.456D-02-0.153D-01-0.474D-02 0.113D+00-0.815D-01-0.194D+00
 Coeff:      0.222D+00 0.961D+00
 Gap=     0.029 Goal=   None    Shift=    0.000
 Gap=     0.045 Goal=   None    Shift=    0.000
 RMSDP=2.70D-08 MaxDP=1.71D-06 DE=-2.27D-13 OVMax= 2.63D-06

 Cycle  23  Pass 1  IDiag  1:
 E= -1136.11273721519     Delta-E=       -0.000000000008 Rises=F Damp=F
 DIIS: error= 2.79D-09 at cycle  23 NSaved=  20.
 NSaved=20 IEnMin=20 EnMin= -1136.11273721519     IErMin=20 ErrMin= 2.79D-09
 ErrMax= 2.79D-09  0.00D+00 EMaxC= 1.00D-01 BMatC= 3.41D-15 BMatP= 2.01D-14
 IDIUse=1 WtCom= 1.00D+00 WtEn= 0.00D+00
 Large coefficients: NSaved= 20 BigCof=    0.00 CofMax=   10.00 Det=-9.62D-15
 Inversion failed.  Reducing to 19 matrices.
 Coeff-Com:  0.272D-06-0.119D-06-0.118D-04 0.735D-05 0.437D-04-0.591D-04
 Coeff-Com:  0.127D-04-0.271D-03 0.166D-04 0.144D-03 0.243D-03 0.313D-02
 Coeff-Com: -0.874D-02-0.185D-02 0.349D-01 0.689D-02-0.175D+00 0.103D+00
 Coeff-Com:  0.104D+01
 Coeff:      0.272D-06-0.119D-06-0.118D-04 0.735D-05 0.437D-04-0.591D-04
 Coeff:      0.127D-04-0.271D-03 0.166D-04 0.144D-03 0.243D-03 0.313D-02
 Coeff:     -0.874D-02-0.185D-02 0.349D-01 0.689D-02-0.175D+00 0.103D+00
 Coeff:      0.104D+01
 Gap=     0.029 Goal=   None    Shift=    0.000
 Gap=     0.045 Goal=   None    Shift=    0.000
 RMSDP=4.83D-09 MaxDP=3.48D-07 DE=-8.41D-12 OVMax= 3.78D-07

 SCF Done:  E(UB3LYP) =  -1136.11273722     A.U. after   23 cycles
            NFock= 23  Conv=0.48D-08     -V/T= 2.0029
 <Sx>= 0.0000 <Sy>= 0.0000 <Sz>= 0.5000 <S**2>= 0.7955 S= 0.5225
 <L.S>= 0.000000000000E+00
 KE= 1.132790546946D+03 PE=-3.286033535848D+03 EE= 7.385954023611D+02
 Annihilation of the first spin contaminant:
 S**2 before annihilation     0.7955,   after     0.7509
 Leave Link  502 at Sun Dec  3 12:34:54 2023, MaxMem=  1879048192 cpu:             201.7 elap:              18.3
 (Enter /home/sekinelabo/g16/l601.exe)
 Copying SCF densities to generalized density rwf, IOpCl= 1 IROHF=0.

 **********************************************************************

            Population analysis using the SCF Density.

 **********************************************************************

 Orbital symmetries:
 Alpha Orbitals:
       Occupied  (A) (A) (A) (A) (A) (A) (A) (A) (A) (A) (A) (A)
                 (A) (A) (A) (A) (A) (A) (A) (A) (A) (A) (A) (A)
                 (A) (A) (A) (A) (A) (A) (A) (A) (A) (A) (A) (A)
                 (A) (A) (A)
       Virtual   (A) (A) (A) (A) (A) (A) (A) (A) (A) (A) (A) (A)
                 (A) (A) (A) (A) (A) (A) (A) (A) (A) (A) (A) (A)
                 (A) (A) (A) (A) (A) (A) (A) (A) (A) (A) (A) (A)
                 (A) (A) (A) (A) (A) (A) (A) (A) (A) (A) (A) (A)
                 (A) (A) (A) (A) (A) (A) (A) (A) (A) (A) (A) (A)
                 (A) (A) (A) (A) (A) (A) (A) (A) (A) (A) (A) (A)
                 (A) (A) (A) (A) (A) (A) (A) (A) (A) (A) (A) (A)
                 (A) (A) (A) (A) (A) (A) (A) (A) (A) (A) (A) (A)
                 (A) (A) (A) (A) (A) (A) (A) (A) (A) (A) (A) (A)
                 (A) (A) (A) (A) (A) (A) (A) (A) (A) (A) (A) (A)
                 (A) (A) (A) (A) (A) (A) (A) (A) (A) (A) (A) (A)
                 (A) (A) (A) (A) (A) (A) (A) (A) (A) (A) (A) (A)
                 (A) (A) (A) (A) (A) (A) (A) (A) (A) (A) (A) (A)
                 (A) (A) (A) (A) (A) (A) (A) (A) (A) (A) (A) (A)
                 (A) (A) (A)
 Beta  Orbitals:
       Occupied  (A) (A) (A) (A) (A) (A) (A) (A) (A) (A) (A) (A)
                 (A) (A) (A) (A) (A) (A) (A) (A) (A) (A) (A) (A)
                 (A) (A) (A) (A) (A) (A) (A) (A) (A) (A) (A) (A)
                 (A) (A)
       Virtual   (A) (A) (A) (A) (A) (A) (A) (A) (A) (A) (A) (A)
                 (A) (A) (A) (A) (A) (A) (A) (A) (A) (A) (A) (A)
                 (A) (A) (A) (A) (A) (A) (A) (A) (A) (A) (A) (A)
                 (A) (A) (A) (A) (A) (A) (A) (A) (A) (A) (A) (A)
                 (A) (A) (A) (A) (A) (A) (A) (A) (A) (A) (A) (A)
                 (A) (A) (A) (A) (A) (A) (A) (A) (A) (A) (A) (A)
                 (A) (A) (A) (A) (A) (A) (A) (A) (A) (A) (A) (A)
                 (A) (A) (A) (A) (A) (A) (A) (A) (A) (A) (A) (A)
                 (A) (A) (A) (A) (A) (A) (A) (A) (A) (A) (A) (A)
                 (A) (A) (A) (A) (A) (A) (A) (A) (A) (A) (A) (A)
                 (A) (A) (A) (A) (A) (A) (A) (A) (A) (A) (A) (A)
                 (A) (A) (A) (A) (A) (A) (A) (A) (A) (A) (A) (A)
                 (A) (A) (A) (A) (A) (A) (A) (A) (A) (A) (A) (A)
                 (A) (A) (A) (A) (A) (A) (A) (A) (A) (A) (A) (A)
                 (A) (A) (A) (A)
 The electronic state is 2-A.
 Alpha  occ. eigenvalues --  -38.45289 -38.44584 -38.44511 -38.44331 -38.44128
 Alpha  occ. eigenvalues --  -38.44053 -38.43555  -2.21034  -2.20339  -2.20293
 Alpha  occ. eigenvalues --   -2.20136  -2.19937  -2.19859  -2.19353  -1.14720
 Alpha  occ. eigenvalues --   -1.14699  -1.14684  -1.14020  -1.14002  -1.13992
 Alpha  occ. eigenvalues --   -1.13959  -1.13935  -1.13898  -1.13824  -1.13805
 Alpha  occ. eigenvalues --   -1.13771  -1.13588  -1.13584  -1.13554  -1.13550
 Alpha  occ. eigenvalues --   -1.13492  -1.13470  -1.13026  -1.13006  -1.13003
 Alpha  occ. eigenvalues --   -0.16402  -0.13993  -0.11928  -0.10541
 Alpha virt. eigenvalues --   -0.07627  -0.05229  -0.04679  -0.03617  -0.03220
 Alpha virt. eigenvalues --   -0.02478  -0.02165  -0.01183  -0.01030  -0.00971
 Alpha virt. eigenvalues --   -0.00678  -0.00244   0.00281   0.00468   0.00510
 Alpha virt. eigenvalues --    0.00671   0.00778   0.01065   0.01126   0.01288
 Alpha virt. eigenvalues --    0.01316   0.01424   0.01503   0.01687   0.01781
 Alpha virt. eigenvalues --    0.01876   0.02034   0.02139   0.02211   0.02373
 Alpha virt. eigenvalues --    0.02474   0.02607   0.02749   0.02848   0.02956
 Alpha virt. eigenvalues --    0.03092   0.03212   0.03276   0.03371   0.03493
 Alpha virt. eigenvalues --    0.03542   0.03708   0.03874   0.03906   0.04118
 Alpha virt. eigenvalues --    0.04515   0.04728   0.04743   0.05007   0.05461
 Alpha virt. eigenvalues --    0.05883   0.06115   0.06563   0.06856   0.07178
 Alpha virt. eigenvalues --    0.07308   0.07453   0.07656   0.08026   0.08186
 Alpha virt. eigenvalues --    0.08774   0.09201   0.09214   0.09620   0.10069
 Alpha virt. eigenvalues --    0.10227   0.10623   0.11070   0.11425   0.11707
 Alpha virt. eigenvalues --    0.11729   0.12507   0.12702   0.13005   0.13525
 Alpha virt. eigenvalues --    0.13958   0.14021   0.14768   0.16047   0.16619
 Alpha virt. eigenvalues --    0.27235   0.28161   0.28541   0.29668   0.29804
 Alpha virt. eigenvalues --    0.30540   0.30651   0.31000   0.31800   0.32456
 Alpha virt. eigenvalues --    0.32689   0.33523   0.34004   0.35038   0.35268
 Alpha virt. eigenvalues --    0.36801   0.37420   0.38579   0.39743   0.40506
 Alpha virt. eigenvalues --    0.40950   0.41646   0.41940   0.42249   0.42573
 Alpha virt. eigenvalues --    0.43122   0.43383   0.43564   0.43760   0.43833
 Alpha virt. eigenvalues --    0.44487   0.44619   0.44972   0.45262   0.45631
 Alpha virt. eigenvalues --    0.45721   0.46320   0.47104   0.47414   0.47689
 Alpha virt. eigenvalues --    0.48720   0.48995   0.49611   0.50220   0.50686
 Alpha virt. eigenvalues --    0.51307   0.52143   0.53133   0.53561   0.54688
 Alpha virt. eigenvalues --    0.55692   0.56191   0.56619   0.59103   0.61773
 Alpha virt. eigenvalues --    0.65956   2.01960   2.06461   2.08973   2.10222
 Alpha virt. eigenvalues --    2.13073   2.15997   2.17507   4.43050   4.43361
 Alpha virt. eigenvalues --    4.44272   4.44647   4.44790   4.44927   4.45288
 Alpha virt. eigenvalues --    4.45325   4.45555   4.45909   4.46357   4.46780
 Alpha virt. eigenvalues --    4.46943   4.47820   4.48003   4.48799   4.49390
 Alpha virt. eigenvalues --    4.52102   4.52238   4.53393   4.58991  96.21272
 Alpha virt. eigenvalues --   96.26569  96.29262  96.30764  96.34527  96.38009
 Alpha virt. eigenvalues --   96.40029
  Beta  occ. eigenvalues --  -38.45305 -38.44597 -38.44439 -38.44326 -38.44059
  Beta  occ. eigenvalues --  -38.43981 -38.43550  -2.21069  -2.20365  -2.20157
  Beta  occ. eigenvalues --   -2.20129  -2.19808  -2.19726  -2.19346  -1.14748
  Beta  occ. eigenvalues --   -1.14716  -1.14688  -1.14040  -1.14013  -1.13996
  Beta  occ. eigenvalues --   -1.13867  -1.13841  -1.13822  -1.13810  -1.13786
  Beta  occ. eigenvalues --   -1.13762  -1.13499  -1.13495  -1.13474  -1.13460
  Beta  occ. eigenvalues --   -1.13399  -1.13380  -1.13023  -1.13003  -1.12986
  Beta  occ. eigenvalues --   -0.15801  -0.13425  -0.11835
  Beta virt. eigenvalues --   -0.07339  -0.07145  -0.05023  -0.03953  -0.03443
  Beta virt. eigenvalues --   -0.02826  -0.02443  -0.01825  -0.01044  -0.00684
  Beta virt. eigenvalues --   -0.00565  -0.00469  -0.00203   0.00390   0.00587
  Beta virt. eigenvalues --    0.00617   0.00725   0.00919   0.01174   0.01249
  Beta virt. eigenvalues --    0.01321   0.01415   0.01511   0.01632   0.01791
  Beta virt. eigenvalues --    0.01881   0.01954   0.02149   0.02177   0.02272
  Beta virt. eigenvalues --    0.02443   0.02562   0.02684   0.02806   0.02961
  Beta virt. eigenvalues --    0.03062   0.03127   0.03302   0.03346   0.03427
  Beta virt. eigenvalues --    0.03553   0.03593   0.03809   0.03911   0.04075
  Beta virt. eigenvalues --    0.04241   0.04576   0.04858   0.04891   0.05064
  Beta virt. eigenvalues --    0.05525   0.05950   0.06151   0.06616   0.06967
  Beta virt. eigenvalues --    0.07258   0.07442   0.07535   0.07790   0.08051
  Beta virt. eigenvalues --    0.08243   0.08857   0.09367   0.09387   0.09818
  Beta virt. eigenvalues --    0.10385   0.10405   0.10822   0.11230   0.11737
  Beta virt. eigenvalues --    0.11931   0.11983   0.12627   0.12880   0.13269
  Beta virt. eigenvalues --    0.13662   0.14007   0.14180   0.14958   0.16176
  Beta virt. eigenvalues --    0.16710   0.27505   0.28525   0.28938   0.29956
  Beta virt. eigenvalues --    0.30156   0.30721   0.30844   0.31292   0.32053
  Beta virt. eigenvalues --    0.32691   0.32881   0.33714   0.34266   0.35338
  Beta virt. eigenvalues --    0.35581   0.36950   0.37619   0.38894   0.39950
  Beta virt. eigenvalues --    0.40673   0.41210   0.41785   0.42215   0.42433
  Beta virt. eigenvalues --    0.42768   0.43308   0.43548   0.43731   0.43893
  Beta virt. eigenvalues --    0.44027   0.44547   0.44788   0.45151   0.45378
  Beta virt. eigenvalues --    0.45794   0.45944   0.46401   0.47210   0.47491
  Beta virt. eigenvalues --    0.47784   0.48981   0.49119   0.49720   0.50222
  Beta virt. eigenvalues --    0.50826   0.51457   0.52274   0.53298   0.53730
  Beta virt. eigenvalues --    0.54987   0.55859   0.56398   0.56851   0.59344
  Beta virt. eigenvalues --    0.61960   0.65938   2.02076   2.06594   2.08965
  Beta virt. eigenvalues --    2.10548   2.13125   2.16108   2.17600   4.43075
  Beta virt. eigenvalues --    4.43374   4.44250   4.44662   4.44819   4.45011
  Beta virt. eigenvalues --    4.45346   4.45404   4.45557   4.45953   4.46406
  Beta virt. eigenvalues --    4.46899   4.47016   4.47845   4.48024   4.48846
  Beta virt. eigenvalues --    4.49414   4.52172   4.52291   4.53488   4.59001
  Beta virt. eigenvalues --   96.21310  96.26612  96.29265  96.30864  96.34547
  Beta virt. eigenvalues --   96.38045  96.40056
          Condensed to atoms (all electrons):
               1          2          3          4          5          6
     1  Na  10.846916   0.010393  -0.172376  -0.011571   0.393007  -0.092711
     2  Na   0.010393  10.689751   0.043576   0.141639  -0.062042  -0.001681
     3  Na  -0.172376   0.043576  10.911392   0.026355  -0.417621   0.217563
     4  Na  -0.011571   0.141639   0.026355  11.062082  -0.260631  -0.061357
     5  Na   0.393007  -0.062042  -0.417621  -0.260631  12.526526  -0.149540
     6  Na  -0.092711  -0.001681   0.217563  -0.061357  -0.149540  10.715742
     7  Na   0.039027   0.063668  -0.096938  -0.129226   0.163522   0.137879
               7
     1  Na   0.039027
     2  Na   0.063668
     3  Na  -0.096938
     4  Na  -0.129226
     5  Na   0.163522
     6  Na   0.137879
     7  Na  10.685716
          Atomic-Atomic Spin Densities.
               1          2          3          4          5          6
     1  Na   0.436614   0.053105  -0.010987   0.006395  -0.058579  -0.016672
     2  Na   0.053105   0.097127  -0.006792  -0.097280  -0.076823   0.008463
     3  Na  -0.010987  -0.006792  -0.145859   0.008065   0.170455  -0.054484
     4  Na   0.006395  -0.097280   0.008065   0.130183  -0.022320   0.008317
     5  Na  -0.058579  -0.076823   0.170455  -0.022320   0.274245   0.092590
     6  Na  -0.016672   0.008463  -0.054484   0.008317   0.092590  -0.154218
     7  Na   0.000134   0.113686   0.030971  -0.056745  -0.107405   0.040471
               7
     1  Na   0.000134
     2  Na   0.113686
     3  Na   0.030971
     4  Na  -0.056745
     5  Na  -0.107405
     6  Na   0.040471
     7  Na   0.312782
 Mulliken charges and spin densities:
               1          2
     1  Na  -0.012686   0.410010
     2  Na   0.114695   0.091485
     3  Na   0.488049  -0.008631
     4  Na   0.232708  -0.023387
     5  Na  -1.193222   0.272162
     6  Na   0.234105  -0.075533
     7  Na   0.136351   0.333893
 Sum of Mulliken charges =  -0.00000   1.00000
 Mulliken charges and spin densities with hydrogens summed into heavy atoms:
               1          2
     1  Na  -0.012686   0.410010
     2  Na   0.114695   0.091485
     3  Na   0.488049  -0.008631
     4  Na   0.232708  -0.023387
     5  Na  -1.193222   0.272162
     6  Na   0.234105  -0.075533
     7  Na   0.136351   0.333893
 Electronic spatial extent (au):  <R**2>=           3903.3741
 Charge=             -0.0000 electrons
 Dipole moment (field-independent basis, Debye):
    X=              0.0662    Y=             -0.6568    Z=              0.2589  Tot=              0.7091
 Quadrupole moment (field-independent basis, Debye-Ang):
   XX=            -66.1187   YY=            -67.7994   ZZ=            -67.0547
   XY=              3.7071   XZ=             -1.4013   YZ=             -1.1986
 Traceless Quadrupole moment (field-independent basis, Debye-Ang):
   XX=              0.8722   YY=             -0.8085   ZZ=             -0.0638
   XY=              3.7071   XZ=             -1.4013   YZ=             -1.1986
 Octapole moment (field-independent basis, Debye-Ang**2):
  XXX=             -9.5629  YYY=            -20.8791  ZZZ=              5.1996  XYY=            -20.0713
  XXY=             -5.0341  XXZ=            -18.7418  XZZ=             11.1335  YZZ=             -5.6895
  YYZ=             10.0667  XYZ=            -25.0630
 Hexadecapole moment (field-independent basis, Debye-Ang**3):
 XXXX=          -4369.3749 YYYY=          -1766.0396 ZZZZ=           -501.2699 XXXY=            139.1070
 XXXZ=            -65.7636 YYYX=             73.3079 YYYZ=             -7.1484 ZZZX=              9.7776
 ZZZY=            -23.2499 XXYY=           -919.5041 XXZZ=           -820.0057 YYZZ=           -357.8475
 XXYZ=             13.8004 YYXZ=             31.1684 ZZXY=             -4.1695
 N-N= 2.785348493254D+02 E-N=-3.286033535767D+03  KE= 1.132790546946D+03
                          Isotropic Fermi Contact Couplings
        Atom                 a.u.       MegaHertz       Gauss      10(-4) cm-1
     1  Na(23)             0.31187     368.94584     131.64905     123.06709
     2  Na(23)            -0.00485      -5.73368      -2.04592      -1.91255
     3  Na(23)            -0.08445     -99.90776     -35.64957     -33.32564
     4  Na(23)            -0.00186      -2.20357      -0.78629      -0.73503
     5  Na(23)             0.30217     357.47625     127.55641     119.24124
     6  Na(23)            -0.11458    -135.54938     -48.36739     -45.21441
     7  Na(23)             0.30387     359.49129     128.27543     119.91339
 --------------------------------------------------------
       Center         ----  Spin Dipole Couplings  ----
                      3XX-RR        3YY-RR        3ZZ-RR
 --------------------------------------------------------
     1   Atom        0.002359     -0.001526     -0.000833
     2   Atom        0.020896     -0.009068     -0.011828
     3   Atom        0.012045     -0.002515     -0.009531
     4   Atom        0.010620     -0.003810     -0.006809
     5   Atom       -0.007151      0.009538     -0.002386
     6   Atom        0.029981     -0.015065     -0.014915
     7   Atom       -0.001470      0.000614      0.000856
 --------------------------------------------------------
                        XY            XZ            YZ
 --------------------------------------------------------
     1   Atom        0.003169      0.000671     -0.001105
     2   Atom        0.006886     -0.000916     -0.000142
     3   Atom       -0.012871     -0.006248      0.004912
     4   Atom       -0.005650     -0.005779      0.002988
     5   Atom       -0.000200     -0.000661     -0.000826
     6   Atom        0.007279      0.005203     -0.000669
     7   Atom       -0.004101      0.004639      0.003093
 --------------------------------------------------------


 ---------------------------------------------------------------------------------
              Anisotropic Spin Dipole Couplings in Principal Axis System
 ---------------------------------------------------------------------------------

       Atom             a.u.   MegaHertz   Gauss  10(-4) cm-1        Axes

              Baa    -0.0039    -0.544    -0.194    -0.181 -0.4511  0.8011  0.3933
     1 Na(23) Bbb    -0.0003    -0.040    -0.014    -0.013  0.1839 -0.3478  0.9194
              Bcc     0.0041     0.584     0.208     0.195  0.8733  0.4870  0.0096
 
              Baa    -0.0119    -1.674    -0.597    -0.558  0.0359 -0.0380  0.9986
     2 Na(23) Bbb    -0.0106    -1.493    -0.533    -0.498 -0.2123  0.9762  0.0447
              Bcc     0.0224     3.167     1.130     1.056  0.9765  0.2136 -0.0270
 
              Baa    -0.0121    -1.705    -0.608    -0.569 -0.0465 -0.5053  0.8617
     3 Na(23) Bbb    -0.0095    -1.338    -0.477    -0.446  0.5514  0.7063  0.4440
              Bcc     0.0215     3.043     1.086     1.015  0.8330 -0.4957 -0.2458
 
              Baa    -0.0090    -1.271    -0.454    -0.424  0.1731 -0.3429  0.9233
     4 Na(23) Bbb    -0.0055    -0.778    -0.278    -0.260  0.3992  0.8814  0.2525
              Bcc     0.0145     2.050     0.731     0.684  0.9004 -0.3248 -0.2895
 
              Baa    -0.0072    -1.023    -0.365    -0.341  0.9903  0.0186  0.1378
     5 Na(23) Bbb    -0.0023    -0.332    -0.118    -0.111 -0.1388  0.0664  0.9881
              Bcc     0.0096     1.355     0.484     0.452 -0.0092  0.9976 -0.0683
 
              Baa    -0.0173    -2.450    -0.874    -0.817 -0.1856  0.7709  0.6093
     6 Na(23) Bbb    -0.0143    -2.023    -0.722    -0.675  0.0094 -0.6187  0.7856
              Bcc     0.0317     4.473     1.596     1.492  0.9826  0.1515  0.1076
 
              Baa    -0.0081    -1.146    -0.409    -0.382  0.6815  0.5073 -0.5275
     7 Na(23) Bbb     0.0036     0.513     0.183     0.171 -0.3460  0.8585  0.3786
              Bcc     0.0045     0.633     0.226     0.211  0.6449 -0.0755  0.7606
 

 ---------------------------------------------------------------------------------

 No NMR shielding tensors so no spin-rotation constants.
 Leave Link  601 at Sun Dec  3 12:34:55 2023, MaxMem=  1879048192 cpu:               2.3 elap:               0.2
 (Enter /home/sekinelabo/g16/l701.exe)
 ... and contract with generalized density number  0.
 Compute integral first derivatives.
 Leave Link  701 at Sun Dec  3 12:34:55 2023, MaxMem=  1879048192 cpu:               1.5 elap:               0.1
 (Enter /home/sekinelabo/g16/l702.exe)
 L702 exits ... SP integral derivatives will be done elsewhere.
 Leave Link  702 at Sun Dec  3 12:34:55 2023, MaxMem=  1879048192 cpu:               0.5 elap:               0.0
 (Enter /home/sekinelabo/g16/l703.exe)
 Integral derivatives from FoFJK, PRISM(SPDF).
 Compute integral first derivatives, UseDBF=F ICtDFT=           0.
 Calling FoFJK, ICntrl=      2127 FMM=F ISym2X=0 I1Cent= 0 IOpClX= 1 NMat=1 NMatS=1 NMatT=0.
 FoFJK:  IHMeth= 1 ICntrl=    2127 DoSepK=F KAlg= 0 I1Cent=           0 FoldK=F
 IRaf=         0 NMat=       1 IRICut=       1 DoRegI=T DoRafI=F ISym2E= 0 IDoP0=0 IntGTp=1.
 FoFCou: FMM=F IPFlag=           0 FMFlag=      100000 FMFlg1=         800
         NFxFlg=           0 DoJE=F BraDBF=F KetDBF=F FulRan=T
         wScrn=  0.000000 ICntrl=      2127 IOpCl=  1 I1Cent=           0 NGrid=           0
         NMat0=    1 NMatS0=      1 NMatT0=    0 NMatD0=    1 NMtDS0=    0 NMtDT0=    0
 Symmetry not used in FoFCou.
 Leave Link  703 at Sun Dec  3 12:34:57 2023, MaxMem=  1879048192 cpu:              29.4 elap:               2.0
 (Enter /home/sekinelabo/g16/l716.exe)
 Dipole        = 2.60405543D-02-2.58400424D-01 1.01874132D-01
 ***** Axes restored to original set *****
 -------------------------------------------------------------------
 Center     Atomic                   Forces (Hartrees/Bohr)
 Number     Number              X              Y              Z
 -------------------------------------------------------------------
      1       11          -0.002063404    0.001547617    0.002738242
      2       11          -0.001571340   -0.002002377    0.000824706
      3       11          -0.000530265    0.001460104   -0.003549461
      4       11           0.001205054   -0.000639056    0.001598717
      5       11           0.000366453   -0.001499473   -0.002275278
      6       11           0.003171477    0.002947766    0.000203119
      7       11          -0.000577974   -0.001814581    0.000459956
 -------------------------------------------------------------------
 Cartesian Forces:  Max     0.003549461 RMS     0.001837758
 Z-matrix is all fixed cartesians, so copy forces.
 Force constants in Cartesian coordinates: 
                1             2             3             4             5 
      1  0.144436D-01
      2 -0.124112D-01  0.175124D-01
      3 -0.836040D-02  0.226327D-03  0.263482D-01
      4  0.445855D-03  0.105042D-02  0.122763D-02  0.419609D-01
      5  0.675460D-03 -0.645079D-03 -0.157836D-02 -0.301219D-02  0.542439D-01
      6 -0.948876D-03  0.245751D-02  0.459970D-02 -0.122305D-01 -0.276623D-02
      7 -0.599146D-02  0.325864D-02  0.699042D-02  0.384704D-02 -0.755308D-03
      8  0.622510D-02 -0.745443D-02 -0.125702D-02  0.105018D-02  0.334941D-03
      9  0.967281D-03  0.610364D-02 -0.151605D-01 -0.269964D-02  0.164756D-02
     10 -0.651846D-02  0.508711D-02 -0.179478D-02 -0.151628D-01  0.146715D-03
     11  0.295040D-02 -0.826805D-02  0.516268D-02  0.766042D-02 -0.273883D-01
     12  0.583022D-02 -0.531027D-02 -0.172291D-01  0.126992D-02  0.429110D-02
     13 -0.235955D-02  0.302685D-02  0.193814D-02 -0.167407D-01  0.325053D-02
     14  0.248625D-02 -0.119965D-02 -0.257418D-02  0.387072D-02 -0.123067D-01
     15  0.253139D-02 -0.347727D-02  0.142349D-02  0.394929D-02 -0.225489D-02
     16 -0.228298D-05 -0.181625D-05  0.000000D+00 -0.174944D-02 -0.492574D-02
     17  0.519245D-04  0.423086D-04  0.204907D-04 -0.336841D-02  0.647861D-03
     18  0.457791D-04  0.370531D-04  0.184026D-04  0.357046D-02  0.247548D-02
     19 -0.177391D-04 -0.100328D-04  0.000000D+00 -0.126008D-01  0.462053D-02
     20  0.220287D-04  0.124589D-04  0.000000D+00 -0.725114D-02 -0.148866D-01
     21 -0.653880D-04 -0.369818D-04  0.000000D+00  0.491286D-02 -0.181466D-02
                6             7             8             9            10 
      6  0.325800D-01
      7 -0.991044D-03  0.164888D-01
      8  0.323805D-03 -0.560589D-02  0.180188D-01
      9  0.192190D-02 -0.594363D-02 -0.925729D-02  0.305851D-01
     10  0.636696D-02  0.343348D-02 -0.205403D-02 -0.185412D-02  0.273872D-01
     11 -0.126375D-01 -0.202458D-02  0.176596D-02  0.317802D-02 -0.119641D-01
     12 -0.216811D-01 -0.188014D-02  0.330514D-02 -0.128749D-02 -0.623986D-02
     13  0.432707D-02 -0.185246D-01 -0.266455D-04  0.962651D-02 -0.100990D-01
     14  0.942588D-02  0.988044D-03 -0.152317D-01 -0.172873D-02  0.438086D-02
     15 -0.121254D-01  0.330309D-02  0.744152D-02 -0.167827D-01 -0.212430D-02
     16  0.129217D-02  0.727247D-03  0.392664D-03 -0.110208D-03 -0.791739D-03
     17  0.781289D-04  0.411238D-02  0.252614D-02  0.745726D-05 -0.264620D-03
     18  0.154910D-03 -0.150036D-02 -0.616425D-03  0.626854D-03  0.423786D-02
     19  0.218424D-02  0.194347D-04  0.186150D-04  0.138077D-04  0.175127D-02
     20  0.311843D-02  0.267134D-04  0.403129D-04  0.493556D-04  0.466808D-02
     21 -0.545004D-02  0.216637D-04  0.602608D-04  0.968927D-04  0.140824D-02
               11            12            13            14            15 
     11  0.376882D-01
     12  0.980402D-03  0.523563D-01
     13  0.227250D-02  0.131390D-02  0.597658D-01
     14 -0.673458D-02 -0.282658D-02 -0.106261D-01  0.507780D-01
     15  0.309606D-02 -0.137242D-01 -0.798693D-02 -0.853633D-02  0.512645D-01
     16  0.103104D-03 -0.288541D-03 -0.125828D-01 -0.632898D-02  0.128644D-02
     17  0.130957D-03 -0.944667D-04 -0.116742D-02 -0.144019D-01  0.481965D-02
     18 -0.419697D-03  0.133338D-02 -0.631327D-02  0.458783D-02 -0.109091D-01
     19  0.100227D-02 -0.549886D-05  0.540841D-03  0.522922D-02 -0.958983D-03
     20  0.280584D-02 -0.345324D-03  0.327031D-02 -0.903493D-03 -0.108874D-02
     21  0.640061D-03  0.232232D-03 -0.290543D-02  0.165212D-02  0.853428D-03
               16            17            18            19            20 
     16  0.255105D-01
     17  0.608662D-02  0.316631D-01
     18 -0.202943D-02 -0.826561D-02  0.103116D-01
     19 -0.111115D-01 -0.545047D-02  0.198895D-02  0.214185D-01
     20  0.467415D-02 -0.206085D-01  0.220137D-02 -0.541013D-02  0.335400D-01
     21 -0.149472D-03  0.343435D-02 -0.153601D-02 -0.322247D-02 -0.393515D-02
               21 
     21  0.580367D-02
 Leave Link  716 at Sun Dec  3 12:34:57 2023, MaxMem=  1879048192 cpu:               0.4 elap:               0.0
 (Enter /home/sekinelabo/g16/l103.exe)

 GradGradGradGradGradGradGradGradGradGradGradGradGradGradGradGradGradGrad
 Berny optimization.
 Search for a local minimum.
 Step number   1 out of a maximum of    2
 All quantities printed in internal units (Hartrees-Bohrs-Radians)
 Second derivative matrix not updated -- first step.
 ITU=  0
     Eigenvalues ---    0.00293   0.00559   0.01290   0.01683   0.02201
     Eigenvalues ---    0.03153   0.03606   0.03762   0.04373   0.05187
     Eigenvalues ---    0.05321   0.07775   0.08183   0.08867   0.09524
 Quadratic step=3.484D-01 exceeds max=3.000D-01 adjusted using Lamda=-1.963D-03.
 Angle between NR and scaled steps=   7.22 degrees.
 Angle between quadratic step and forces=  30.56 degrees.
 Linear search not attempted -- first point.
 B after Tr=    -0.000000    0.000000    0.000000
         Rot=    1.000000    0.000000   -0.000000   -0.000000 Ang=   0.00 deg.
 Variable       Old X    -DE/DX   Delta X   Delta X   Delta X     New X
                                 (Linear)    (Quad)   (Total)
    X1       31.12700  -0.00206   0.00000  -0.03965  -0.03965  31.08736
    Y1       19.58380   0.00155   0.00000   0.10888   0.10888  19.69268
    Z1       23.86082   0.00274   0.00000   0.08222   0.08222  23.94304
    X2       25.23843  -0.00157   0.00000  -0.03004  -0.03004  25.20839
    Y2       30.00148  -0.00200   0.00000  -0.07199  -0.07199  29.92949
    Z2       22.62342   0.00082   0.00000  -0.01011  -0.01011  22.61331
    X3       28.81492  -0.00053   0.00000  -0.10693  -0.10693  28.70800
    Y3       19.27672   0.00146   0.00000   0.04982   0.04982  19.32654
    Z3       30.21578  -0.00355   0.00000  -0.12470  -0.12470  30.09108
    X4       27.99006   0.00121   0.00000   0.01533   0.01533  28.00538
    Y4       25.14791  -0.00064   0.00000  -0.03663  -0.03663  25.11128
    Z4       20.24180   0.00160   0.00000   0.04695   0.04695  20.28875
    X5       25.50809   0.00037   0.00000   0.00735   0.00735  25.51544
    Y5       24.66773  -0.00150   0.00000  -0.01553  -0.01553  24.65220
    Z5       27.60228  -0.00228   0.00000  -0.06598  -0.06598  27.53630
    X6       18.45361   0.00317   0.00000   0.12512   0.12512  18.57873
    Y6       25.45934   0.00295   0.00000   0.04046   0.04046  25.49980
    Z6       26.35261   0.00020   0.00000   0.03682   0.03682  26.38943
    X7       18.73493  -0.00058   0.00000   0.02882   0.02882  18.76375
    Y7       31.73001  -0.00181   0.00000  -0.07502  -0.07502  31.65500
    Z7       24.97009   0.00046   0.00000   0.03481   0.03481  25.00489
         Item               Value     Threshold  Converged?
 Maximum Force            0.003549     0.000450     NO 
 RMS     Force            0.001838     0.000300     NO 
 Maximum Displacement     0.125121     0.001800     NO 
 RMS     Displacement     0.065679     0.001200     NO 
 Predicted change in Energy=-1.180239D-03
 GradGradGradGradGradGradGradGradGradGradGradGradGradGradGradGradGradGrad

 Leave Link  103 at Sun Dec  3 12:34:57 2023, MaxMem=  1879048192 cpu:               0.2 elap:               0.0
 (Enter /home/sekinelabo/g16/l9999.exe)
 1\1\GINC-SEKINELABO-XA7R-R37\Force\UB3LYP\6-311+G(d)\Na7(2)\SEKINELABO
 \03-Dec-2023\0\\#P B3LYP/6-311+g(d) force\\DPGEN\\0,2\Na,16.4717,10.36
 33,12.6266\Na,13.3556,15.8761,11.9718\Na,15.2482,10.2008,15.9895\Na,14
 .8117,13.3077,10.7115\Na,13.4983,13.0536,14.6065\Na,9.76523,13.4725,13
 .9452\Na,9.9141,16.7908,13.2136\\Version=ES64L-G16RevB.01\State=2-A\HF
 =-1136.1127372\S2=0.795476\S2-1=0.\S2A=0.75089\RMSD=4.832e-09\RMSF=1.8
 38e-03\Dipole=-0.1927633,-0.1352766,0.1495653\Quadrupole=-1.9807991,2.
 8522871,-0.871488,0.1295761,1.0858965,-1.5042482\PG=C01 [X(Na7)]\\@


 SACRED COWS MAKE GREAT HAMBURGERS -- ROBERT REISNER
 Job cpu time:       0 days  0 hours  4 minutes  7.0 seconds.
 Elapsed time:       0 days  0 hours  0 minutes 21.3 seconds.
 File lengths (MBytes):  RWF=     32 Int=      0 D2E=      0 Chk=      4 Scr=      1
 Normal termination of Gaussian 16 at Sun Dec  3 12:34:57 2023.
