 Set GAUSS_MDEF to "14GB".
 Entering Gaussian System, Link 0=g16
 Initial command:
 /home/sekinelabo/g16/l1.exe "/home/sekinelabo/g16temp/Gau-428773.inp" -scrdir="/home/sekinelabo/g16temp/"
 Entering Link 1 = /home/sekinelabo/g16/l1.exe PID=    428775.
  
 Copyright (c) 1988-2017, Gaussian, Inc.  All Rights Reserved.
  
 This is part of the Gaussian(R) 16 program.  It is based on
 the Gaussian(R) 09 system (copyright 2009, Gaussian, Inc.),
 the Gaussian(R) 03 system (copyright 2003, Gaussian, Inc.),
 the Gaussian(R) 98 system (copyright 1998, Gaussian, Inc.),
 the Gaussian(R) 94 system (copyright 1995, Gaussian, Inc.),
 the Gaussian 92(TM) system (copyright 1992, Gaussian, Inc.),
 the Gaussian 90(TM) system (copyright 1990, Gaussian, Inc.),
 the Gaussian 88(TM) system (copyright 1988, Gaussian, Inc.),
 the Gaussian 86(TM) system (copyright 1986, Carnegie Mellon
 University), and the Gaussian 82(TM) system (copyright 1983,
 Carnegie Mellon University). Gaussian is a federally registered
 trademark of Gaussian, Inc.
  
 This software contains proprietary and confidential information,
 including trade secrets, belonging to Gaussian, Inc.
  
 This software is provided under written license and may be
 used, copied, transmitted, or stored only in accord with that
 written license.
  
 The following legend is applicable only to US Government
 contracts under FAR:
  
                    RESTRICTED RIGHTS LEGEND
  
 Use, reproduction and disclosure by the US Government is
 subject to restrictions as set forth in subparagraphs (a)
 and (c) of the Commercial Computer Software - Restricted
 Rights clause in FAR 52.227-19.
  
 Gaussian, Inc.
 340 Quinnipiac St., Bldg. 40, Wallingford CT 06492
  
  
 ---------------------------------------------------------------
 Warning -- This program may not be used in any manner that
 competes with the business of Gaussian, Inc. or will provide
 assistance to any competitor of Gaussian, Inc.  The licensee
 of this program is prohibited from giving any competitor of
 Gaussian, Inc. access to this program.  By using this program,
 the user acknowledges that Gaussian, Inc. is engaged in the
 business of creating and licensing software in the field of
 computational chemistry and represents and warrants to the
 licensee that it is not a competitor of Gaussian, Inc. and that
 it will not use this program in any manner prohibited above.
 ---------------------------------------------------------------
  

 Cite this work as:
 Gaussian 16, Revision B.01,
 M. J. Frisch, G. W. Trucks, H. B. Schlegel, G. E. Scuseria, 
 M. A. Robb, J. R. Cheeseman, G. Scalmani, V. Barone, 
 G. A. Petersson, H. Nakatsuji, X. Li, M. Caricato, A. V. Marenich, 
 J. Bloino, B. G. Janesko, R. Gomperts, B. Mennucci, H. P. Hratchian, 
 J. V. Ortiz, A. F. Izmaylov, J. L. Sonnenberg, D. Williams-Young, 
 F. Ding, F. Lipparini, F. Egidi, J. Goings, B. Peng, A. Petrone, 
 T. Henderson, D. Ranasinghe, V. G. Zakrzewski, J. Gao, N. Rega, 
 G. Zheng, W. Liang, M. Hada, M. Ehara, K. Toyota, R. Fukuda, 
 J. Hasegawa, M. Ishida, T. Nakajima, Y. Honda, O. Kitao, H. Nakai, 
 T. Vreven, K. Throssell, J. A. Montgomery, Jr., J. E. Peralta, 
 F. Ogliaro, M. J. Bearpark, J. J. Heyd, E. N. Brothers, K. N. Kudin, 
 V. N. Staroverov, T. A. Keith, R. Kobayashi, J. Normand, 
 K. Raghavachari, A. P. Rendell, J. C. Burant, S. S. Iyengar, 
 J. Tomasi, M. Cossi, J. M. Millam, M. Klene, C. Adamo, R. Cammi, 
 J. W. Ochterski, R. L. Martin, K. Morokuma, O. Farkas, 
 J. B. Foresman, and D. J. Fox, Gaussian, Inc., Wallingford CT, 2016.
 
 ******************************************
 Gaussian 16:  ES64L-G16RevB.01 20-Dec-2017
                 5-Dec-2023 
 ******************************************
 %nproc=15
 Will use up to   15 processors via shared memory.
 -------------------------
 #P B3LYP/6-311+g(d) force
 -------------------------
 1/10=7,30=1,38=1/1,3;
 2/12=2,17=6,18=5,40=1/2;
 3/5=4,6=6,7=11,11=2,25=1,30=1,71=1,74=-5/1,2,3;
 4//1;
 5/5=2,38=5/2;
 6/7=2,8=2,9=2,10=2,28=1/1;
 7/29=1/1,2,3,16;
 1/10=7,30=1/3;
 99//99;
 Leave Link    1 at Tue Dec  5 21:02:00 2023, MaxMem=           0 cpu:               0.3 elap:               0.0
 (Enter /home/sekinelabo/g16/l101.exe)
 -----
 DPGEN
 -----
 Symbolic Z-matrix:
 Charge =  0 Multiplicity = 2
 Na                    11.4294   12.4441   10.3375 
 Na                    11.4499   14.3306   13.2782 
 Na                    9.24064   11.8193   12.5339 
 Na                    11.444    9.72164   12.6812 
 Na                    13.3746   12.0056   13.8908 
 Na                    14.0718   10.8796   10.8019 
 Na                    14.0422   13.8516   11.5289 
 
 ITRead=  0  0  0  0  0  0  0
 MicOpt= -1 -1 -1 -1 -1 -1 -1
 NAtoms=      7 NQM=        7 NQMF=       0 NMMI=      0 NMMIF=      0
                NMic=       0 NMicF=      0.
                    Isotopes and Nuclear Properties:
 (Nuclear quadrupole moments (NQMom) in fm**2, nuclear magnetic moments (NMagM)
  in nuclear magnetons)

  Atom         1           2           3           4           5           6           7
 IAtWgt=          23          23          23          23          23          23          23
 AtmWgt=  22.9897697  22.9897697  22.9897697  22.9897697  22.9897697  22.9897697  22.9897697
 NucSpn=           3           3           3           3           3           3           3
 AtZEff=  -0.0000000  -0.0000000  -0.0000000  -0.0000000  -0.0000000  -0.0000000  -0.0000000
 NQMom=   10.4000000  10.4000000  10.4000000  10.4000000  10.4000000  10.4000000  10.4000000
 NMagM=    2.2175200   2.2175200   2.2175200   2.2175200   2.2175200   2.2175200   2.2175200
 AtZNuc=  11.0000000  11.0000000  11.0000000  11.0000000  11.0000000  11.0000000  11.0000000
 Leave Link  101 at Tue Dec  5 21:02:00 2023, MaxMem=  1879048192 cpu:               2.4 elap:               0.2
 (Enter /home/sekinelabo/g16/l103.exe)

 GradGradGradGradGradGradGradGradGradGradGradGradGradGradGradGradGradGrad
 Berny optimization.
 Initialization pass.
 Trust Radius=3.00D-01 FncErr=1.00D-07 GrdErr=1.00D-07 EigMax=2.50D+02 EigMin=1.00D-04
 Number of steps in this run=      2 maximum allowed number of steps=      2.
 GradGradGradGradGradGradGradGradGradGradGradGradGradGradGradGradGradGrad

 Leave Link  103 at Tue Dec  5 21:02:00 2023, MaxMem=  1879048192 cpu:               0.2 elap:               0.0
 (Enter /home/sekinelabo/g16/l202.exe)
                          Input orientation:                          
 ---------------------------------------------------------------------
 Center     Atomic      Atomic             Coordinates (Angstroms)
 Number     Number       Type             X           Y           Z
 ---------------------------------------------------------------------
      1         11           0       11.429400   12.444100   10.337500
      2         11           0       11.449900   14.330600   13.278200
      3         11           0        9.240640   11.819300   12.533900
      4         11           0       11.444000    9.721640   12.681200
      5         11           0       13.374600   12.005600   13.890800
      6         11           0       14.071800   10.879600   10.801900
      7         11           0       14.042200   13.851600   11.528900
 ---------------------------------------------------------------------
                    Distance matrix (angstroms):
                    1          2          3          4          5
     1  Na   0.000000
     2  Na   3.493854   0.000000
     3  Na   3.163103   3.426578   0.000000
     4  Na   3.592343   4.647468   3.045763   0.000000
     5  Na   4.074558   3.079833   4.354941   3.225961   0.000000
     6  Na   3.105737   4.991575   5.217563   3.431905   3.360843
     7  Na   3.198002   3.163781   5.309920   5.013483   3.071152
                    6          7
     6  Na   0.000000
     7  Na   3.059769   0.000000
 Stoichiometry    Na7(2)
 Framework group  C1[X(Na7)]
 Deg. of freedom    15
 Full point group                 C1      NOp   1
 Largest Abelian subgroup         C1      NOp   1
 Largest concise Abelian subgroup C1      NOp   1
                         Standard orientation:                         
 ---------------------------------------------------------------------
 Center     Atomic      Atomic             Coordinates (Angstroms)
 Number     Number       Type             X           Y           Z
 ---------------------------------------------------------------------
      1         11           0       -0.180261   -0.074518   -1.963270
      2         11           0       -0.308962    2.503518    0.391339
      3         11           0       -2.895981    0.405980   -0.414334
      4         11           0       -1.450449   -1.982774    0.802613
      5         11           0        0.707845    0.088668    2.009974
      6         11           0        1.750338   -1.967677   -0.435414
      7         11           0        2.377469    1.026803   -0.390908
 ---------------------------------------------------------------------
 Rotational constants (GHZ):           0.8969219           0.7569470           0.6255975
 Leave Link  202 at Tue Dec  5 21:02:00 2023, MaxMem=  1879048192 cpu:               0.0 elap:               0.0
 (Enter /home/sekinelabo/g16/l301.exe)
 Standard basis: 6-311+G(d) (5D, 7F)
 Ernie: Thresh=  0.10000D-02 Tol=  0.10000D-05 Strict=F.
 There are   217 symmetry adapted cartesian basis functions of A   symmetry.
 There are   210 symmetry adapted basis functions of A   symmetry.
   210 basis functions,   350 primitive gaussians,   217 cartesian basis functions
    39 alpha electrons       38 beta electrons
       nuclear repulsion energy       371.2290784298 Hartrees.
 IExCor=  402 DFT=T Ex+Corr=B3LYP ExCW=0 ScaHFX=  0.200000
 ScaDFX=  0.800000  0.720000  1.000000  0.810000 ScalE2=  1.000000  1.000000
 IRadAn=      5 IRanWt=     -1 IRanGd=            0 ICorTp=0 IEmpDi=  4
 NAtoms=    7 NActive=    7 NUniq=    7 SFac= 1.00D+00 NAtFMM=   60 NAOKFM=F Big=F
 Integral buffers will be    131072 words long.
 Raffenetti 2 integral format.
 Two-electron integral symmetry is turned on.
 Leave Link  301 at Tue Dec  5 21:02:00 2023, MaxMem=  1879048192 cpu:               0.5 elap:               0.0
 (Enter /home/sekinelabo/g16/l302.exe)
 NPDir=0 NMtPBC=     1 NCelOv=     1 NCel=       1 NClECP=     1 NCelD=      1
         NCelK=      1 NCelE2=     1 NClLst=     1 CellRange=     0.0.
 One-electron integrals computed using PRISM.
 One-electron integral symmetry used in STVInt
 NBasis=   210 RedAO= T EigKep=  1.63D-06  NBF=   210
 NBsUse=   210 1.00D-06 EigRej= -1.00D+00 NBFU=   210
 Precomputing XC quadrature grid using
 IXCGrd= 4 IRadAn=           5 IRanWt=          -1 IRanGd=           0 AccXCQ= 0.00D+00.
 Generated NRdTot=       0 NPtTot=           0 NUsed=           0 NTot=          32
 NSgBfM=   210   210   210   210   210 MxSgAt=     7 MxSgA2=     7.
 Leave Link  302 at Tue Dec  5 21:02:00 2023, MaxMem=  1879048192 cpu:               2.0 elap:               0.1
 (Enter /home/sekinelabo/g16/l303.exe)
 DipDrv:  MaxL=1.
 Leave Link  303 at Tue Dec  5 21:02:00 2023, MaxMem=  1879048192 cpu:               0.5 elap:               0.0
 (Enter /home/sekinelabo/g16/l401.exe)
 ExpMin= 7.60D-03 ExpMax= 3.62D+04 ExpMxC= 1.21D+03 IAcc=3 IRadAn=         5 AccDes= 0.00D+00
 Harris functional with IExCor=  402 and IRadAn=       5 diagonalized for initial guess.
 HarFok:  IExCor=  402 AccDes= 0.00D+00 IRadAn=         5 IDoV= 1 UseB2=F ITyADJ=14
 ICtDFT=  3500011 ScaDFX=  1.000000  1.000000  1.000000  1.000000
 FoFCou: FMM=F IPFlag=           0 FMFlag=      100000 FMFlg1=           0
         NFxFlg=           0 DoJE=T BraDBF=F KetDBF=T FulRan=T
         wScrn=  0.000000 ICntrl=       500 IOpCl=  0 I1Cent=   200000004 NGrid=           0
         NMat0=    1 NMatS0=      1 NMatT0=    0 NMatD0=    1 NMtDS0=    0 NMtDT0=    0
 Petite list used in FoFCou.
 Harris En= -1135.89780509924    
 JPrj=0 DoOrth=F DoCkMO=F.
 Initial guess <Sx>= 0.0000 <Sy>= 0.0000 <Sz>= 0.5000 <S**2>= 0.7500 S= 0.5000
 Leave Link  401 at Tue Dec  5 21:02:00 2023, MaxMem=  1879048192 cpu:               4.6 elap:               0.3
 (Enter /home/sekinelabo/g16/l502.exe)
 Keep R1 and R2 ints in memory in canonical form, NReq=506573321.
 FoFCou: FMM=F IPFlag=           0 FMFlag=           0 FMFlg1=           0
         NFxFlg=           0 DoJE=F BraDBF=F KetDBF=F FulRan=T
         wScrn=  0.000000 ICntrl=       600 IOpCl=  0 I1Cent=           0 NGrid=           0
         NMat0=    1 NMatS0=  22155 NMatT0=    0 NMatD0=    1 NMtDS0=    0 NMtDT0=    0
 Symmetry not used in FoFCou.
 Two-electron integral symmetry not used.
 UHF open shell SCF:
 Using DIIS extrapolation, IDIIS=  1040.
 NGot=  1879048192 LenX=  1388082579 LenY=  1388035049
 Requested convergence on RMS density matrix=1.00D-08 within 128 cycles.
 Requested convergence on MAX density matrix=1.00D-06.
 Requested convergence on             energy=1.00D-06.
 No special actions if energy rises.

 Cycle   1  Pass 1  IDiag  1:
 E= -1136.08892243316    
 DIIS: error= 1.65D-02 at cycle   1 NSaved=   1.
 NSaved= 1 IEnMin= 1 EnMin= -1136.08892243316     IErMin= 1 ErrMin= 1.65D-02
 ErrMax= 1.65D-02  0.00D+00 EMaxC= 1.00D-01 BMatC= 1.97D-01 BMatP= 1.97D-01
 IDIUse=3 WtCom= 8.35D-01 WtEn= 1.65D-01
 Coeff-Com:  0.100D+01
 Coeff-En:   0.100D+01
 Coeff:      0.100D+01
 Gap=     0.063 Goal=   None    Shift=    0.000
 Gap=     0.038 Goal=   None    Shift=    0.000
 GapD=    0.038 DampG=0.250 DampE=0.500 DampFc=0.2500 IDamp=-1.
 Damping current iteration by 2.50D-01
 RMSDP=3.65D-02 MaxDP=2.87D+00              OVMax= 2.28D-01

 Cycle   2  Pass 1  IDiag  1:
 E= -1136.10248046457     Delta-E=       -0.013558031408 Rises=F Damp=T
 DIIS: error= 1.15D-02 at cycle   2 NSaved=   2.
 NSaved= 2 IEnMin= 2 EnMin= -1136.10248046457     IErMin= 2 ErrMin= 1.15D-02
 ErrMax= 1.15D-02  0.00D+00 EMaxC= 1.00D-01 BMatC= 7.49D-02 BMatP= 1.97D-01
 IDIUse=3 WtCom= 8.85D-01 WtEn= 1.15D-01
 Coeff-Com: -0.129D+01 0.229D+01
 Coeff-En:   0.000D+00 0.100D+01
 Coeff:     -0.114D+01 0.214D+01
 Gap=     0.073 Goal=   None    Shift=    0.000
 Gap=     0.039 Goal=   None    Shift=    0.000
 RMSDP=2.08D-02 MaxDP=1.73D+00 DE=-1.36D-02 OVMax= 1.38D-01

 Cycle   3  Pass 1  IDiag  1:
 E= -1136.12609634233     Delta-E=       -0.023615877765 Rises=F Damp=F
 DIIS: error= 2.33D-03 at cycle   3 NSaved=   3.
 NSaved= 3 IEnMin= 3 EnMin= -1136.12609634233     IErMin= 3 ErrMin= 2.33D-03
 ErrMax= 2.33D-03  0.00D+00 EMaxC= 1.00D-01 BMatC= 2.20D-03 BMatP= 7.49D-02
 IDIUse=3 WtCom= 9.77D-01 WtEn= 2.33D-02
 Coeff-Com: -0.104D+00 0.219D+00 0.885D+00
 Coeff-En:   0.000D+00 0.000D+00 0.100D+01
 Coeff:     -0.102D+00 0.214D+00 0.888D+00
 Gap=     0.068 Goal=   None    Shift=    0.000
 Gap=     0.040 Goal=   None    Shift=    0.000
 RMSDP=5.02D-03 MaxDP=3.03D-01 DE=-2.36D-02 OVMax= 8.67D-02

 Cycle   4  Pass 1  IDiag  1:
 E= -1136.12395584814     Delta-E=        0.002140494197 Rises=F Damp=F
 DIIS: error= 3.66D-03 at cycle   4 NSaved=   4.
 NSaved= 4 IEnMin= 3 EnMin= -1136.12609634233     IErMin= 3 ErrMin= 2.33D-03
 ErrMax= 3.66D-03  0.00D+00 EMaxC= 1.00D-01 BMatC= 3.73D-03 BMatP= 2.20D-03
 IDIUse=3 WtCom= 1.42D-01 WtEn= 8.58D-01
 Coeff-Com:  0.408D-01-0.512D-01 0.577D+00 0.433D+00
 Coeff-En:   0.000D+00 0.000D+00 0.665D+00 0.335D+00
 Coeff:      0.579D-02-0.727D-02 0.653D+00 0.349D+00
 Gap=     0.070 Goal=   None    Shift=    0.000
 Gap=     0.040 Goal=   None    Shift=    0.000
 RMSDP=1.58D-03 MaxDP=9.25D-02 DE= 2.14D-03 OVMax= 5.04D-02

 Cycle   5  Pass 1  IDiag  1:
 E= -1136.12764458799     Delta-E=       -0.003688739857 Rises=F Damp=F
 DIIS: error= 7.74D-04 at cycle   5 NSaved=   5.
 NSaved= 5 IEnMin= 5 EnMin= -1136.12764458799     IErMin= 5 ErrMin= 7.74D-04
 ErrMax= 7.74D-04  0.00D+00 EMaxC= 1.00D-01 BMatC= 1.96D-04 BMatP= 2.20D-03
 IDIUse=3 WtCom= 9.92D-01 WtEn= 7.74D-03
 Coeff-Com:  0.595D-02-0.829D-02 0.329D+00 0.166D+00 0.507D+00
 Coeff-En:   0.000D+00 0.000D+00 0.000D+00 0.000D+00 0.100D+01
 Coeff:      0.591D-02-0.823D-02 0.327D+00 0.165D+00 0.511D+00
 Gap=     0.071 Goal=   None    Shift=    0.000
 Gap=     0.040 Goal=   None    Shift=    0.000
 RMSDP=6.02D-04 MaxDP=3.72D-02 DE=-3.69D-03 OVMax= 6.60D-03

 Cycle   6  Pass 1  IDiag  1:
 E= -1136.12773219167     Delta-E=       -0.000087603680 Rises=F Damp=F
 DIIS: error= 7.72D-05 at cycle   6 NSaved=   6.
 NSaved= 6 IEnMin= 6 EnMin= -1136.12773219167     IErMin= 6 ErrMin= 7.72D-05
 ErrMax= 7.72D-05  0.00D+00 EMaxC= 1.00D-01 BMatC= 1.59D-06 BMatP= 1.96D-04
 IDIUse=1 WtCom= 1.00D+00 WtEn= 0.00D+00
 Coeff-Com: -0.594D-02 0.759D-02-0.372D-01-0.346D-01 0.279D-01 0.104D+01
 Coeff:     -0.594D-02 0.759D-02-0.372D-01-0.346D-01 0.279D-01 0.104D+01
 Gap=     0.071 Goal=   None    Shift=    0.000
 Gap=     0.040 Goal=   None    Shift=    0.000
 RMSDP=2.30D-04 MaxDP=1.03D-02 DE=-8.76D-05 OVMax= 2.53D-03

 Cycle   7  Pass 1  IDiag  1:
 E= -1136.12773524490     Delta-E=       -0.000003053222 Rises=F Damp=F
 DIIS: error= 7.04D-05 at cycle   7 NSaved=   7.
 NSaved= 7 IEnMin= 7 EnMin= -1136.12773524490     IErMin= 7 ErrMin= 7.04D-05
 ErrMax= 7.04D-05  0.00D+00 EMaxC= 1.00D-01 BMatC= 9.66D-07 BMatP= 1.59D-06
 IDIUse=1 WtCom= 1.00D+00 WtEn= 0.00D+00
 Coeff-Com: -0.374D-02 0.479D-02-0.444D-01-0.317D-01-0.167D-01 0.594D+00
 Coeff-Com:  0.497D+00
 Coeff:     -0.374D-02 0.479D-02-0.444D-01-0.317D-01-0.167D-01 0.594D+00
 Coeff:      0.497D+00
 Gap=     0.071 Goal=   None    Shift=    0.000
 Gap=     0.040 Goal=   None    Shift=    0.000
 RMSDP=6.52D-05 MaxDP=3.82D-03 DE=-3.05D-06 OVMax= 1.32D-03

 Cycle   8  Pass 1  IDiag  1:
 E= -1136.12773649160     Delta-E=       -0.000001246699 Rises=F Damp=F
 DIIS: error= 2.89D-05 at cycle   8 NSaved=   8.
 NSaved= 8 IEnMin= 8 EnMin= -1136.12773649160     IErMin= 8 ErrMin= 2.89D-05
 ErrMax= 2.89D-05  0.00D+00 EMaxC= 1.00D-01 BMatC= 1.53D-07 BMatP= 9.66D-07
 IDIUse=1 WtCom= 1.00D+00 WtEn= 0.00D+00
 Coeff-Com:  0.141D-02-0.183D-02-0.384D-02 0.158D-02-0.205D-01-0.251D+00
 Coeff-Com:  0.221D+00 0.105D+01
 Coeff:      0.141D-02-0.183D-02-0.384D-02 0.158D-02-0.205D-01-0.251D+00
 Coeff:      0.221D+00 0.105D+01
 Gap=     0.071 Goal=   None    Shift=    0.000
 Gap=     0.040 Goal=   None    Shift=    0.000
 RMSDP=8.16D-05 MaxDP=4.05D-03 DE=-1.25D-06 OVMax= 1.29D-03

 Cycle   9  Pass 1  IDiag  1:
 E= -1136.12773702177     Delta-E=       -0.000000530175 Rises=F Damp=F
 DIIS: error= 5.89D-06 at cycle   9 NSaved=   9.
 NSaved= 9 IEnMin= 9 EnMin= -1136.12773702177     IErMin= 9 ErrMin= 5.89D-06
 ErrMax= 5.89D-06  0.00D+00 EMaxC= 1.00D-01 BMatC= 1.06D-08 BMatP= 1.53D-07
 IDIUse=1 WtCom= 1.00D+00 WtEn= 0.00D+00
 Coeff-Com:  0.242D-03-0.305D-03 0.331D-02 0.210D-02 0.162D-02-0.222D-01
 Coeff-Com: -0.700D-01-0.105D+00 0.119D+01
 Coeff:      0.242D-03-0.305D-03 0.331D-02 0.210D-02 0.162D-02-0.222D-01
 Coeff:     -0.700D-01-0.105D+00 0.119D+01
 Gap=     0.071 Goal=   None    Shift=    0.000
 Gap=     0.040 Goal=   None    Shift=    0.000
 RMSDP=3.47D-05 MaxDP=1.67D-03 DE=-5.30D-07 OVMax= 7.21D-04

 Cycle  10  Pass 1  IDiag  1:
 E= -1136.12773709915     Delta-E=       -0.000000077381 Rises=F Damp=F
 DIIS: error= 3.64D-06 at cycle  10 NSaved=  10.
 NSaved=10 IEnMin=10 EnMin= -1136.12773709915     IErMin=10 ErrMin= 3.64D-06
 ErrMax= 3.64D-06  0.00D+00 EMaxC= 1.00D-01 BMatC= 4.78D-09 BMatP= 1.06D-08
 IDIUse=1 WtCom= 1.00D+00 WtEn= 0.00D+00
 Coeff-Com: -0.127D-03 0.171D-03 0.262D-02 0.760D-03 0.477D-02 0.260D-01
 Coeff-Com: -0.678D-01-0.214D+00 0.467D+00 0.781D+00
 Coeff:     -0.127D-03 0.171D-03 0.262D-02 0.760D-03 0.477D-02 0.260D-01
 Coeff:     -0.678D-01-0.214D+00 0.467D+00 0.781D+00
 Gap=     0.071 Goal=   None    Shift=    0.000
 Gap=     0.040 Goal=   None    Shift=    0.000
 RMSDP=1.42D-05 MaxDP=7.56D-04 DE=-7.74D-08 OVMax= 3.93D-04

 Cycle  11  Pass 1  IDiag  1:
 E= -1136.12773711817     Delta-E=       -0.000000019014 Rises=F Damp=F
 DIIS: error= 3.08D-06 at cycle  11 NSaved=  11.
 NSaved=11 IEnMin=11 EnMin= -1136.12773711817     IErMin=11 ErrMin= 3.08D-06
 ErrMax= 3.08D-06  0.00D+00 EMaxC= 1.00D-01 BMatC= 2.49D-09 BMatP= 4.78D-09
 IDIUse=1 WtCom= 1.00D+00 WtEn= 0.00D+00
 Coeff-Com: -0.184D-03 0.241D-03 0.790D-03-0.207D-03 0.304D-02 0.247D-01
 Coeff-Com: -0.264D-01-0.116D+00-0.345D-01 0.488D+00 0.660D+00
 Coeff:     -0.184D-03 0.241D-03 0.790D-03-0.207D-03 0.304D-02 0.247D-01
 Coeff:     -0.264D-01-0.116D+00-0.345D-01 0.488D+00 0.660D+00
 Gap=     0.071 Goal=   None    Shift=    0.000
 Gap=     0.040 Goal=   None    Shift=    0.000
 RMSDP=7.07D-06 MaxDP=4.51D-04 DE=-1.90D-08 OVMax= 2.61D-04

 Cycle  12  Pass 1  IDiag  1:
 E= -1136.12773712700     Delta-E=       -0.000000008831 Rises=F Damp=F
 DIIS: error= 1.85D-06 at cycle  12 NSaved=  12.
 NSaved=12 IEnMin=12 EnMin= -1136.12773712700     IErMin=12 ErrMin= 1.85D-06
 ErrMax= 1.85D-06  0.00D+00 EMaxC= 1.00D-01 BMatC= 6.07D-10 BMatP= 2.49D-09
 IDIUse=1 WtCom= 1.00D+00 WtEn= 0.00D+00
 Coeff-Com: -0.998D-04 0.129D-03-0.431D-03-0.467D-03 0.598D-03 0.111D-01
 Coeff-Com:  0.846D-03-0.182D-01-0.111D+00-0.229D-01 0.293D+00 0.848D+00
 Coeff:     -0.998D-04 0.129D-03-0.431D-03-0.467D-03 0.598D-03 0.111D-01
 Coeff:      0.846D-03-0.182D-01-0.111D+00-0.229D-01 0.293D+00 0.848D+00
 Gap=     0.071 Goal=   None    Shift=    0.000
 Gap=     0.040 Goal=   None    Shift=    0.000
 RMSDP=3.52D-06 MaxDP=2.16D-04 DE=-8.83D-09 OVMax= 2.29D-04

 Cycle  13  Pass 1  IDiag  1:
 E= -1136.12773713091     Delta-E=       -0.000000003914 Rises=F Damp=F
 DIIS: error= 1.18D-06 at cycle  13 NSaved=  13.
 NSaved=13 IEnMin=13 EnMin= -1136.12773713091     IErMin=13 ErrMin= 1.18D-06
 ErrMax= 1.18D-06  0.00D+00 EMaxC= 1.00D-01 BMatC= 1.79D-10 BMatP= 6.07D-10
 IDIUse=1 WtCom= 1.00D+00 WtEn= 0.00D+00
 Coeff-Com:  0.860D-04-0.113D-03-0.256D-03 0.118D-03-0.110D-02-0.111D-01
 Coeff-Com:  0.944D-02 0.477D-01 0.488D-01-0.246D+00-0.349D+00 0.276D-01
 Coeff-Com:  0.147D+01
 Coeff:      0.860D-04-0.113D-03-0.256D-03 0.118D-03-0.110D-02-0.111D-01
 Coeff:      0.944D-02 0.477D-01 0.488D-01-0.246D+00-0.349D+00 0.276D-01
 Coeff:      0.147D+01
 Gap=     0.071 Goal=   None    Shift=    0.000
 Gap=     0.040 Goal=   None    Shift=    0.000
 RMSDP=3.15D-06 MaxDP=2.65D-04 DE=-3.91D-09 OVMax= 2.65D-04

 Cycle  14  Pass 1  IDiag  1:
 E= -1136.12773713324     Delta-E=       -0.000000002332 Rises=F Damp=F
 DIIS: error= 4.29D-07 at cycle  14 NSaved=  14.
 NSaved=14 IEnMin=14 EnMin= -1136.12773713324     IErMin=14 ErrMin= 4.29D-07
 ErrMax= 4.29D-07  0.00D+00 EMaxC= 1.00D-01 BMatC= 3.20D-11 BMatP= 1.79D-10
 IDIUse=1 WtCom= 1.00D+00 WtEn= 0.00D+00
 Coeff-Com:  0.193D-04-0.243D-04 0.749D-04 0.764D-04-0.114D-03-0.145D-02
 Coeff-Com: -0.197D-02-0.508D-03 0.499D-01-0.247D-03-0.115D+00-0.203D+00
 Coeff-Com:  0.905D-02 0.126D+01
 Coeff:      0.193D-04-0.243D-04 0.749D-04 0.764D-04-0.114D-03-0.145D-02
 Coeff:     -0.197D-02-0.508D-03 0.499D-01-0.247D-03-0.115D+00-0.203D+00
 Coeff:      0.905D-02 0.126D+01
 Gap=     0.071 Goal=   None    Shift=    0.000
 Gap=     0.040 Goal=   None    Shift=    0.000
 RMSDP=1.53D-06 MaxDP=7.38D-05 DE=-2.33D-09 OVMax= 1.22D-04

 Cycle  15  Pass 1  IDiag  1:
 E= -1136.12773713364     Delta-E=       -0.000000000392 Rises=F Damp=F
 DIIS: error= 1.04D-07 at cycle  15 NSaved=  15.
 NSaved=15 IEnMin=15 EnMin= -1136.12773713364     IErMin=15 ErrMin= 1.04D-07
 ErrMax= 1.04D-07  0.00D+00 EMaxC= 1.00D-01 BMatC= 3.53D-12 BMatP= 3.20D-11
 IDIUse=1 WtCom= 1.00D+00 WtEn= 0.00D+00
 Coeff-Com: -0.138D-04 0.182D-04 0.462D-04-0.206D-04 0.177D-03 0.179D-02
 Coeff-Com: -0.161D-02-0.820D-02-0.167D-02 0.265D-01 0.439D-01 0.196D-01
 Coeff-Com: -0.214D+00-0.571D-01 0.119D+01
 Coeff:     -0.138D-04 0.182D-04 0.462D-04-0.206D-04 0.177D-03 0.179D-02
 Coeff:     -0.161D-02-0.820D-02-0.167D-02 0.265D-01 0.439D-01 0.196D-01
 Coeff:     -0.214D+00-0.571D-01 0.119D+01
 Gap=     0.071 Goal=   None    Shift=    0.000
 Gap=     0.040 Goal=   None    Shift=    0.000
 RMSDP=4.70D-07 MaxDP=3.65D-05 DE=-3.92D-10 OVMax= 3.32D-05

 Cycle  16  Pass 1  IDiag  1:
 E= -1136.12773713369     Delta-E=       -0.000000000054 Rises=F Damp=F
 DIIS: error= 5.00D-08 at cycle  16 NSaved=  16.
 NSaved=16 IEnMin=16 EnMin= -1136.12773713369     IErMin=16 ErrMin= 5.00D-08
 ErrMax= 5.00D-08  0.00D+00 EMaxC= 1.00D-01 BMatC= 7.12D-13 BMatP= 3.53D-12
 IDIUse=1 WtCom= 1.00D+00 WtEn= 0.00D+00
 Coeff-Com:  0.238D-05-0.336D-05-0.185D-04-0.162D-05-0.379D-04-0.356D-03
 Coeff-Com:  0.701D-03 0.241D-02-0.314D-02-0.155D-01-0.368D-02 0.396D-01
 Coeff-Com:  0.838D-01-0.242D+00-0.197D+00 0.134D+01
 Coeff:      0.238D-05-0.336D-05-0.185D-04-0.162D-05-0.379D-04-0.356D-03
 Coeff:      0.701D-03 0.241D-02-0.314D-02-0.155D-01-0.368D-02 0.396D-01
 Coeff:      0.838D-01-0.242D+00-0.197D+00 0.134D+01
 Gap=     0.071 Goal=   None    Shift=    0.000
 Gap=     0.040 Goal=   None    Shift=    0.000
 RMSDP=2.08D-07 MaxDP=2.28D-05 DE=-5.37D-11 OVMax= 7.11D-06

 Cycle  17  Pass 1  IDiag  1:
 E= -1136.12773713368     Delta-E=        0.000000000005 Rises=F Damp=F
 DIIS: error= 1.90D-08 at cycle  17 NSaved=  17.
 NSaved=17 IEnMin=16 EnMin= -1136.12773713369     IErMin=17 ErrMin= 1.90D-08
 ErrMax= 1.90D-08  0.00D+00 EMaxC= 1.00D-01 BMatC= 1.38D-13 BMatP= 7.12D-13
 IDIUse=1 WtCom= 1.00D+00 WtEn= 0.00D+00
 Coeff-Com:  0.222D-05-0.297D-05-0.139D-04 0.185D-05-0.347D-04-0.255D-03
 Coeff-Com:  0.284D-03 0.140D-02 0.587D-03-0.716D-02-0.995D-02 0.392D-02
 Coeff-Com:  0.508D-01-0.421D-01-0.215D+00 0.187D+00 0.103D+01
 Coeff:      0.222D-05-0.297D-05-0.139D-04 0.185D-05-0.347D-04-0.255D-03
 Coeff:      0.284D-03 0.140D-02 0.587D-03-0.716D-02-0.995D-02 0.392D-02
 Coeff:      0.508D-01-0.421D-01-0.215D+00 0.187D+00 0.103D+01
 Gap=     0.071 Goal=   None    Shift=    0.000
 Gap=     0.040 Goal=   None    Shift=    0.000
 RMSDP=7.70D-08 MaxDP=5.65D-06 DE= 4.55D-12 OVMax= 3.73D-06

 Cycle  18  Pass 1  IDiag  1:
 E= -1136.12773713368     Delta-E=        0.000000000000 Rises=F Damp=F
 DIIS: error= 9.55D-09 at cycle  18 NSaved=  18.
 NSaved=18 IEnMin=16 EnMin= -1136.12773713369     IErMin=18 ErrMin= 9.55D-09
 ErrMax= 9.55D-09  0.00D+00 EMaxC= 1.00D-01 BMatC= 2.68D-14 BMatP= 1.38D-13
 IDIUse=1 WtCom= 1.00D+00 WtEn= 0.00D+00
 Coeff-Com: -0.365D-07 0.908D-07-0.425D-06-0.534D-06 0.258D-05-0.112D-04
 Coeff-Com: -0.585D-04-0.696D-04 0.816D-03 0.749D-03-0.166D-02-0.645D-02
 Coeff-Com: -0.352D-02 0.351D-01 0.138D-01-0.284D+00 0.254D+00 0.991D+00
 Coeff:     -0.365D-07 0.908D-07-0.425D-06-0.534D-06 0.258D-05-0.112D-04
 Coeff:     -0.585D-04-0.696D-04 0.816D-03 0.749D-03-0.166D-02-0.645D-02
 Coeff:     -0.352D-02 0.351D-01 0.138D-01-0.284D+00 0.254D+00 0.991D+00
 Gap=     0.071 Goal=   None    Shift=    0.000
 Gap=     0.040 Goal=   None    Shift=    0.000
 RMSDP=3.78D-08 MaxDP=2.12D-06 DE= 0.00D+00 OVMax= 1.19D-06

 Cycle  19  Pass 1  IDiag  1:
 E= -1136.12773713369     Delta-E=       -0.000000000001 Rises=F Damp=F
 DIIS: error= 2.30D-09 at cycle  19 NSaved=  19.
 NSaved=19 IEnMin=16 EnMin= -1136.12773713369     IErMin=19 ErrMin= 2.30D-09
 ErrMax= 2.30D-09  0.00D+00 EMaxC= 1.00D-01 BMatC= 1.83D-15 BMatP= 2.68D-14
 IDIUse=1 WtCom= 1.00D+00 WtEn= 0.00D+00
 Large coefficients: NSaved= 19 BigCof=    0.00 CofMax=   10.00 Det=-4.58D-15
 Inversion failed.  Reducing to 18 matrices.
 Large coefficients: NSaved= 18 BigCof=    0.00 CofMax=   10.00 Det=-4.58D-15
 Inversion failed.  Reducing to 17 matrices.
 Large coefficients: NSaved= 17 BigCof=    0.00 CofMax=   10.00 Det=-4.66D-15
 Inversion failed.  Reducing to 16 matrices.
 Large coefficients: NSaved= 16 BigCof=    0.00 CofMax=   10.00 Det=-4.75D-15
 Inversion failed.  Reducing to 15 matrices.
 Coeff-Com: -0.113D-05 0.146D-05 0.557D-05-0.531D-05 0.364D-05 0.347D-04
 Coeff-Com:  0.330D-03 0.600D-03-0.857D-03-0.121D-02 0.118D-01 0.600D-02
 Coeff-Com: -0.983D-01-0.804D-01 0.116D+01
 Coeff:     -0.113D-05 0.146D-05 0.557D-05-0.531D-05 0.364D-05 0.347D-04
 Coeff:      0.330D-03 0.600D-03-0.857D-03-0.121D-02 0.118D-01 0.600D-02
 Coeff:     -0.983D-01-0.804D-01 0.116D+01
 Gap=     0.071 Goal=   None    Shift=    0.000
 Gap=     0.040 Goal=   None    Shift=    0.000
 RMSDP=1.08D-08 MaxDP=5.69D-07 DE=-9.09D-13 OVMax= 3.73D-07

 Cycle  20  Pass 1  IDiag  1:
 E= -1136.12773713369     Delta-E=       -0.000000000004 Rises=F Damp=F
 DIIS: error= 7.66D-10 at cycle  20 NSaved=  16.
 NSaved=16 IEnMin=12 EnMin= -1136.12773713369     IErMin=16 ErrMin= 7.66D-10
 ErrMax= 7.66D-10  0.00D+00 EMaxC= 1.00D-01 BMatC= 3.27D-16 BMatP= 1.83D-15
 IDIUse=1 WtCom= 1.00D+00 WtEn= 0.00D+00
 Large coefficients: NSaved= 16 BigCof=    0.00 CofMax=   10.00 Det=-6.18D-16
 Inversion failed.  Reducing to 15 matrices.
 Coeff-Com:  0.328D-05 0.100D-04 0.134D-04-0.142D-03-0.245D-03 0.208D-03
 Coeff-Com:  0.115D-02 0.569D-03-0.650D-02-0.339D-03 0.387D-01-0.352D-01
 Coeff-Com: -0.110D+00-0.396D-01 0.115D+01
 Coeff:      0.328D-05 0.100D-04 0.134D-04-0.142D-03-0.245D-03 0.208D-03
 Coeff:      0.115D-02 0.569D-03-0.650D-02-0.339D-03 0.387D-01-0.352D-01
 Coeff:     -0.110D+00-0.396D-01 0.115D+01
 Gap=     0.071 Goal=   None    Shift=    0.000
 Gap=     0.040 Goal=   None    Shift=    0.000
 RMSDP=7.69D-09 MaxDP=6.93D-07 DE=-3.64D-12 OVMax= 2.00D-07

 SCF Done:  E(UB3LYP) =  -1136.12773713     A.U. after   20 cycles
            NFock= 20  Conv=0.77D-08     -V/T= 2.0026
 <Sx>= 0.0000 <Sy>= 0.0000 <Sz>= 0.5000 <S**2>= 0.7618 S= 0.5059
 <L.S>= 0.000000000000E+00
 KE= 1.133138133473D+03 PE=-3.472145034510D+03 EE= 8.316500854729D+02
 Annihilation of the first spin contaminant:
 S**2 before annihilation     0.7618,   after     0.7501
 Leave Link  502 at Tue Dec  5 21:02:18 2023, MaxMem=  1879048192 cpu:             192.2 elap:              17.2
 (Enter /home/sekinelabo/g16/l601.exe)
 Copying SCF densities to generalized density rwf, IOpCl= 1 IROHF=0.

 **********************************************************************

            Population analysis using the SCF Density.

 **********************************************************************

 Orbital symmetries:
 Alpha Orbitals:
       Occupied  (A) (A) (A) (A) (A) (A) (A) (A) (A) (A) (A) (A)
                 (A) (A) (A) (A) (A) (A) (A) (A) (A) (A) (A) (A)
                 (A) (A) (A) (A) (A) (A) (A) (A) (A) (A) (A) (A)
                 (A) (A) (A)
       Virtual   (A) (A) (A) (A) (A) (A) (A) (A) (A) (A) (A) (A)
                 (A) (A) (A) (A) (A) (A) (A) (A) (A) (A) (A) (A)
                 (A) (A) (A) (A) (A) (A) (A) (A) (A) (A) (A) (A)
                 (A) (A) (A) (A) (A) (A) (A) (A) (A) (A) (A) (A)
                 (A) (A) (A) (A) (A) (A) (A) (A) (A) (A) (A) (A)
                 (A) (A) (A) (A) (A) (A) (A) (A) (A) (A) (A) (A)
                 (A) (A) (A) (A) (A) (A) (A) (A) (A) (A) (A) (A)
                 (A) (A) (A) (A) (A) (A) (A) (A) (A) (A) (A) (A)
                 (A) (A) (A) (A) (A) (A) (A) (A) (A) (A) (A) (A)
                 (A) (A) (A) (A) (A) (A) (A) (A) (A) (A) (A) (A)
                 (A) (A) (A) (A) (A) (A) (A) (A) (A) (A) (A) (A)
                 (A) (A) (A) (A) (A) (A) (A) (A) (A) (A) (A) (A)
                 (A) (A) (A) (A) (A) (A) (A) (A) (A) (A) (A) (A)
                 (A) (A) (A) (A) (A) (A) (A) (A) (A) (A) (A) (A)
                 (A) (A) (A)
 Beta  Orbitals:
       Occupied  (A) (A) (A) (A) (A) (A) (A) (A) (A) (A) (A) (A)
                 (A) (A) (A) (A) (A) (A) (A) (A) (A) (A) (A) (A)
                 (A) (A) (A) (A) (A) (A) (A) (A) (A) (A) (A) (A)
                 (A) (A)
       Virtual   (A) (A) (A) (A) (A) (A) (A) (A) (A) (A) (A) (A)
                 (A) (A) (A) (A) (A) (A) (A) (A) (A) (A) (A) (A)
                 (A) (A) (A) (A) (A) (A) (A) (A) (A) (A) (A) (A)
                 (A) (A) (A) (A) (A) (A) (A) (A) (A) (A) (A) (A)
                 (A) (A) (A) (A) (A) (A) (A) (A) (A) (A) (A) (A)
                 (A) (A) (A) (A) (A) (A) (A) (A) (A) (A) (A) (A)
                 (A) (A) (A) (A) (A) (A) (A) (A) (A) (A) (A) (A)
                 (A) (A) (A) (A) (A) (A) (A) (A) (A) (A) (A) (A)
                 (A) (A) (A) (A) (A) (A) (A) (A) (A) (A) (A) (A)
                 (A) (A) (A) (A) (A) (A) (A) (A) (A) (A) (A) (A)
                 (A) (A) (A) (A) (A) (A) (A) (A) (A) (A) (A) (A)
                 (A) (A) (A) (A) (A) (A) (A) (A) (A) (A) (A) (A)
                 (A) (A) (A) (A) (A) (A) (A) (A) (A) (A) (A) (A)
                 (A) (A) (A) (A) (A) (A) (A) (A) (A) (A) (A) (A)
                 (A) (A) (A) (A)
 The electronic state is 2-A.
 Alpha  occ. eigenvalues --  -38.44138 -38.44055 -38.43613 -38.43446 -38.43317
 Alpha  occ. eigenvalues --  -38.43095 -38.42825  -2.20153  -2.20071  -2.19519
 Alpha  occ. eigenvalues --   -2.19456  -2.19248  -2.19058  -2.18766  -1.13842
 Alpha  occ. eigenvalues --   -1.13804  -1.13776  -1.13765  -1.13724  -1.13691
 Alpha  occ. eigenvalues --   -1.13236  -1.13191  -1.13156  -1.13143  -1.13115
 Alpha  occ. eigenvalues --   -1.13100  -1.12931  -1.12882  -1.12865  -1.12744
 Alpha  occ. eigenvalues --   -1.12701  -1.12668  -1.12469  -1.12424  -1.12376
 Alpha  occ. eigenvalues --   -0.19882  -0.13309  -0.12397  -0.12183
 Alpha virt. eigenvalues --   -0.05095  -0.04480  -0.04110  -0.03741  -0.03439
 Alpha virt. eigenvalues --   -0.03327  -0.01020  -0.00620  -0.00221   0.00363
 Alpha virt. eigenvalues --    0.00455   0.00610   0.00945   0.00981   0.01028
 Alpha virt. eigenvalues --    0.01055   0.01080   0.01179   0.01317   0.01324
 Alpha virt. eigenvalues --    0.01355   0.01387   0.01818   0.01828   0.01909
 Alpha virt. eigenvalues --    0.02502   0.02622   0.02812   0.02829   0.02902
 Alpha virt. eigenvalues --    0.02964   0.03003   0.03018   0.03071   0.03123
 Alpha virt. eigenvalues --    0.03216   0.03320   0.03340   0.03349   0.03541
 Alpha virt. eigenvalues --    0.04264   0.04759   0.04957   0.05046   0.05128
 Alpha virt. eigenvalues --    0.05333   0.05394   0.05528   0.05573   0.05900
 Alpha virt. eigenvalues --    0.05986   0.06762   0.06923   0.07092   0.07202
 Alpha virt. eigenvalues --    0.07798   0.08044   0.08346   0.08705   0.08961
 Alpha virt. eigenvalues --    0.09163   0.09392   0.11854   0.12069   0.12362
 Alpha virt. eigenvalues --    0.12701   0.12750   0.13386   0.13533   0.13985
 Alpha virt. eigenvalues --    0.14065   0.14202   0.14628   0.15075   0.15206
 Alpha virt. eigenvalues --    0.15385   0.15809   0.16006   0.16460   0.18447
 Alpha virt. eigenvalues --    0.24531   0.24634   0.26690   0.27116   0.28621
 Alpha virt. eigenvalues --    0.28883   0.29212   0.30399   0.32974   0.34114
 Alpha virt. eigenvalues --    0.34615   0.35992   0.37326   0.38015   0.38981
 Alpha virt. eigenvalues --    0.39937   0.40667   0.41665   0.44030   0.44367
 Alpha virt. eigenvalues --    0.44601   0.44653   0.44973   0.45401   0.45662
 Alpha virt. eigenvalues --    0.46306   0.46412   0.46838   0.47234   0.47405
 Alpha virt. eigenvalues --    0.49026   0.49770   0.50238   0.50842   0.51524
 Alpha virt. eigenvalues --    0.52592   0.52808   0.53157   0.53324   0.53501
 Alpha virt. eigenvalues --    0.53839   0.54934   0.56578   0.57938   0.59237
 Alpha virt. eigenvalues --    0.60000   0.61397   0.63326   0.63720   0.66025
 Alpha virt. eigenvalues --    0.67976   0.70159   0.70651   0.72612   0.73857
 Alpha virt. eigenvalues --    0.76855   2.06306   2.19593   2.20947   2.25761
 Alpha virt. eigenvalues --    2.26256   2.27828   2.31191   4.41633   4.42142
 Alpha virt. eigenvalues --    4.42447   4.42894   4.43574   4.43721   4.44653
 Alpha virt. eigenvalues --    4.45747   4.46969   4.50676   4.51945   4.52512
 Alpha virt. eigenvalues --    4.53866   4.56291   4.59736   4.61417   4.62174
 Alpha virt. eigenvalues --    4.64356   4.66944   4.71529   4.71716  96.25967
 Alpha virt. eigenvalues --   96.42900  96.44471  96.50497  96.52043  96.54306
 Alpha virt. eigenvalues --   96.58463
  Beta  occ. eigenvalues --  -38.44049 -38.43970 -38.43609 -38.43433 -38.43296
  Beta  occ. eigenvalues --  -38.43084 -38.42816  -2.19992  -2.19918  -2.19514
  Beta  occ. eigenvalues --   -2.19437  -2.19212  -2.19042  -2.18755  -1.13741
  Beta  occ. eigenvalues --   -1.13688  -1.13662  -1.13653  -1.13613  -1.13586
  Beta  occ. eigenvalues --   -1.13233  -1.13167  -1.13147  -1.13140  -1.13097
  Beta  occ. eigenvalues --   -1.13053  -1.12898  -1.12851  -1.12840  -1.12727
  Beta  occ. eigenvalues --   -1.12681  -1.12642  -1.12455  -1.12400  -1.12366
  Beta  occ. eigenvalues --   -0.19065  -0.13045  -0.12103
  Beta virt. eigenvalues --   -0.08092  -0.05031  -0.04444  -0.04043  -0.03011
  Beta virt. eigenvalues --   -0.02498  -0.02298  -0.00948  -0.00575  -0.00033
  Beta virt. eigenvalues --    0.00375   0.00465   0.00575   0.00983   0.01031
  Beta virt. eigenvalues --    0.01080   0.01140   0.01223   0.01290   0.01411
  Beta virt. eigenvalues --    0.01435   0.01463   0.01518   0.01844   0.01861
  Beta virt. eigenvalues --    0.02078   0.02511   0.02606   0.02803   0.02841
  Beta virt. eigenvalues --    0.02988   0.02998   0.03039   0.03062   0.03182
  Beta virt. eigenvalues --    0.03245   0.03330   0.03375   0.03402   0.03524
  Beta virt. eigenvalues --    0.03655   0.04383   0.04892   0.05044   0.05103
  Beta virt. eigenvalues --    0.05204   0.05385   0.05603   0.05700   0.05834
  Beta virt. eigenvalues --    0.05988   0.06058   0.06767   0.07049   0.07247
  Beta virt. eigenvalues --    0.07340   0.07837   0.08044   0.08425   0.08830
  Beta virt. eigenvalues --    0.09219   0.09472   0.09741   0.12064   0.12360
  Beta virt. eigenvalues --    0.12557   0.12786   0.12886   0.13710   0.13858
  Beta virt. eigenvalues --    0.14253   0.14298   0.14528   0.14833   0.15225
  Beta virt. eigenvalues --    0.15278   0.15527   0.15952   0.16186   0.16750
  Beta virt. eigenvalues --    0.18562   0.24928   0.25238   0.27340   0.27707
  Beta virt. eigenvalues --    0.28755   0.29145   0.29242   0.30602   0.33392
  Beta virt. eigenvalues --    0.34281   0.34881   0.36282   0.37846   0.38434
  Beta virt. eigenvalues --    0.39218   0.40171   0.40924   0.42130   0.44139
  Beta virt. eigenvalues --    0.44583   0.44763   0.44881   0.45063   0.45575
  Beta virt. eigenvalues --    0.45956   0.46472   0.46569   0.47107   0.47207
  Beta virt. eigenvalues --    0.47466   0.49144   0.49898   0.50468   0.50901
  Beta virt. eigenvalues --    0.51726   0.52724   0.53048   0.53307   0.53572
  Beta virt. eigenvalues --    0.53769   0.53955   0.55140   0.56698   0.57947
  Beta virt. eigenvalues --    0.59577   0.60064   0.61674   0.63626   0.63980
  Beta virt. eigenvalues --    0.66113   0.68274   0.70495   0.70783   0.72770
  Beta virt. eigenvalues --    0.74084   0.76965   2.06453   2.19632   2.20980
  Beta virt. eigenvalues --    2.26051   2.26359   2.27889   2.31402   4.41732
  Beta virt. eigenvalues --    4.42195   4.42542   4.42919   4.43648   4.43799
  Beta virt. eigenvalues --    4.44745   4.45767   4.47011   4.50709   4.51982
  Beta virt. eigenvalues --    4.52544   4.53926   4.56354   4.59797   4.61496
  Beta virt. eigenvalues --    4.62270   4.64424   4.66974   4.71585   4.71779
  Beta virt. eigenvalues --   96.26016  96.42917  96.44486  96.50594  96.52080
  Beta virt. eigenvalues --   96.54324  96.58533
          Condensed to atoms (all electrons):
               1          2          3          4          5          6
     1  Na  13.585149  -1.126369   0.489272  -1.079074   1.111553  -0.650750
     2  Na  -1.126369  12.269803  -0.271626   1.111084  -1.133796   0.002528
     3  Na   0.489272  -0.271626  11.092308  -0.601343   0.059816  -0.073456
     4  Na  -1.079074   1.111084  -0.601343  11.951396  -0.692647   0.389018
     5  Na   1.111553  -1.133796   0.059816  -0.692647  14.320458  -1.128854
     6  Na  -0.650750   0.002528  -0.073456   0.389018  -1.128854  11.840464
     7  Na  -0.779064   0.142580   0.091681  -0.066064  -1.162902   0.327261
               7
     1  Na  -0.779064
     2  Na   0.142580
     3  Na   0.091681
     4  Na  -0.066064
     5  Na  -1.162902
     6  Na   0.327261
     7  Na  12.022729
          Atomic-Atomic Spin Densities.
               1          2          3          4          5          6
     1  Na   1.075425  -0.323493   0.203720  -0.347254  -0.565250   0.279612
     2  Na  -0.323493   0.164926  -0.054169   0.144498   0.172132  -0.045877
     3  Na   0.203720  -0.054169   0.103141  -0.095469  -0.220209   0.054997
     4  Na  -0.347254   0.144498  -0.095469   0.199981   0.320726  -0.123235
     5  Na  -0.565250   0.172132  -0.220209   0.320726   0.913312  -0.156311
     6  Na   0.279612  -0.045877   0.054997  -0.123235  -0.156311  -0.015271
     7  Na   0.140985  -0.054681   0.013559  -0.038444  -0.016317   0.022686
               7
     1  Na   0.140985
     2  Na  -0.054681
     3  Na   0.013559
     4  Na  -0.038444
     5  Na  -0.016317
     6  Na   0.022686
     7  Na  -0.065931
 Mulliken charges and spin densities:
               1          2
     1  Na  -0.550716   0.463747
     2  Na   0.005795   0.003338
     3  Na   0.213348   0.005570
     4  Na  -0.012368   0.060802
     5  Na  -0.373627   0.448083
     6  Na   0.293789   0.016602
     7  Na   0.423780   0.001858
 Sum of Mulliken charges =  -0.00000   1.00000
 Mulliken charges and spin densities with hydrogens summed into heavy atoms:
               1          2
     1  Na  -0.550716   0.463747
     2  Na   0.005795   0.003338
     3  Na   0.213348   0.005570
     4  Na  -0.012368   0.060802
     5  Na  -0.373627   0.448083
     6  Na   0.293789   0.016602
     7  Na   0.423780   0.001858
 Electronic spatial extent (au):  <R**2>=           1888.5351
 Charge=             -0.0000 electrons
 Dipole moment (field-independent basis, Debye):
    X=             -0.0819    Y=             -0.0428    Z=             -0.0112  Tot=              0.0930
 Quadrupole moment (field-independent basis, Debye-Ang):
   XX=            -61.6602   YY=            -68.8105   ZZ=            -66.7115
   XY=             -0.5960   XZ=             -0.8345   YZ=             -0.6882
 Traceless Quadrupole moment (field-independent basis, Debye-Ang):
   XX=              4.0672   YY=             -3.0831   ZZ=             -0.9841
   XY=             -0.5960   XZ=             -0.8345   YZ=             -0.6882
 Octapole moment (field-independent basis, Debye-Ang**2):
  XXX=             -5.8409  YYY=             -1.6818  ZZZ=              0.6120  XYY=              0.6997
  XXY=              2.5639  XXZ=             -5.1854  XZZ=              1.3026  YZZ=             -1.3790
  YYZ=              2.9836  XYZ=              2.5987
 Hexadecapole moment (field-independent basis, Debye-Ang**3):
 XXXX=          -1261.8009 YYYY=          -1149.6229 ZZZZ=           -754.0785 XXXY=             -1.8711
 XXXZ=             -6.0944 YYYX=            -19.4060 YYYZ=              3.7358 ZZZX=             19.2725
 ZZZY=             -1.8583 XXYY=           -408.9250 XXZZ=           -387.8014 YYZZ=           -357.6096
 XXYZ=            -16.0963 YYXZ=            -31.6290 ZZXY=              5.0745
 N-N= 3.712290784298D+02 E-N=-3.472145034640D+03  KE= 1.133138133473D+03
                          Isotropic Fermi Contact Couplings
        Atom                 a.u.       MegaHertz       Gauss      10(-4) cm-1
     1  Na(23)             0.33947     401.60068     143.30111     133.95957
     2  Na(23)            -0.00861     -10.19116      -3.63646      -3.39940
     3  Na(23)            -0.00836      -9.88602      -3.52758      -3.29762
     4  Na(23)             0.05377      63.60715      22.69661      21.21706
     5  Na(23)             0.35982     425.68148     151.89374     141.99206
     6  Na(23)            -0.00728      -8.60762      -3.07141      -2.87119
     7  Na(23)            -0.00200      -2.36443      -0.84369      -0.78869
 --------------------------------------------------------
       Center         ----  Spin Dipole Couplings  ----
                      3XX-RR        3YY-RR        3ZZ-RR
 --------------------------------------------------------
     1   Atom        0.015458     -0.003996     -0.011462
     2   Atom       -0.018900     -0.013490      0.032389
     3   Atom       -0.005474     -0.015466      0.020940
     4   Atom       -0.010861     -0.010055      0.020916
     5   Atom        0.001203      0.012003     -0.013205
     6   Atom       -0.022255     -0.016049      0.038304
     7   Atom       -0.020836     -0.022202      0.043038
 --------------------------------------------------------
                        XY            XZ            YZ
 --------------------------------------------------------
     1   Atom       -0.005101     -0.004103      0.000892
     2   Atom       -0.001924      0.009188     -0.010229
     3   Atom        0.000015     -0.009093     -0.002047
     4   Atom        0.007724      0.015477      0.013253
     5   Atom        0.006455     -0.000573     -0.002011
     6   Atom       -0.002028     -0.000280     -0.020837
     7   Atom        0.003854      0.010079      0.018579
 --------------------------------------------------------


 ---------------------------------------------------------------------------------
              Anisotropic Spin Dipole Couplings in Principal Axis System
 ---------------------------------------------------------------------------------

       Atom             a.u.   MegaHertz   Gauss  10(-4) cm-1        Axes

              Baa    -0.0121    -1.705    -0.609    -0.569  0.1440 -0.0182  0.9894
     1 Na(23) Bbb    -0.0053    -0.741    -0.265    -0.247  0.2361  0.9716 -0.0165
              Bcc     0.0173     2.447     0.873     0.816  0.9610 -0.2359 -0.1443
 
              Baa    -0.0205    -2.895    -1.033    -0.966  0.9858  0.0288 -0.1657
     2 Na(23) Bbb    -0.0157    -2.212    -0.789    -0.738  0.0063  0.9783  0.2070
              Bcc     0.0362     5.107     1.822     1.704  0.1680 -0.2051  0.9642
 
              Baa    -0.0156    -2.205    -0.787    -0.735  0.0625  0.9955  0.0713
     3 Na(23) Bbb    -0.0083    -1.165    -0.416    -0.389  0.9532 -0.0807  0.2912
              Bcc     0.0239     3.370     1.203     1.124 -0.2957 -0.0498  0.9540
 
              Baa    -0.0185    -2.615    -0.933    -0.872  0.8368 -0.5261 -0.1516
     4 Na(23) Bbb    -0.0141    -1.991    -0.711    -0.664  0.4051  0.7813 -0.4748
              Bcc     0.0326     4.607     1.644     1.537  0.3682  0.3359  0.8670
 
              Baa    -0.0134    -1.887    -0.673    -0.630  0.0047  0.0778  0.9970
     5 Na(23) Bbb    -0.0018    -0.255    -0.091    -0.085  0.9071 -0.4199  0.0285
              Bcc     0.0152     2.142     0.764     0.714  0.4209  0.9042 -0.0726
 
              Baa    -0.0247    -3.494    -1.247    -1.165  0.6287  0.7375  0.2465
     6 Na(23) Bbb    -0.0206    -2.914    -1.040    -0.972  0.7776 -0.5939 -0.2063
              Bcc     0.0454     6.408     2.286     2.137  0.0057 -0.3214  0.9469
 
              Baa    -0.0274    -3.867    -1.380    -1.290 -0.2223  0.9501 -0.2188
     7 Na(23) Bbb    -0.0222    -3.136    -1.119    -1.046  0.9633  0.1794 -0.1999
              Bcc     0.0496     7.003     2.499     2.336  0.1506  0.2552  0.9551
 

 ---------------------------------------------------------------------------------

 No NMR shielding tensors so no spin-rotation constants.
 Leave Link  601 at Tue Dec  5 21:02:18 2023, MaxMem=  1879048192 cpu:               2.3 elap:               0.2
 (Enter /home/sekinelabo/g16/l701.exe)
 ... and contract with generalized density number  0.
 Compute integral first derivatives.
 Leave Link  701 at Tue Dec  5 21:02:18 2023, MaxMem=  1879048192 cpu:               1.6 elap:               0.1
 (Enter /home/sekinelabo/g16/l702.exe)
 L702 exits ... SP integral derivatives will be done elsewhere.
 Leave Link  702 at Tue Dec  5 21:02:18 2023, MaxMem=  1879048192 cpu:               0.5 elap:               0.0
 (Enter /home/sekinelabo/g16/l703.exe)
 Integral derivatives from FoFJK, PRISM(SPDF).
 Compute integral first derivatives, UseDBF=F ICtDFT=           0.
 Calling FoFJK, ICntrl=      2127 FMM=F ISym2X=0 I1Cent= 0 IOpClX= 1 NMat=1 NMatS=1 NMatT=0.
 FoFJK:  IHMeth= 1 ICntrl=    2127 DoSepK=F KAlg= 0 I1Cent=           0 FoldK=F
 IRaf=         0 NMat=       1 IRICut=       1 DoRegI=T DoRafI=F ISym2E= 0 IDoP0=0 IntGTp=1.
 FoFCou: FMM=F IPFlag=           0 FMFlag=      100000 FMFlg1=         800
         NFxFlg=           0 DoJE=F BraDBF=F KetDBF=F FulRan=T
         wScrn=  0.000000 ICntrl=      2127 IOpCl=  1 I1Cent=           0 NGrid=           0
         NMat0=    1 NMatS0=      1 NMatT0=    0 NMatD0=    1 NMtDS0=    0 NMtDT0=    0
 Symmetry not used in FoFCou.
 Leave Link  703 at Tue Dec  5 21:02:21 2023, MaxMem=  1879048192 cpu:              35.1 elap:               2.4
 (Enter /home/sekinelabo/g16/l716.exe)
 Dipole        =-3.22072658D-02-1.68254698D-02-4.39836726D-03
 ***** Axes restored to original set *****
 -------------------------------------------------------------------
 Center     Atomic                   Forces (Hartrees/Bohr)
 Number     Number              X              Y              Z
 -------------------------------------------------------------------
      1       11          -0.003667941    0.000506721   -0.002776734
      2       11          -0.005750246    0.006052092    0.001589928
      3       11          -0.005734762    0.002693734    0.002502875
      4       11           0.001634085   -0.006259112   -0.001779471
      5       11           0.002262230   -0.003470823    0.005261031
      6       11           0.004971255   -0.009076717   -0.002240560
      7       11           0.006285380    0.009554106   -0.002557070
 -------------------------------------------------------------------
 Cartesian Forces:  Max     0.009554106 RMS     0.004777685
 Z-matrix is all fixed cartesians, so copy forces.
 Force constants in Cartesian coordinates: 
                1             2             3             4             5 
      1  0.134042D+00
      2 -0.447396D-02  0.111760D+00
      3  0.212037D-01 -0.108258D-01  0.180202D+00
      4 -0.144936D-01 -0.262804D-02 -0.107906D-01  0.820712D-01
      5  0.827076D-02 -0.182824D-01  0.811519D-02 -0.143212D-01  0.106873D+00
      6  0.578487D-02 -0.198369D-01 -0.305652D-01 -0.949728D-02  0.217855D-01
      7 -0.257345D-01  0.305923D-02 -0.143238D-01 -0.194693D-01  0.959849D-02
      8 -0.499401D-02 -0.190927D-01  0.262534D-02 -0.152340D-01 -0.227711D-01
      9  0.237955D-01  0.514697D-02 -0.407888D-01 -0.747902D-02 -0.101386D-01
     10 -0.118916D-01  0.496602D-02 -0.100277D-01  0.702635D-02  0.535775D-03
     11 -0.675364D-02 -0.215258D-01 -0.570600D-02  0.354341D-04 -0.989660D-02
     12 -0.333212D-03  0.201226D-01 -0.247014D-01  0.183095D-02 -0.402120D-02
     13 -0.102278D-01  0.192439D-02 -0.934140D-02 -0.266426D-01  0.675730D-02
     14  0.898145D-03 -0.450493D-02  0.282028D-02  0.131674D-01 -0.338428D-01
     15 -0.443539D-02  0.360191D-02 -0.227650D-01  0.499961D-02 -0.139379D-01
     16 -0.376844D-01  0.151730D-01  0.145998D-01  0.310367D-02  0.749476D-02
     17  0.695503D-02 -0.266153D-01 -0.800996D-02  0.491199D-02 -0.212542D-03
     18 -0.234623D-01  0.157719D-01 -0.306040D-01  0.388736D-02 -0.624660D-02
     19 -0.340097D-01 -0.180207D-01  0.868004D-02 -0.315957D-01 -0.183359D-01
     20  0.976696D-04 -0.217387D-01  0.109809D-01  0.140685D-01 -0.218677D-01
     21 -0.225532D-01 -0.139807D-01 -0.307778D-01  0.170489D-01  0.444360D-02
                6             7             8             9            10 
      6  0.756180D-01
      7  0.754664D-02  0.935933D-01
      8 -0.688729D-03 -0.143060D-02  0.585224D-01
      9 -0.889824D-02 -0.654482D-02 -0.147238D-02  0.474356D-01
     10  0.185886D-02 -0.310869D-01  0.222514D-01 -0.385797D-02  0.783669D-01
     11  0.531267D-03 -0.776439D-02 -0.337086D-01  0.696330D-02  0.606933D-02
     12  0.361525D-02  0.601487D-02 -0.913426D-03 -0.112236D-01 -0.199223D-02
     13 -0.197915D-01 -0.103861D-01 -0.218149D-03 -0.709708D-02 -0.228593D-01
     14  0.183689D-01 -0.826903D-03  0.689359D-02  0.242930D-03 -0.125102D-01
     15 -0.252766D-01  0.505438D-03  0.764863D-03  0.162222D-02  0.171607D-02
     16  0.468415D-02 -0.360112D-02  0.485785D-03  0.131170D-02 -0.221950D-01
     17 -0.471611D-02  0.205119D-02  0.647626D-02 -0.350912D-02 -0.159765D-01
     18  0.453949D-02  0.396137D-02 -0.352714D-02  0.492816D-02  0.101772D-01
     19  0.941429D-02 -0.331537D-02 -0.860364D-03 -0.128298D-03  0.263941D-02
     20 -0.154439D-01 -0.468702D-02  0.368008D-02  0.276694D-02 -0.533581D-02
     21 -0.190327D-01  0.284036D-02  0.321147D-02  0.692473D-02  0.212577D-02
               11            12            13            14            15 
     11  0.116371D+00
     12 -0.110775D-01  0.650686D-01
     13  0.224255D-02 -0.173317D-01  0.101847D+00
     14 -0.282226D-01 -0.191719D-01 -0.290675D-02  0.103441D+00
     15  0.129382D-01 -0.253940D-01  0.200099D-01 -0.986343D-02  0.143836D+00
     16  0.137974D-01  0.101149D-01 -0.139561D-01  0.246740D-02 -0.111266D-01
     17 -0.192209D-01  0.128742D-01  0.746398D-02 -0.147366D-01  0.533873D-02
     18 -0.760199D-02 -0.153967D-01  0.172097D-01 -0.169150D-01 -0.340625D-01
     19 -0.762668D-02  0.169640D-02 -0.177750D-01 -0.289060D-03 -0.116690D-01
     20 -0.379621D-02  0.218730D-02 -0.152633D-01 -0.290279D-01  0.115760D-02
     21  0.395278D-02  0.803195D-02  0.163421D-01  0.245183D-01 -0.379599D-01
               16            17            18            19            20 
     16  0.943519D-01
     17 -0.204658D-01  0.983196D-01
     18 -0.236267D-01  0.144356D-01  0.857571D-01
     19 -0.200190D-01  0.150601D-01  0.118533D-01  0.104075D+00
     20 -0.189525D-01 -0.440105D-01  0.408322D-02  0.300725D-01  0.116761D+00
     21  0.404281D-02 -0.164134D-01 -0.151616D-01 -0.198468D-01 -0.573208D-02
               21 
     21  0.879753D-01
 Leave Link  716 at Tue Dec  5 21:02:21 2023, MaxMem=  1879048192 cpu:               0.4 elap:               0.0
 (Enter /home/sekinelabo/g16/l103.exe)

 GradGradGradGradGradGradGradGradGradGradGradGradGradGradGradGradGradGrad
 Berny optimization.
 Search for a local minimum.
 Step number   1 out of a maximum of    2
 All quantities printed in internal units (Hartrees-Bohrs-Radians)
 Second derivative matrix not updated -- first step.
 ITU=  0
     Eigenvalues ---    0.06116   0.07169   0.07829   0.09589   0.10925
     Eigenvalues ---    0.11667   0.12491   0.13577   0.14753   0.16152
     Eigenvalues ---    0.16594   0.18285   0.19043   0.19631   0.23020
 Angle between quadratic step and forces=  16.04 degrees.
 Linear search not attempted -- first point.
 B after Tr=     0.000000    0.000000    0.000000
         Rot=    1.000000    0.000000    0.000000    0.000000 Ang=   0.00 deg.
 Variable       Old X    -DE/DX   Delta X   Delta X   Delta X     New X
                                 (Linear)    (Quad)   (Total)
    X1       21.59844  -0.00367   0.00000  -0.02465  -0.02465  21.57378
    Y1       23.51594   0.00051   0.00000   0.00260   0.00260  23.51854
    Z1       19.53504  -0.00278   0.00000  -0.03456  -0.03456  19.50049
    X2       21.63718  -0.00575   0.00000  -0.04896  -0.04896  21.58822
    Y2       27.08091   0.00605   0.00000   0.07448   0.07448  27.15539
    Z2       25.09216   0.00159   0.00000   0.01800   0.01800  25.11016
    X3       17.46228  -0.00573   0.00000  -0.08036  -0.08036  17.38192
    Y3       22.33524   0.00269   0.00000   0.02080   0.02080  22.35604
    Z3       23.68564   0.00250   0.00000   0.03954   0.03954  23.72518
    X4       21.62603   0.00163   0.00000   0.00135   0.00135  21.62738
    Y4       18.37124  -0.00626   0.00000  -0.07843  -0.07843  18.29280
    Z4       23.96399  -0.00178   0.00000  -0.02166  -0.02166  23.94233
    X5       25.27433   0.00226   0.00000   0.02821   0.02821  25.30254
    Y5       22.68730  -0.00347   0.00000  -0.01925  -0.01925  22.66804
    Z5       26.24981   0.00526   0.00000   0.04137   0.04137  26.29117
    X6       26.59185   0.00497   0.00000   0.06800   0.06800  26.65985
    Y6       20.55946  -0.00908   0.00000  -0.06977  -0.06977  20.48970
    Z6       20.41263  -0.00224   0.00000  -0.02455  -0.02455  20.38809
    X7       26.53591   0.00629   0.00000   0.05641   0.05641  26.59232
    Y7       26.17573   0.00955   0.00000   0.06957   0.06957  26.24530
    Z7       21.78646  -0.00256   0.00000  -0.01814  -0.01814  21.76832
         Item               Value     Threshold  Converged?
 Maximum Force            0.009554     0.000450     NO 
 RMS     Force            0.004778     0.000300     NO 
 Maximum Displacement     0.080358     0.001800     NO 
 RMS     Displacement     0.047044     0.001200     NO 
 Predicted change in Energy=-2.268169D-03
 GradGradGradGradGradGradGradGradGradGradGradGradGradGradGradGradGradGrad

 Leave Link  103 at Tue Dec  5 21:02:21 2023, MaxMem=  1879048192 cpu:               0.2 elap:               0.0
 (Enter /home/sekinelabo/g16/l9999.exe)
 1\1\GINC-SEKINELABO-XA7R-R37\Force\UB3LYP\6-311+G(d)\Na7(2)\SEKINELABO
 \05-Dec-2023\0\\#P B3LYP/6-311+g(d) force\\DPGEN\\0,2\Na,11.4294,12.44
 41,10.3375\Na,11.4499,14.3306,13.2782\Na,9.24064,11.8193,12.5339\Na,11
 .444,9.72164,12.6812\Na,13.3746,12.0056,13.8908\Na,14.0718,10.8796,10.
 8019\Na,14.0422,13.8516,11.5289\\Version=ES64L-G16RevB.01\State=2-A\HF
 =-1136.1277371\S2=0.761837\S2-1=0.\S2A=0.750096\RMSD=7.691e-09\RMSF=4.
 778e-03\Dipole=-0.0278227,-0.0237398,-0.0014393\Quadrupole=2.3756519,-
 1.7735066,-0.6021453,0.8232084,-1.2831077,-1.1873519\PG=C01 [X(Na7)]\\
 @


 Mondays are the potholes in the road of life.
                                -- Tom Wilson
 Job cpu time:       0 days  0 hours  4 minutes  3.6 seconds.
 Elapsed time:       0 days  0 hours  0 minutes 20.6 seconds.
 File lengths (MBytes):  RWF=     32 Int=      0 D2E=      0 Chk=      4 Scr=      1
 Normal termination of Gaussian 16 at Tue Dec  5 21:02:21 2023.
