 Set GAUSS_MDEF to "14GB".
 Entering Gaussian System, Link 0=g16
 Initial command:
 /home/sekinelabo/g16/l1.exe "/home/sekinelabo/g16temp/Gau-855731.inp" -scrdir="/home/sekinelabo/g16temp/"
 Entering Link 1 = /home/sekinelabo/g16/l1.exe PID=    855733.
  
 Copyright (c) 1988-2017, Gaussian, Inc.  All Rights Reserved.
  
 This is part of the Gaussian(R) 16 program.  It is based on
 the Gaussian(R) 09 system (copyright 2009, Gaussian, Inc.),
 the Gaussian(R) 03 system (copyright 2003, Gaussian, Inc.),
 the Gaussian(R) 98 system (copyright 1998, Gaussian, Inc.),
 the Gaussian(R) 94 system (copyright 1995, Gaussian, Inc.),
 the Gaussian 92(TM) system (copyright 1992, Gaussian, Inc.),
 the Gaussian 90(TM) system (copyright 1990, Gaussian, Inc.),
 the Gaussian 88(TM) system (copyright 1988, Gaussian, Inc.),
 the Gaussian 86(TM) system (copyright 1986, Carnegie Mellon
 University), and the Gaussian 82(TM) system (copyright 1983,
 Carnegie Mellon University). Gaussian is a federally registered
 trademark of Gaussian, Inc.
  
 This software contains proprietary and confidential information,
 including trade secrets, belonging to Gaussian, Inc.
  
 This software is provided under written license and may be
 used, copied, transmitted, or stored only in accord with that
 written license.
  
 The following legend is applicable only to US Government
 contracts under FAR:
  
                    RESTRICTED RIGHTS LEGEND
  
 Use, reproduction and disclosure by the US Government is
 subject to restrictions as set forth in subparagraphs (a)
 and (c) of the Commercial Computer Software - Restricted
 Rights clause in FAR 52.227-19.
  
 Gaussian, Inc.
 340 Quinnipiac St., Bldg. 40, Wallingford CT 06492
  
  
 ---------------------------------------------------------------
 Warning -- This program may not be used in any manner that
 competes with the business of Gaussian, Inc. or will provide
 assistance to any competitor of Gaussian, Inc.  The licensee
 of this program is prohibited from giving any competitor of
 Gaussian, Inc. access to this program.  By using this program,
 the user acknowledges that Gaussian, Inc. is engaged in the
 business of creating and licensing software in the field of
 computational chemistry and represents and warrants to the
 licensee that it is not a competitor of Gaussian, Inc. and that
 it will not use this program in any manner prohibited above.
 ---------------------------------------------------------------
  

 Cite this work as:
 Gaussian 16, Revision B.01,
 M. J. Frisch, G. W. Trucks, H. B. Schlegel, G. E. Scuseria, 
 M. A. Robb, J. R. Cheeseman, G. Scalmani, V. Barone, 
 G. A. Petersson, H. Nakatsuji, X. Li, M. Caricato, A. V. Marenich, 
 J. Bloino, B. G. Janesko, R. Gomperts, B. Mennucci, H. P. Hratchian, 
 J. V. Ortiz, A. F. Izmaylov, J. L. Sonnenberg, D. Williams-Young, 
 F. Ding, F. Lipparini, F. Egidi, J. Goings, B. Peng, A. Petrone, 
 T. Henderson, D. Ranasinghe, V. G. Zakrzewski, J. Gao, N. Rega, 
 G. Zheng, W. Liang, M. Hada, M. Ehara, K. Toyota, R. Fukuda, 
 J. Hasegawa, M. Ishida, T. Nakajima, Y. Honda, O. Kitao, H. Nakai, 
 T. Vreven, K. Throssell, J. A. Montgomery, Jr., J. E. Peralta, 
 F. Ogliaro, M. J. Bearpark, J. J. Heyd, E. N. Brothers, K. N. Kudin, 
 V. N. Staroverov, T. A. Keith, R. Kobayashi, J. Normand, 
 K. Raghavachari, A. P. Rendell, J. C. Burant, S. S. Iyengar, 
 J. Tomasi, M. Cossi, J. M. Millam, M. Klene, C. Adamo, R. Cammi, 
 J. W. Ochterski, R. L. Martin, K. Morokuma, O. Farkas, 
 J. B. Foresman, and D. J. Fox, Gaussian, Inc., Wallingford CT, 2016.
 
 ******************************************
 Gaussian 16:  ES64L-G16RevB.01 20-Dec-2017
                 3-Dec-2023 
 ******************************************
 %nproc=15
 Will use up to   15 processors via shared memory.
 -------------------------
 #P B3LYP/6-311+g(d) force
 -------------------------
 1/10=7,30=1,38=1/1,3;
 2/12=2,17=6,18=5,40=1/2;
 3/5=4,6=6,7=11,11=2,25=1,30=1,71=1,74=-5/1,2,3;
 4//1;
 5/5=2,38=5/2;
 6/7=2,8=2,9=2,10=2,28=1/1;
 7/29=1/1,2,3,16;
 1/10=7,30=1/3;
 99//99;
 Leave Link    1 at Sun Dec  3 21:09:43 2023, MaxMem=           0 cpu:               0.3 elap:               0.0
 (Enter /home/sekinelabo/g16/l101.exe)
 -----
 DPGEN
 -----
 Symbolic Z-matrix:
 Charge =  0 Multiplicity = 2
 Na                    10.9277   13.7031   9.18316 
 Na                    13.8438   12.761    11.2126 
 Na                    15.3136   10.0821   13.3139 
 Na                    13.9342   8.0578    15.0185 
 Na                    12.029    15.9215   11.7657 
 Na                    11.1007   10.8758   12.9564 
 Na                    8.85423   14.602    12.553 
 
 ITRead=  0  0  0  0  0  0  0
 MicOpt= -1 -1 -1 -1 -1 -1 -1
 NAtoms=      7 NQM=        7 NQMF=       0 NMMI=      0 NMMIF=      0
                NMic=       0 NMicF=      0.
                    Isotopes and Nuclear Properties:
 (Nuclear quadrupole moments (NQMom) in fm**2, nuclear magnetic moments (NMagM)
  in nuclear magnetons)

  Atom         1           2           3           4           5           6           7
 IAtWgt=          23          23          23          23          23          23          23
 AtmWgt=  22.9897697  22.9897697  22.9897697  22.9897697  22.9897697  22.9897697  22.9897697
 NucSpn=           3           3           3           3           3           3           3
 AtZEff=  -0.0000000  -0.0000000  -0.0000000  -0.0000000  -0.0000000  -0.0000000  -0.0000000
 NQMom=   10.4000000  10.4000000  10.4000000  10.4000000  10.4000000  10.4000000  10.4000000
 NMagM=    2.2175200   2.2175200   2.2175200   2.2175200   2.2175200   2.2175200   2.2175200
 AtZNuc=  11.0000000  11.0000000  11.0000000  11.0000000  11.0000000  11.0000000  11.0000000
 Leave Link  101 at Sun Dec  3 21:09:43 2023, MaxMem=  1879048192 cpu:               2.5 elap:               0.2
 (Enter /home/sekinelabo/g16/l103.exe)

 GradGradGradGradGradGradGradGradGradGradGradGradGradGradGradGradGradGrad
 Berny optimization.
 Initialization pass.
 Trust Radius=3.00D-01 FncErr=1.00D-07 GrdErr=1.00D-07 EigMax=2.50D+02 EigMin=1.00D-04
 Number of steps in this run=      2 maximum allowed number of steps=      2.
 GradGradGradGradGradGradGradGradGradGradGradGradGradGradGradGradGradGrad

 Leave Link  103 at Sun Dec  3 21:09:43 2023, MaxMem=  1879048192 cpu:               0.2 elap:               0.0
 (Enter /home/sekinelabo/g16/l202.exe)
                          Input orientation:                          
 ---------------------------------------------------------------------
 Center     Atomic      Atomic             Coordinates (Angstroms)
 Number     Number       Type             X           Y           Z
 ---------------------------------------------------------------------
      1         11           0       10.927700   13.703100    9.183160
      2         11           0       13.843800   12.761000   11.212600
      3         11           0       15.313600   10.082100   13.313900
      4         11           0       13.934200    8.057800   15.018500
      5         11           0       12.029000   15.921500   11.765700
      6         11           0       11.100700   10.875800   12.956400
      7         11           0        8.854230   14.602000   12.553000
 ---------------------------------------------------------------------
                    Distance matrix (angstroms):
                    1          2          3          4          5
     1  Na   0.000000
     2  Na   3.675570   0.000000
     3  Na   7.029280   3.708407   0.000000
     4  Na   8.657924   6.050879   2.984325   0.000000
     5  Na   3.578222   3.686215   6.876344   8.720566   0.000000
     6  Na   4.718145   3.757581   4.301894   4.496899   5.266744
     7  Na   4.057477   5.484684   7.920349   8.643572   3.527051
                    6          7
     6  Na   0.000000
     7  Na   4.369660   0.000000
 Stoichiometry    Na7(2)
 Framework group  C1[X(Na7)]
 Deg. of freedom    15
 Full point group                 C1      NOp   1
 Largest Abelian subgroup         C1      NOp   1
 Largest concise Abelian subgroup C1      NOp   1
                         Standard orientation:                         
 ---------------------------------------------------------------------
 Center     Atomic      Atomic             Coordinates (Angstroms)
 Number     Number       Type             X           Y           Z
 ---------------------------------------------------------------------
      1         11           0       -3.013299   -0.828520    1.927542
      2         11           0       -0.027085   -1.947685    0.100027
      3         11           0        3.609366   -1.386081   -0.361608
      4         11           0        5.171803    1.142252   -0.092313
      5         11           0       -3.135758   -1.008280   -1.644063
      6         11           0        0.769078    1.683794    0.645826
      7         11           0       -3.374104    2.344519   -0.575410
 ---------------------------------------------------------------------
 Rotational constants (GHZ):           0.9020323           0.2819005           0.2506038
 Leave Link  202 at Sun Dec  3 21:09:43 2023, MaxMem=  1879048192 cpu:               0.0 elap:               0.0
 (Enter /home/sekinelabo/g16/l301.exe)
 Standard basis: 6-311+G(d) (5D, 7F)
 Ernie: Thresh=  0.10000D-02 Tol=  0.10000D-05 Strict=F.
 There are   217 symmetry adapted cartesian basis functions of A   symmetry.
 There are   210 symmetry adapted basis functions of A   symmetry.
   210 basis functions,   350 primitive gaussians,   217 cartesian basis functions
    39 alpha electrons       38 beta electrons
       nuclear repulsion energy       282.7949423402 Hartrees.
 IExCor=  402 DFT=T Ex+Corr=B3LYP ExCW=0 ScaHFX=  0.200000
 ScaDFX=  0.800000  0.720000  1.000000  0.810000 ScalE2=  1.000000  1.000000
 IRadAn=      5 IRanWt=     -1 IRanGd=            0 ICorTp=0 IEmpDi=  4
 NAtoms=    7 NActive=    7 NUniq=    7 SFac= 1.00D+00 NAtFMM=   60 NAOKFM=F Big=F
 Integral buffers will be    131072 words long.
 Raffenetti 2 integral format.
 Two-electron integral symmetry is turned on.
 Leave Link  301 at Sun Dec  3 21:09:43 2023, MaxMem=  1879048192 cpu:               0.5 elap:               0.0
 (Enter /home/sekinelabo/g16/l302.exe)
 NPDir=0 NMtPBC=     1 NCelOv=     1 NCel=       1 NClECP=     1 NCelD=      1
         NCelK=      1 NCelE2=     1 NClLst=     1 CellRange=     0.0.
 One-electron integrals computed using PRISM.
 One-electron integral symmetry used in STVInt
 NBasis=   210 RedAO= T EigKep=  9.47D-06  NBF=   210
 NBsUse=   210 1.00D-06 EigRej= -1.00D+00 NBFU=   210
 Precomputing XC quadrature grid using
 IXCGrd= 4 IRadAn=           5 IRanWt=          -1 IRanGd=           0 AccXCQ= 0.00D+00.
 Generated NRdTot=       0 NPtTot=           0 NUsed=           0 NTot=          32
 NSgBfM=   210   210   210   210   210 MxSgAt=     7 MxSgA2=     7.
 Leave Link  302 at Sun Dec  3 21:09:43 2023, MaxMem=  1879048192 cpu:               2.0 elap:               0.1
 (Enter /home/sekinelabo/g16/l303.exe)
 DipDrv:  MaxL=1.
 Leave Link  303 at Sun Dec  3 21:09:43 2023, MaxMem=  1879048192 cpu:               0.5 elap:               0.0
 (Enter /home/sekinelabo/g16/l401.exe)
 ExpMin= 7.60D-03 ExpMax= 3.62D+04 ExpMxC= 1.21D+03 IAcc=3 IRadAn=         5 AccDes= 0.00D+00
 Harris functional with IExCor=  402 and IRadAn=       5 diagonalized for initial guess.
 HarFok:  IExCor=  402 AccDes= 0.00D+00 IRadAn=         5 IDoV= 1 UseB2=F ITyADJ=14
 ICtDFT=  3500011 ScaDFX=  1.000000  1.000000  1.000000  1.000000
 FoFCou: FMM=F IPFlag=           0 FMFlag=      100000 FMFlg1=           0
         NFxFlg=           0 DoJE=T BraDBF=F KetDBF=T FulRan=T
         wScrn=  0.000000 ICntrl=       500 IOpCl=  0 I1Cent=   200000004 NGrid=           0
         NMat0=    1 NMatS0=      1 NMatT0=    0 NMatD0=    1 NMtDS0=    0 NMtDT0=    0
 Petite list used in FoFCou.
 Harris En= -1135.87509883542    
 JPrj=0 DoOrth=F DoCkMO=F.
 Initial guess <Sx>= 0.0000 <Sy>= 0.0000 <Sz>= 0.5000 <S**2>= 0.7500 S= 0.5000
 Leave Link  401 at Sun Dec  3 21:09:44 2023, MaxMem=  1879048192 cpu:               4.3 elap:               0.3
 (Enter /home/sekinelabo/g16/l502.exe)
 Keep R1 and R2 ints in memory in canonical form, NReq=506573307.
 FoFCou: FMM=F IPFlag=           0 FMFlag=           0 FMFlg1=           0
         NFxFlg=           0 DoJE=F BraDBF=F KetDBF=F FulRan=T
         wScrn=  0.000000 ICntrl=       600 IOpCl=  0 I1Cent=           0 NGrid=           0
         NMat0=    1 NMatS0=  22155 NMatT0=    0 NMatD0=    1 NMtDS0=    0 NMtDT0=    0
 Symmetry not used in FoFCou.
 Two-electron integral symmetry not used.
 UHF open shell SCF:
 Using DIIS extrapolation, IDIIS=  1040.
 NGot=  1879048192 LenX=  1388082593 LenY=  1388035063
 Requested convergence on RMS density matrix=1.00D-08 within 128 cycles.
 Requested convergence on MAX density matrix=1.00D-06.
 Requested convergence on             energy=1.00D-06.
 No special actions if energy rises.

 Cycle   1  Pass 1  IDiag  1:
 E= -1136.07600047603    
 DIIS: error= 9.70D-03 at cycle   1 NSaved=   1.
 NSaved= 1 IEnMin= 1 EnMin= -1136.07600047603     IErMin= 1 ErrMin= 9.70D-03
 ErrMax= 9.70D-03  0.00D+00 EMaxC= 1.00D-01 BMatC= 1.86D-01 BMatP= 1.86D-01
 IDIUse=3 WtCom= 9.03D-01 WtEn= 9.70D-02
 Coeff-Com:  0.100D+01
 Coeff-En:   0.100D+01
 Coeff:      0.100D+01
 Gap=     0.026 Goal=   None    Shift=    0.000
 Gap=     0.031 Goal=   None    Shift=    0.000
 GapD=    0.026 DampG=0.250 DampE=1.000 DampFc=0.2500 IDamp=-1.
 Damping current iteration by 2.50D-01
 RMSDP=6.02D-03 MaxDP=3.03D-01              OVMax= 2.15D-01

 Cycle   2  Pass 1  IDiag  1:
 E= -1136.08475612198     Delta-E=       -0.008755645953 Rises=F Damp=T
 DIIS: error= 6.81D-03 at cycle   2 NSaved=   2.
 NSaved= 2 IEnMin= 2 EnMin= -1136.08475612198     IErMin= 2 ErrMin= 6.81D-03
 ErrMax= 6.81D-03  0.00D+00 EMaxC= 1.00D-01 BMatC= 7.19D-02 BMatP= 1.86D-01
 IDIUse=3 WtCom= 9.32D-01 WtEn= 6.81D-02
 Coeff-Com: -0.129D+01 0.229D+01
 Coeff-En:   0.000D+00 0.100D+01
 Coeff:     -0.121D+01 0.221D+01
 Gap=     0.033 Goal=   None    Shift=    0.000
 Gap=     0.031 Goal=   None    Shift=    0.000
 RMSDP=4.02D-03 MaxDP=1.69D-01 DE=-8.76D-03 OVMax= 2.29D-01

 Cycle   3  Pass 1  IDiag  1:
 E= -1136.09666465962     Delta-E=       -0.011908537633 Rises=F Damp=F
 DIIS: error= 3.98D-03 at cycle   3 NSaved=   3.
 NSaved= 3 IEnMin= 3 EnMin= -1136.09666465962     IErMin= 3 ErrMin= 3.98D-03
 ErrMax= 3.98D-03  0.00D+00 EMaxC= 1.00D-01 BMatC= 4.28D-03 BMatP= 7.19D-02
 IDIUse=3 WtCom= 9.60D-01 WtEn= 3.98D-02
 Coeff-Com: -0.309D+00 0.533D+00 0.776D+00
 Coeff-En:   0.000D+00 0.000D+00 0.100D+01
 Coeff:     -0.297D+00 0.512D+00 0.785D+00
 Gap=     0.026 Goal=   None    Shift=    0.000
 Gap=     0.035 Goal=   None    Shift=    0.000
 RMSDP=4.01D-03 MaxDP=2.87D-01 DE=-1.19D-02 OVMax= 3.22D-01

 Cycle   4  Pass 1  IDiag  1:
 E= -1136.08432560824     Delta-E=        0.012339051378 Rises=F Damp=F
 DIIS: error= 5.55D-03 at cycle   4 NSaved=   4.
 NSaved= 4 IEnMin= 3 EnMin= -1136.09666465962     IErMin= 3 ErrMin= 3.98D-03
 ErrMax= 5.55D-03  0.00D+00 EMaxC= 1.00D-01 BMatC= 1.13D-02 BMatP= 4.28D-03
 IDIUse=3 WtCom= 1.18D-01 WtEn= 8.82D-01
 Coeff-Com: -0.225D-01 0.363D-01 0.616D+00 0.370D+00
 Coeff-En:   0.000D+00 0.000D+00 0.680D+00 0.320D+00
 Coeff:     -0.266D-02 0.429D-02 0.673D+00 0.326D+00
 Gap=     0.031 Goal=   None    Shift=    0.000
 Gap=     0.031 Goal=   None    Shift=    0.000
 RMSDP=2.09D-03 MaxDP=1.46D-01 DE= 1.23D-02 OVMax= 1.70D-01

 Cycle   5  Pass 1  IDiag  1:
 E= -1136.10275003711     Delta-E=       -0.018424428869 Rises=F Damp=F
 DIIS: error= 1.03D-03 at cycle   5 NSaved=   5.
 NSaved= 5 IEnMin= 5 EnMin= -1136.10275003711     IErMin= 5 ErrMin= 1.03D-03
 ErrMax= 1.03D-03  0.00D+00 EMaxC= 1.00D-01 BMatC= 4.36D-04 BMatP= 4.28D-03
 IDIUse=3 WtCom= 9.90D-01 WtEn= 1.03D-02
 Coeff-Com:  0.591D-02-0.889D-02 0.239D+00 0.278D-02 0.761D+00
 Coeff-En:   0.000D+00 0.000D+00 0.119D+00 0.000D+00 0.881D+00
 Coeff:      0.585D-02-0.880D-02 0.238D+00 0.275D-02 0.762D+00
 Gap=     0.030 Goal=   None    Shift=    0.000
 Gap=     0.031 Goal=   None    Shift=    0.000
 RMSDP=5.79D-04 MaxDP=4.75D-02 DE=-1.84D-02 OVMax= 2.83D-02

 Cycle   6  Pass 1  IDiag  1:
 E= -1136.10338049260     Delta-E=       -0.000630455491 Rises=F Damp=F
 DIIS: error= 2.71D-04 at cycle   6 NSaved=   6.
 NSaved= 6 IEnMin= 6 EnMin= -1136.10338049260     IErMin= 6 ErrMin= 2.71D-04
 ErrMax= 2.71D-04  0.00D+00 EMaxC= 1.00D-01 BMatC= 2.66D-05 BMatP= 4.36D-04
 IDIUse=3 WtCom= 9.97D-01 WtEn= 2.71D-03
 Coeff-Com:  0.313D-02-0.515D-02 0.640D-01-0.456D-01 0.422D+00 0.562D+00
 Coeff-En:   0.000D+00 0.000D+00 0.000D+00 0.000D+00 0.000D+00 0.100D+01
 Coeff:      0.312D-02-0.514D-02 0.638D-01-0.454D-01 0.421D+00 0.563D+00
 Gap=     0.031 Goal=   None    Shift=    0.000
 Gap=     0.031 Goal=   None    Shift=    0.000
 RMSDP=1.71D-04 MaxDP=1.60D-02 DE=-6.30D-04 OVMax= 1.25D-02

 Cycle   7  Pass 1  IDiag  1:
 E= -1136.10342262327     Delta-E=       -0.000042130674 Rises=F Damp=F
 DIIS: error= 8.15D-05 at cycle   7 NSaved=   7.
 NSaved= 7 IEnMin= 7 EnMin= -1136.10342262327     IErMin= 7 ErrMin= 8.15D-05
 ErrMax= 8.15D-05  0.00D+00 EMaxC= 1.00D-01 BMatC= 2.81D-06 BMatP= 2.66D-05
 IDIUse=1 WtCom= 1.00D+00 WtEn= 0.00D+00
 Coeff-Com:  0.600D-04-0.387D-03 0.169D-03-0.211D-01 0.865D-01 0.224D+00
 Coeff-Com:  0.711D+00
 Coeff:      0.600D-04-0.387D-03 0.169D-03-0.211D-01 0.865D-01 0.224D+00
 Coeff:      0.711D+00
 Gap=     0.031 Goal=   None    Shift=    0.000
 Gap=     0.031 Goal=   None    Shift=    0.000
 RMSDP=1.11D-04 MaxDP=7.12D-03 DE=-4.21D-05 OVMax= 7.22D-03

 Cycle   8  Pass 1  IDiag  1:
 E= -1136.10343674650     Delta-E=       -0.000014123223 Rises=F Damp=F
 DIIS: error= 6.32D-05 at cycle   8 NSaved=   8.
 NSaved= 8 IEnMin= 8 EnMin= -1136.10343674650     IErMin= 8 ErrMin= 6.32D-05
 ErrMax= 6.32D-05  0.00D+00 EMaxC= 1.00D-01 BMatC= 1.28D-06 BMatP= 2.81D-06
 IDIUse=1 WtCom= 1.00D+00 WtEn= 0.00D+00
 Coeff-Com: -0.324D-04 0.211D-04-0.106D-01-0.267D-02-0.325D-01-0.611D-02
 Coeff-Com:  0.294D+00 0.757D+00
 Coeff:     -0.324D-04 0.211D-04-0.106D-01-0.267D-02-0.325D-01-0.611D-02
 Coeff:      0.294D+00 0.757D+00
 Gap=     0.031 Goal=   None    Shift=    0.000
 Gap=     0.031 Goal=   None    Shift=    0.000
 RMSDP=8.71D-05 MaxDP=4.40D-03 DE=-1.41D-05 OVMax= 8.57D-03

 Cycle   9  Pass 1  IDiag  1:
 E= -1136.10345140411     Delta-E=       -0.000014657610 Rises=F Damp=F
 DIIS: error= 5.12D-05 at cycle   9 NSaved=   9.
 NSaved= 9 IEnMin= 9 EnMin= -1136.10345140411     IErMin= 9 ErrMin= 5.12D-05
 ErrMax= 5.12D-05  0.00D+00 EMaxC= 1.00D-01 BMatC= 9.93D-07 BMatP= 1.28D-06
 IDIUse=1 WtCom= 1.00D+00 WtEn= 0.00D+00
 Coeff-Com:  0.269D-03-0.341D-03-0.557D-02-0.149D-03-0.206D-01-0.249D-01
 Coeff-Com:  0.312D-01 0.371D+00 0.649D+00
 Coeff:      0.269D-03-0.341D-03-0.557D-02-0.149D-03-0.206D-01-0.249D-01
 Coeff:      0.312D-01 0.371D+00 0.649D+00
 Gap=     0.031 Goal=   None    Shift=    0.000
 Gap=     0.031 Goal=   None    Shift=    0.000
 RMSDP=7.11D-05 MaxDP=3.44D-03 DE=-1.47D-05 OVMax= 7.82D-03

 Cycle  10  Pass 1  IDiag  1:
 E= -1136.10346479212     Delta-E=       -0.000013388016 Rises=F Damp=F
 DIIS: error= 5.32D-05 at cycle  10 NSaved=  10.
 NSaved=10 IEnMin=10 EnMin= -1136.10346479212     IErMin= 9 ErrMin= 5.12D-05
 ErrMax= 5.32D-05  0.00D+00 EMaxC= 1.00D-01 BMatC= 1.02D-06 BMatP= 9.93D-07
 IDIUse=1 WtCom= 1.00D+00 WtEn= 0.00D+00
 Coeff-Com:  0.357D-03-0.422D-03-0.112D-01 0.248D-02-0.515D-01-0.628D-01
 Coeff-Com:  0.116D-01 0.647D+00 0.145D+01-0.989D+00
 Coeff:      0.357D-03-0.422D-03-0.112D-01 0.248D-02-0.515D-01-0.628D-01
 Coeff:      0.116D-01 0.647D+00 0.145D+01-0.989D+00
 Gap=     0.031 Goal=   None    Shift=    0.000
 Gap=     0.031 Goal=   None    Shift=    0.000
 RMSDP=7.33D-05 MaxDP=2.73D-03 DE=-1.34D-05 OVMax= 9.06D-03

 Cycle  11  Pass 1  IDiag  1:
 E= -1136.10345012562     Delta-E=        0.000014666506 Rises=F Damp=F
 DIIS: error= 5.12D-05 at cycle  11 NSaved=  11.
 NSaved=11 IEnMin=10 EnMin= -1136.10346479212     IErMin= 9 ErrMin= 5.12D-05
 ErrMax= 5.12D-05  0.00D+00 EMaxC= 1.00D-01 BMatC= 9.14D-07 BMatP= 9.93D-07
 IDIUse=1 WtCom= 1.00D+00 WtEn= 0.00D+00
 Coeff-Com:  0.595D-03-0.677D-03-0.118D-01 0.960D-02-0.645D-01-0.120D+00
 Coeff-Com: -0.306D+00 0.443D+00 0.271D+01-0.631D+01 0.465D+01
 Coeff:      0.595D-03-0.677D-03-0.118D-01 0.960D-02-0.645D-01-0.120D+00
 Coeff:     -0.306D+00 0.443D+00 0.271D+01-0.631D+01 0.465D+01
 Gap=     0.031 Goal=   None    Shift=    0.000
 Gap=     0.031 Goal=   None    Shift=    0.000
 RMSDP=3.43D-04 MaxDP=1.20D-02 DE= 1.47D-05 OVMax= 4.30D-02

 Cycle  12  Pass 1  IDiag  1:
 E= -1136.10339775984     Delta-E=        0.000052365780 Rises=F Damp=F
 DIIS: error= 3.70D-05 at cycle  12 NSaved=  12.
 NSaved=12 IEnMin=10 EnMin= -1136.10346479212     IErMin=12 ErrMin= 3.70D-05
 ErrMax= 3.70D-05  0.00D+00 EMaxC= 1.00D-01 BMatC= 5.21D-07 BMatP= 9.14D-07
 IDIUse=1 WtCom= 1.00D+00 WtEn= 0.00D+00
 Coeff-Com:  0.407D-03-0.472D-03 0.599D-02 0.189D-02 0.275D-01-0.179D-01
 Coeff-Com: -0.271D+00-0.329D+00 0.761D+00-0.337D+01 0.312D+01 0.108D+01
 Coeff:      0.407D-03-0.472D-03 0.599D-02 0.189D-02 0.275D-01-0.179D-01
 Coeff:     -0.271D+00-0.329D+00 0.761D+00-0.337D+01 0.312D+01 0.108D+01
 Gap=     0.031 Goal=   None    Shift=    0.000
 Gap=     0.031 Goal=   None    Shift=    0.000
 RMSDP=1.90D-04 MaxDP=7.51D-03 DE= 5.24D-05 OVMax= 2.44D-02

 Cycle  13  Pass 1  IDiag  1:
 E= -1136.10338315604     Delta-E=        0.000014603795 Rises=F Damp=F
 DIIS: error= 3.12D-05 at cycle  13 NSaved=  13.
 NSaved=13 IEnMin=10 EnMin= -1136.10346479212     IErMin=13 ErrMin= 3.12D-05
 ErrMax= 3.12D-05  0.00D+00 EMaxC= 1.00D-01 BMatC= 2.65D-07 BMatP= 5.21D-07
 IDIUse=1 WtCom= 1.00D+00 WtEn= 0.00D+00
 Coeff-Com:  0.191D-03-0.224D-03 0.171D-01-0.942D-02 0.100D+00 0.964D-01
 Coeff-Com: -0.914D-01-0.762D+00-0.100D+01 0.129D+01-0.270D+00 0.519D+00
 Coeff-Com:  0.111D+01
 Coeff:      0.191D-03-0.224D-03 0.171D-01-0.942D-02 0.100D+00 0.964D-01
 Coeff:     -0.914D-01-0.762D+00-0.100D+01 0.129D+01-0.270D+00 0.519D+00
 Coeff:      0.111D+01
 Gap=     0.031 Goal=   None    Shift=    0.000
 Gap=     0.031 Goal=   None    Shift=    0.000
 RMSDP=1.28D-04 MaxDP=5.59D-03 DE= 1.46D-05 OVMax= 1.72D-02

 Cycle  14  Pass 1  IDiag  1:
 E= -1136.10337970532     Delta-E=        0.000003450722 Rises=F Damp=F
 DIIS: error= 2.06D-05 at cycle  14 NSaved=  14.
 NSaved=14 IEnMin=10 EnMin= -1136.10346479212     IErMin=14 ErrMin= 2.06D-05
 ErrMax= 2.06D-05  0.00D+00 EMaxC= 1.00D-01 BMatC= 9.89D-08 BMatP= 2.65D-07
 IDIUse=1 WtCom= 1.00D+00 WtEn= 0.00D+00
 Coeff-Com:  0.322D-04-0.455D-04 0.507D-02-0.390D-02 0.250D-01 0.275D-01
 Coeff-Com:  0.336D-01-0.111D+00-0.524D+00 0.144D+01-0.989D+00-0.378D+00
 Coeff-Com:  0.256D+00 0.122D+01
 Coeff:      0.322D-04-0.455D-04 0.507D-02-0.390D-02 0.250D-01 0.275D-01
 Coeff:      0.336D-01-0.111D+00-0.524D+00 0.144D+01-0.989D+00-0.378D+00
 Coeff:      0.256D+00 0.122D+01
 Gap=     0.031 Goal=   None    Shift=    0.000
 Gap=     0.031 Goal=   None    Shift=    0.000
 RMSDP=6.56D-05 MaxDP=3.20D-03 DE= 3.45D-06 OVMax= 8.97D-03

 Cycle  15  Pass 1  IDiag  1:
 E= -1136.10337991373     Delta-E=       -0.000000208413 Rises=F Damp=F
 DIIS: error= 1.30D-05 at cycle  15 NSaved=  15.
 NSaved=15 IEnMin=10 EnMin= -1136.10346479212     IErMin=15 ErrMin= 1.30D-05
 ErrMax= 1.30D-05  0.00D+00 EMaxC= 1.00D-01 BMatC= 4.47D-08 BMatP= 9.89D-08
 IDIUse=1 WtCom= 1.00D+00 WtEn= 0.00D+00
 Coeff-Com:  0.510D-05-0.160D-04-0.159D-02 0.964D-03-0.152D-01-0.235D-01
 Coeff-Com:  0.149D-01 0.163D+00-0.105D-01 0.170D+00-0.202D+00-0.247D+00
 Coeff-Com: -0.222D+00 0.578D+00 0.794D+00
 Coeff:      0.510D-05-0.160D-04-0.159D-02 0.964D-03-0.152D-01-0.235D-01
 Coeff:      0.149D-01 0.163D+00-0.105D-01 0.170D+00-0.202D+00-0.247D+00
 Coeff:     -0.222D+00 0.578D+00 0.794D+00
 Gap=     0.031 Goal=   None    Shift=    0.000
 Gap=     0.031 Goal=   None    Shift=    0.000
 RMSDP=2.80D-05 MaxDP=1.05D-03 DE=-2.08D-07 OVMax= 3.76D-03

 Cycle  16  Pass 1  IDiag  1:
 E= -1136.10338014648     Delta-E=       -0.000000232745 Rises=F Damp=F
 DIIS: error= 8.09D-06 at cycle  16 NSaved=  16.
 NSaved=16 IEnMin=10 EnMin= -1136.10346479212     IErMin=16 ErrMin= 8.09D-06
 ErrMax= 8.09D-06  0.00D+00 EMaxC= 1.00D-01 BMatC= 1.42D-08 BMatP= 4.47D-08
 IDIUse=1 WtCom= 1.00D+00 WtEn= 0.00D+00
 Coeff-Com: -0.496D-04 0.614D-04-0.176D-02 0.593D-03-0.987D-02-0.776D-02
 Coeff-Com:  0.411D-01 0.785D-01-0.220D-01 0.844D-01-0.144D+00 0.462D-01
 Coeff-Com: -0.558D-01-0.395D+00-0.104D+00 0.149D+01
 Coeff:     -0.496D-04 0.614D-04-0.176D-02 0.593D-03-0.987D-02-0.776D-02
 Coeff:      0.411D-01 0.785D-01-0.220D-01 0.844D-01-0.144D+00 0.462D-01
 Coeff:     -0.558D-01-0.395D+00-0.104D+00 0.149D+01
 Gap=     0.031 Goal=   None    Shift=    0.000
 Gap=     0.031 Goal=   None    Shift=    0.000
 RMSDP=2.74D-05 MaxDP=1.63D-03 DE=-2.33D-07 OVMax= 3.55D-03

 Cycle  17  Pass 1  IDiag  1:
 E= -1136.10338043462     Delta-E=       -0.000000288143 Rises=F Damp=F
 DIIS: error= 4.99D-06 at cycle  17 NSaved=  17.
 NSaved=17 IEnMin=10 EnMin= -1136.10346479212     IErMin=17 ErrMin= 4.99D-06
 ErrMax= 4.99D-06  0.00D+00 EMaxC= 1.00D-01 BMatC= 5.50D-09 BMatP= 1.42D-08
 IDIUse=1 WtCom= 1.00D+00 WtEn= 0.00D+00
 Coeff-Com: -0.226D-04 0.382D-04 0.936D-04-0.223D-03 0.294D-02 0.431D-02
 Coeff-Com: -0.107D-03-0.458D-01-0.272D-01-0.203D+00 0.225D+00 0.177D+00
 Coeff-Com:  0.273D-01-0.339D+00-0.308D+00 0.217D+00 0.127D+01
 Coeff:     -0.226D-04 0.382D-04 0.936D-04-0.223D-03 0.294D-02 0.431D-02
 Coeff:     -0.107D-03-0.458D-01-0.272D-01-0.203D+00 0.225D+00 0.177D+00
 Coeff:      0.273D-01-0.339D+00-0.308D+00 0.217D+00 0.127D+01
 Gap=     0.031 Goal=   None    Shift=    0.000
 Gap=     0.031 Goal=   None    Shift=    0.000
 RMSDP=1.75D-05 MaxDP=1.17D-03 DE=-2.88D-07 OVMax= 1.89D-03

 Cycle  18  Pass 1  IDiag  1:
 E= -1136.10338052177     Delta-E=       -0.000000087149 Rises=F Damp=F
 DIIS: error= 1.84D-06 at cycle  18 NSaved=  18.
 NSaved=18 IEnMin=10 EnMin= -1136.10346479212     IErMin=18 ErrMin= 1.84D-06
 ErrMax= 1.84D-06  0.00D+00 EMaxC= 1.00D-01 BMatC= 1.61D-09 BMatP= 5.50D-09
 IDIUse=1 WtCom= 1.00D+00 WtEn= 0.00D+00
 Coeff-Com:  0.293D-04-0.343D-04 0.375D-03-0.237D-03 0.223D-02 0.376D-02
 Coeff-Com: -0.572D-02-0.249D-01 0.247D-01-0.493D-01 0.544D-01-0.128D-01
 Coeff-Com:  0.253D-01 0.371D-01-0.370D-01-0.333D+00 0.402D+00 0.914D+00
 Coeff:      0.293D-04-0.343D-04 0.375D-03-0.237D-03 0.223D-02 0.376D-02
 Coeff:     -0.572D-02-0.249D-01 0.247D-01-0.493D-01 0.544D-01-0.128D-01
 Coeff:      0.253D-01 0.371D-01-0.370D-01-0.333D+00 0.402D+00 0.914D+00
 Gap=     0.031 Goal=   None    Shift=    0.000
 Gap=     0.031 Goal=   None    Shift=    0.000
 RMSDP=5.03D-06 MaxDP=4.09D-04 DE=-8.71D-08 OVMax= 5.26D-04

 Cycle  19  Pass 1  IDiag  1:
 E= -1136.10338053419     Delta-E=       -0.000000012421 Rises=F Damp=F
 DIIS: error= 7.84D-07 at cycle  19 NSaved=  19.
 NSaved=19 IEnMin=10 EnMin= -1136.10346479212     IErMin=19 ErrMin= 7.84D-07
 ErrMax= 7.84D-07  0.00D+00 EMaxC= 1.00D-01 BMatC= 2.43D-10 BMatP= 1.61D-09
 IDIUse=1 WtCom= 1.00D+00 WtEn= 0.00D+00
 Coeff-Com:  0.907D-05-0.125D-04 0.571D-04 0.382D-06 0.190D-03-0.515D-03
 Coeff-Com: -0.597D-02 0.420D-02 0.129D-01-0.745D-02 0.179D-02-0.216D-01
 Coeff-Com: -0.628D-02 0.728D-01 0.902D-01-0.141D+00-0.243D+00-0.170D-01
 Coeff-Com:  0.126D+01
 Coeff:      0.907D-05-0.125D-04 0.571D-04 0.382D-06 0.190D-03-0.515D-03
 Coeff:     -0.597D-02 0.420D-02 0.129D-01-0.745D-02 0.179D-02-0.216D-01
 Coeff:     -0.628D-02 0.728D-01 0.902D-01-0.141D+00-0.243D+00-0.170D-01
 Coeff:      0.126D+01
 Gap=     0.031 Goal=   None    Shift=    0.000
 Gap=     0.031 Goal=   None    Shift=    0.000
 RMSDP=2.84D-06 MaxDP=1.73D-04 DE=-1.24D-08 OVMax= 2.23D-04

 Cycle  20  Pass 1  IDiag  1:
 E= -1136.10338053785     Delta-E=       -0.000000003662 Rises=F Damp=F
 DIIS: error= 3.89D-07 at cycle  20 NSaved=  20.
 NSaved=20 IEnMin=10 EnMin= -1136.10346479212     IErMin=20 ErrMin= 3.89D-07
 ErrMax= 3.89D-07  0.00D+00 EMaxC= 1.00D-01 BMatC= 4.89D-11 BMatP= 2.43D-10
 IDIUse=1 WtCom= 1.00D+00 WtEn= 0.00D+00
 Coeff-Com: -0.966D-05 0.123D-04-0.933D-04 0.300D-04-0.429D-03-0.425D-03
 Coeff-Com:  0.232D-02 0.432D-02-0.357D-02 0.147D-01-0.193D-01 0.607D-02
 Coeff-Com: -0.562D-03-0.231D-01-0.691D-02 0.696D-01-0.699D-02-0.140D+00
 Coeff-Com: -0.243D+00 0.135D+01
 Coeff:     -0.966D-05 0.123D-04-0.933D-04 0.300D-04-0.429D-03-0.425D-03
 Coeff:      0.232D-02 0.432D-02-0.357D-02 0.147D-01-0.193D-01 0.607D-02
 Coeff:     -0.562D-03-0.231D-01-0.691D-02 0.696D-01-0.699D-02-0.140D+00
 Coeff:     -0.243D+00 0.135D+01
 Gap=     0.031 Goal=   None    Shift=    0.000
 Gap=     0.031 Goal=   None    Shift=    0.000
 RMSDP=1.32D-06 MaxDP=1.27D-04 DE=-3.66D-09 OVMax= 9.22D-05

 Cycle  21  Pass 1  IDiag  1:
 E= -1136.10338053856     Delta-E=       -0.000000000710 Rises=F Damp=F
 DIIS: error= 2.11D-07 at cycle  21 NSaved=  20.
 NSaved=20 IEnMin= 9 EnMin= -1136.10346479212     IErMin=20 ErrMin= 2.11D-07
 ErrMax= 2.11D-07  0.00D+00 EMaxC= 1.00D-01 BMatC= 1.75D-11 BMatP= 4.89D-11
 IDIUse=1 WtCom= 1.00D+00 WtEn= 0.00D+00
 Coeff-Com: -0.183D-06-0.319D-04-0.208D-05-0.629D-04 0.422D-03 0.178D-02
 Coeff-Com: -0.246D-02-0.284D-02 0.345D-02-0.843D-03 0.325D-02 0.178D-02
 Coeff-Com: -0.135D-01-0.249D-01 0.262D-01 0.714D-01 0.372D-01-0.349D+00
 Coeff-Com: -0.251D-01 0.127D+01
 Coeff:     -0.183D-06-0.319D-04-0.208D-05-0.629D-04 0.422D-03 0.178D-02
 Coeff:     -0.246D-02-0.284D-02 0.345D-02-0.843D-03 0.325D-02 0.178D-02
 Coeff:     -0.135D-01-0.249D-01 0.262D-01 0.714D-01 0.372D-01-0.349D+00
 Coeff:     -0.251D-01 0.127D+01
 Gap=     0.031 Goal=   None    Shift=    0.000
 Gap=     0.031 Goal=   None    Shift=    0.000
 RMSDP=7.16D-07 MaxDP=6.53D-05 DE=-7.10D-10 OVMax= 5.23D-05

 Cycle  22  Pass 1  IDiag  1:
 E= -1136.10338053879     Delta-E=       -0.000000000225 Rises=F Damp=F
 DIIS: error= 1.40D-07 at cycle  22 NSaved=  20.
 NSaved=20 IEnMin= 8 EnMin= -1136.10346479212     IErMin=20 ErrMin= 1.40D-07
 ErrMax= 1.40D-07  0.00D+00 EMaxC= 1.00D-01 BMatC= 4.92D-12 BMatP= 1.75D-11
 IDIUse=1 WtCom= 1.00D+00 WtEn= 0.00D+00
 Coeff-Com:  0.862D-06 0.682D-05 0.465D-05 0.278D-04-0.257D-03-0.126D-02
 Coeff-Com: -0.219D-04-0.793D-02 0.102D-01-0.156D-03-0.540D-03 0.387D-02
 Coeff-Com: -0.316D-02-0.190D-01 0.174D-01 0.506D-01 0.265D-01-0.470D+00
 Coeff-Com:  0.207D+00 0.119D+01
 Coeff:      0.862D-06 0.682D-05 0.465D-05 0.278D-04-0.257D-03-0.126D-02
 Coeff:     -0.219D-04-0.793D-02 0.102D-01-0.156D-03-0.540D-03 0.387D-02
 Coeff:     -0.316D-02-0.190D-01 0.174D-01 0.506D-01 0.265D-01-0.470D+00
 Coeff:      0.207D+00 0.119D+01
 Gap=     0.031 Goal=   None    Shift=    0.000
 Gap=     0.031 Goal=   None    Shift=    0.000
 RMSDP=5.50D-07 MaxDP=5.27D-05 DE=-2.25D-10 OVMax= 3.32D-05

 Cycle  23  Pass 1  IDiag  1:
 E= -1136.10338053884     Delta-E=       -0.000000000055 Rises=F Damp=F
 DIIS: error= 4.00D-08 at cycle  23 NSaved=  20.
 NSaved=20 IEnMin= 7 EnMin= -1136.10346479212     IErMin=20 ErrMin= 4.00D-08
 ErrMax= 4.00D-08  0.00D+00 EMaxC= 1.00D-01 BMatC= 1.22D-12 BMatP= 4.92D-12
 IDIUse=1 WtCom= 1.00D+00 WtEn= 0.00D+00
 Coeff-Com: -0.690D-06-0.226D-04-0.691D-04-0.233D-03 0.778D-03 0.118D-02
 Coeff-Com:  0.597D-04-0.104D-02-0.230D-02-0.406D-03 0.638D-02 0.663D-02
 Coeff-Com: -0.116D-01-0.141D-01-0.674D-02 0.949D-01-0.788D-01-0.243D+00
 Coeff-Com:  0.193D+00 0.105D+01
 Coeff:     -0.690D-06-0.226D-04-0.691D-04-0.233D-03 0.778D-03 0.118D-02
 Coeff:      0.597D-04-0.104D-02-0.230D-02-0.406D-03 0.638D-02 0.663D-02
 Coeff:     -0.116D-01-0.141D-01-0.674D-02 0.949D-01-0.788D-01-0.243D+00
 Coeff:      0.193D+00 0.105D+01
 Gap=     0.031 Goal=   None    Shift=    0.000
 Gap=     0.031 Goal=   None    Shift=    0.000
 RMSDP=1.97D-07 MaxDP=1.79D-05 DE=-5.50D-11 OVMax= 1.50D-05

 Cycle  24  Pass 1  IDiag  1:
 E= -1136.10338053886     Delta-E=       -0.000000000017 Rises=F Damp=F
 DIIS: error= 1.56D-08 at cycle  24 NSaved=  20.
 NSaved=20 IEnMin= 6 EnMin= -1136.10346479212     IErMin=20 ErrMin= 1.56D-08
 ErrMax= 1.56D-08  0.00D+00 EMaxC= 1.00D-01 BMatC= 9.62D-14 BMatP= 1.22D-12
 IDIUse=1 WtCom= 1.00D+00 WtEn= 0.00D+00
 Coeff-Com:  0.852D-05 0.101D-04 0.566D-04-0.946D-04-0.262D-03 0.605D-03
 Coeff-Com: -0.762D-03 0.104D-02 0.130D-03-0.229D-02-0.710D-03 0.469D-02
 Coeff-Com:  0.215D-03-0.659D-02-0.160D-01 0.860D-01-0.232D-01-0.179D+00
 Coeff-Com: -0.161D+00 0.130D+01
 Coeff:      0.852D-05 0.101D-04 0.566D-04-0.946D-04-0.262D-03 0.605D-03
 Coeff:     -0.762D-03 0.104D-02 0.130D-03-0.229D-02-0.710D-03 0.469D-02
 Coeff:      0.215D-03-0.659D-02-0.160D-01 0.860D-01-0.232D-01-0.179D+00
 Coeff:     -0.161D+00 0.130D+01
 Gap=     0.031 Goal=   None    Shift=    0.000
 Gap=     0.031 Goal=   None    Shift=    0.000
 RMSDP=6.75D-08 MaxDP=5.15D-06 DE=-1.73D-11 OVMax= 4.10D-06

 Cycle  25  Pass 1  IDiag  1:
 E= -1136.10338053885     Delta-E=        0.000000000006 Rises=F Damp=F
 DIIS: error= 4.83D-09 at cycle  25 NSaved=  20.
 NSaved=20 IEnMin= 5 EnMin= -1136.10346479212     IErMin=20 ErrMin= 4.83D-09
 ErrMax= 4.83D-09  0.00D+00 EMaxC= 1.00D-01 BMatC= 1.44D-14 BMatP= 9.62D-14
 IDIUse=1 WtCom= 1.00D+00 WtEn= 0.00D+00
 Coeff-Com:  0.987D-05 0.278D-04-0.739D-04-0.843D-04 0.226D-03-0.118D-03
 Coeff-Com:  0.804D-04 0.231D-04-0.481D-03-0.275D-03 0.962D-03 0.813D-03
 Coeff-Com:  0.419D-03-0.885D-02 0.100D-01 0.218D-01-0.218D-01-0.116D+00
 Coeff-Com:  0.464D-01 0.107D+01
 Coeff:      0.987D-05 0.278D-04-0.739D-04-0.843D-04 0.226D-03-0.118D-03
 Coeff:      0.804D-04 0.231D-04-0.481D-03-0.275D-03 0.962D-03 0.813D-03
 Coeff:      0.419D-03-0.885D-02 0.100D-01 0.218D-01-0.218D-01-0.116D+00
 Coeff:      0.464D-01 0.107D+01
 Gap=     0.031 Goal=   None    Shift=    0.000
 Gap=     0.031 Goal=   None    Shift=    0.000
 RMSDP=2.08D-08 MaxDP=1.96D-06 DE= 6.37D-12 OVMax= 1.88D-06

 Cycle  26  Pass 1  IDiag  1:
 E= -1136.10338053886     Delta-E=       -0.000000000009 Rises=F Damp=F
 DIIS: error= 2.43D-09 at cycle  26 NSaved=  20.
 NSaved=20 IEnMin= 5 EnMin= -1136.10346479212     IErMin=20 ErrMin= 2.43D-09
 ErrMax= 2.43D-09  0.00D+00 EMaxC= 1.00D-01 BMatC= 3.44D-15 BMatP= 1.44D-14
 IDIUse=1 WtCom= 1.00D+00 WtEn= 0.00D+00
 Large coefficients: NSaved= 20 BigCof=    0.00 CofMax=   10.00 Det=-6.58D-15
 Inversion failed.  Reducing to 19 matrices.
 Large coefficients: NSaved= 19 BigCof=    0.00 CofMax=   10.00 Det=-6.67D-15
 Inversion failed.  Reducing to 18 matrices.
 Large coefficients: NSaved= 18 BigCof=    0.00 CofMax=   10.00 Det=-6.74D-15
 Inversion failed.  Reducing to 17 matrices.
 Large coefficients: NSaved= 17 BigCof=    0.00 CofMax=   10.00 Det=-7.73D-15
 Inversion failed.  Reducing to 16 matrices.
 Large coefficients: NSaved= 16 BigCof=    0.00 CofMax=   10.00 Det=-9.13D-15
 Inversion failed.  Reducing to 15 matrices.
 Coeff-Com:  0.111D-05-0.358D-05-0.601D-05-0.380D-04 0.621D-04-0.257D-05
 Coeff-Com: -0.189D-04-0.728D-04-0.332D-03 0.259D-02 0.195D-02-0.335D-02
 Coeff-Com: -0.110D+00 0.286D+00 0.824D+00
 Coeff:      0.111D-05-0.358D-05-0.601D-05-0.380D-04 0.621D-04-0.257D-05
 Coeff:     -0.189D-04-0.728D-04-0.332D-03 0.259D-02 0.195D-02-0.335D-02
 Coeff:     -0.110D+00 0.286D+00 0.824D+00
 Gap=     0.031 Goal=   None    Shift=    0.000
 Gap=     0.031 Goal=   None    Shift=    0.000
 RMSDP=3.99D-09 MaxDP=2.71D-07 DE=-9.09D-12 OVMax= 3.13D-07

 SCF Done:  E(UB3LYP) =  -1136.10338054     A.U. after   26 cycles
            NFock= 26  Conv=0.40D-08     -V/T= 2.0029
 <Sx>= 0.0000 <Sy>= 0.0000 <Sz>= 0.5000 <S**2>= 0.7835 S= 0.5166
 <L.S>= 0.000000000000E+00
 KE= 1.132790345913D+03 PE=-3.294496635451D+03 EE= 7.428079666589D+02
 Annihilation of the first spin contaminant:
 S**2 before annihilation     0.7835,   after     0.7507
 Leave Link  502 at Sun Dec  3 21:10:05 2023, MaxMem=  1879048192 cpu:             228.2 elap:              20.9
 (Enter /home/sekinelabo/g16/l601.exe)
 Copying SCF densities to generalized density rwf, IOpCl= 1 IROHF=0.

 **********************************************************************

            Population analysis using the SCF Density.

 **********************************************************************

 Orbital symmetries:
 Alpha Orbitals:
       Occupied  (A) (A) (A) (A) (A) (A) (A) (A) (A) (A) (A) (A)
                 (A) (A) (A) (A) (A) (A) (A) (A) (A) (A) (A) (A)
                 (A) (A) (A) (A) (A) (A) (A) (A) (A) (A) (A) (A)
                 (A) (A) (A)
       Virtual   (A) (A) (A) (A) (A) (A) (A) (A) (A) (A) (A) (A)
                 (A) (A) (A) (A) (A) (A) (A) (A) (A) (A) (A) (A)
                 (A) (A) (A) (A) (A) (A) (A) (A) (A) (A) (A) (A)
                 (A) (A) (A) (A) (A) (A) (A) (A) (A) (A) (A) (A)
                 (A) (A) (A) (A) (A) (A) (A) (A) (A) (A) (A) (A)
                 (A) (A) (A) (A) (A) (A) (A) (A) (A) (A) (A) (A)
                 (A) (A) (A) (A) (A) (A) (A) (A) (A) (A) (A) (A)
                 (A) (A) (A) (A) (A) (A) (A) (A) (A) (A) (A) (A)
                 (A) (A) (A) (A) (A) (A) (A) (A) (A) (A) (A) (A)
                 (A) (A) (A) (A) (A) (A) (A) (A) (A) (A) (A) (A)
                 (A) (A) (A) (A) (A) (A) (A) (A) (A) (A) (A) (A)
                 (A) (A) (A) (A) (A) (A) (A) (A) (A) (A) (A) (A)
                 (A) (A) (A) (A) (A) (A) (A) (A) (A) (A) (A) (A)
                 (A) (A) (A) (A) (A) (A) (A) (A) (A) (A) (A) (A)
                 (A) (A) (A)
 Beta  Orbitals:
       Occupied  (A) (A) (A) (A) (A) (A) (A) (A) (A) (A) (A) (A)
                 (A) (A) (A) (A) (A) (A) (A) (A) (A) (A) (A) (A)
                 (A) (A) (A) (A) (A) (A) (A) (A) (A) (A) (A) (A)
                 (A) (A)
       Virtual   (A) (A) (A) (A) (A) (A) (A) (A) (A) (A) (A) (A)
                 (A) (A) (A) (A) (A) (A) (A) (A) (A) (A) (A) (A)
                 (A) (A) (A) (A) (A) (A) (A) (A) (A) (A) (A) (A)
                 (A) (A) (A) (A) (A) (A) (A) (A) (A) (A) (A) (A)
                 (A) (A) (A) (A) (A) (A) (A) (A) (A) (A) (A) (A)
                 (A) (A) (A) (A) (A) (A) (A) (A) (A) (A) (A) (A)
                 (A) (A) (A) (A) (A) (A) (A) (A) (A) (A) (A) (A)
                 (A) (A) (A) (A) (A) (A) (A) (A) (A) (A) (A) (A)
                 (A) (A) (A) (A) (A) (A) (A) (A) (A) (A) (A) (A)
                 (A) (A) (A) (A) (A) (A) (A) (A) (A) (A) (A) (A)
                 (A) (A) (A) (A) (A) (A) (A) (A) (A) (A) (A) (A)
                 (A) (A) (A) (A) (A) (A) (A) (A) (A) (A) (A) (A)
                 (A) (A) (A) (A) (A) (A) (A) (A) (A) (A) (A) (A)
                 (A) (A) (A) (A) (A) (A) (A) (A) (A) (A) (A) (A)
                 (A) (A) (A) (A)
 The electronic state is 2-A.
 Alpha  occ. eigenvalues --  -38.46906 -38.45224 -38.44791 -38.44259 -38.43995
 Alpha  occ. eigenvalues --  -38.43253 -38.42453  -2.22649  -2.21034  -2.20563
 Alpha  occ. eigenvalues --   -2.20089  -2.19811  -2.19022  -2.18270  -1.16335
 Alpha  occ. eigenvalues --   -1.16294  -1.16275  -1.14716  -1.14672  -1.14642
 Alpha  occ. eigenvalues --   -1.14235  -1.14203  -1.14152  -1.13825  -1.13758
 Alpha  occ. eigenvalues --   -1.13721  -1.13454  -1.13451  -1.13431  -1.12709
 Alpha  occ. eigenvalues --   -1.12679  -1.12666  -1.11969  -1.11946  -1.11904
 Alpha  occ. eigenvalues --   -0.16748  -0.14213  -0.10906  -0.10677
 Alpha virt. eigenvalues --   -0.07574  -0.06127  -0.03973  -0.03241  -0.03111
 Alpha virt. eigenvalues --   -0.02829  -0.02131  -0.01761  -0.01085  -0.00999
 Alpha virt. eigenvalues --   -0.00425  -0.00046   0.00155   0.00333   0.00622
 Alpha virt. eigenvalues --    0.00663   0.00737   0.01094   0.01286   0.01359
 Alpha virt. eigenvalues --    0.01408   0.01480   0.01569   0.01685   0.01694
 Alpha virt. eigenvalues --    0.01901   0.01998   0.02054   0.02164   0.02399
 Alpha virt. eigenvalues --    0.02522   0.02569   0.02631   0.02753   0.02847
 Alpha virt. eigenvalues --    0.02969   0.03155   0.03186   0.03383   0.03536
 Alpha virt. eigenvalues --    0.03602   0.03675   0.03753   0.04013   0.04411
 Alpha virt. eigenvalues --    0.04561   0.04763   0.05063   0.05137   0.05386
 Alpha virt. eigenvalues --    0.05590   0.05945   0.06431   0.06646   0.07207
 Alpha virt. eigenvalues --    0.07466   0.07649   0.07740   0.07930   0.08267
 Alpha virt. eigenvalues --    0.08459   0.08910   0.09611   0.09868   0.10342
 Alpha virt. eigenvalues --    0.10445   0.10883   0.11168   0.11393   0.11892
 Alpha virt. eigenvalues --    0.12392   0.12696   0.12956   0.13345   0.13550
 Alpha virt. eigenvalues --    0.14157   0.14884   0.15015   0.15708   0.16713
 Alpha virt. eigenvalues --    0.27721   0.27826   0.28512   0.28868   0.29704
 Alpha virt. eigenvalues --    0.30275   0.30862   0.31147   0.31682   0.32559
 Alpha virt. eigenvalues --    0.33282   0.33763   0.35126   0.35530   0.35898
 Alpha virt. eigenvalues --    0.36667   0.37252   0.38020   0.38426   0.39042
 Alpha virt. eigenvalues --    0.39625   0.40274   0.41757   0.41833   0.42263
 Alpha virt. eigenvalues --    0.42789   0.43254   0.43504   0.44010   0.44205
 Alpha virt. eigenvalues --    0.44554   0.45055   0.45365   0.45976   0.46162
 Alpha virt. eigenvalues --    0.46537   0.47057   0.47663   0.48515   0.49156
 Alpha virt. eigenvalues --    0.49492   0.49624   0.49836   0.50633   0.51428
 Alpha virt. eigenvalues --    0.52033   0.53344   0.54102   0.54383   0.55401
 Alpha virt. eigenvalues --    0.56188   0.57227   0.57811   0.58330   0.60583
 Alpha virt. eigenvalues --    0.72837   2.02146   2.06869   2.09452   2.10658
 Alpha virt. eigenvalues --    2.12892   2.14982   2.18964   4.42285   4.43046
 Alpha virt. eigenvalues --    4.43225   4.43987   4.44133   4.44474   4.44997
 Alpha virt. eigenvalues --    4.45494   4.46477   4.46847   4.47021   4.47255
 Alpha virt. eigenvalues --    4.47918   4.48573   4.49307   4.49924   4.50627
 Alpha virt. eigenvalues --    4.51134   4.52547   4.53511   4.66413  96.21646
 Alpha virt. eigenvalues --   96.26935  96.29994  96.31228  96.34291  96.37473
 Alpha virt. eigenvalues --   96.41319
  Beta  occ. eigenvalues --  -38.46901 -38.45176 -38.44685 -38.44245 -38.43970
  Beta  occ. eigenvalues --  -38.43249 -38.42455  -2.22642  -2.20945  -2.20368
  Beta  occ. eigenvalues --   -2.20065  -2.19768  -2.19017  -2.18277  -1.16312
  Beta  occ. eigenvalues --   -1.16291  -1.16274  -1.14652  -1.14614  -1.14579
  Beta  occ. eigenvalues --   -1.14103  -1.14066  -1.14016  -1.13804  -1.13744
  Beta  occ. eigenvalues --   -1.13694  -1.13426  -1.13413  -1.13406  -1.12707
  Beta  occ. eigenvalues --   -1.12677  -1.12648  -1.11975  -1.11940  -1.11904
  Beta  occ. eigenvalues --   -0.16118  -0.13809  -0.10554
  Beta virt. eigenvalues --   -0.07437  -0.07168  -0.05910  -0.03545  -0.03089
  Beta virt. eigenvalues --   -0.02837  -0.02151  -0.01953  -0.01525  -0.00887
  Beta virt. eigenvalues --   -0.00760  -0.00189   0.00015   0.00207   0.00423
  Beta virt. eigenvalues --    0.00665   0.00750   0.00819   0.01165   0.01328
  Beta virt. eigenvalues --    0.01454   0.01509   0.01562   0.01603   0.01712
  Beta virt. eigenvalues --    0.01794   0.01966   0.02104   0.02159   0.02283
  Beta virt. eigenvalues --    0.02434   0.02574   0.02588   0.02678   0.02805
  Beta virt. eigenvalues --    0.02896   0.03027   0.03192   0.03295   0.03555
  Beta virt. eigenvalues --    0.03594   0.03687   0.03804   0.03835   0.04070
  Beta virt. eigenvalues --    0.04504   0.04643   0.04910   0.05141   0.05210
  Beta virt. eigenvalues --    0.05428   0.05660   0.05951   0.06502   0.06816
  Beta virt. eigenvalues --    0.07240   0.07543   0.07717   0.07846   0.08103
  Beta virt. eigenvalues --    0.08428   0.08632   0.09141   0.09729   0.10181
  Beta virt. eigenvalues --    0.10565   0.10574   0.11038   0.11406   0.11770
  Beta virt. eigenvalues --    0.12193   0.12636   0.12828   0.13256   0.13462
  Beta virt. eigenvalues --    0.13577   0.14318   0.15027   0.15105   0.15731
  Beta virt. eigenvalues --    0.16837   0.27998   0.28046   0.28802   0.29149
  Beta virt. eigenvalues --    0.30036   0.30576   0.31271   0.31464   0.31927
  Beta virt. eigenvalues --    0.32810   0.33607   0.34234   0.35421   0.35778
  Beta virt. eigenvalues --    0.36264   0.36796   0.37520   0.38514   0.38765
  Beta virt. eigenvalues --    0.39432   0.39793   0.40582   0.41968   0.42179
  Beta virt. eigenvalues --    0.42262   0.42970   0.43309   0.43638   0.44078
  Beta virt. eigenvalues --    0.44300   0.44644   0.45211   0.45513   0.46129
  Beta virt. eigenvalues --    0.46326   0.46660   0.47249   0.47737   0.48645
  Beta virt. eigenvalues --    0.49293   0.49641   0.49698   0.50021   0.50780
  Beta virt. eigenvalues --    0.51546   0.52152   0.53456   0.54180   0.54509
  Beta virt. eigenvalues --    0.55615   0.56376   0.57416   0.57919   0.58345
  Beta virt. eigenvalues --    0.60761   0.72918   2.02244   2.07167   2.09673
  Beta virt. eigenvalues --    2.10665   2.12957   2.15071   2.19038   4.42330
  Beta virt. eigenvalues --    4.43081   4.43249   4.44020   4.44185   4.44543
  Beta virt. eigenvalues --    4.45073   4.45585   4.46506   4.46938   4.47066
  Beta virt. eigenvalues --    4.47282   4.47957   4.48623   4.49331   4.49951
  Beta virt. eigenvalues --    4.50672   4.51168   4.52545   4.53594   4.66449
  Beta virt. eigenvalues --   96.21677  96.27031  96.30053  96.31235  96.34316
  Beta virt. eigenvalues --   96.37505  96.41344
          Condensed to atoms (all electrons):
               1          2          3          4          5          6
     1  Na  10.750437  -0.797397   0.099450  -0.199681   0.290530  -0.099671
     2  Na  -0.797397  13.409270  -0.402100   0.489144  -0.475771   0.019594
     3  Na   0.099450  -0.402100  11.379372   0.016134  -0.080815   0.047241
     4  Na  -0.199681   0.489144   0.016134  10.987540  -0.095979  -0.192533
     5  Na   0.290530  -0.475771  -0.080815  -0.095979  10.772486  -0.141721
     6  Na  -0.099671   0.019594   0.047241  -0.192533  -0.141721  11.429913
     7  Na   0.166443  -0.315937   0.022182  -0.010429   0.173420   0.097197
               7
     1  Na   0.166443
     2  Na  -0.315937
     3  Na   0.022182
     4  Na  -0.010429
     5  Na   0.173420
     6  Na   0.097197
     7  Na  11.052383
          Atomic-Atomic Spin Densities.
               1          2          3          4          5          6
     1  Na  -0.062791   0.243575   0.029513   0.043367   0.035541  -0.132074
     2  Na   0.243575  -0.363337   0.007983  -0.087931   0.016466   0.092739
     3  Na   0.029513   0.007983   0.217715   0.125521  -0.005671  -0.275361
     4  Na   0.043367  -0.087931   0.125521   0.139418   0.020372  -0.128652
     5  Na   0.035541   0.016466  -0.005671   0.020372   0.291787  -0.119398
     6  Na  -0.132074   0.092739  -0.275361  -0.128652  -0.119398   1.068430
     7  Na  -0.085592   0.015717  -0.000843   0.020531   0.070071  -0.009243
               7
     1  Na  -0.085592
     2  Na   0.015717
     3  Na  -0.000843
     4  Na   0.020531
     5  Na   0.070071
     6  Na  -0.009243
     7  Na  -0.044486
 Mulliken charges and spin densities:
               1          2
     1  Na   0.789889   0.071539
     2  Na  -0.926802  -0.074788
     3  Na  -0.081463   0.098858
     4  Na   0.005803   0.132626
     5  Na   0.557850   0.309167
     6  Na  -0.160019   0.496442
     7  Na  -0.185257  -0.033845
 Sum of Mulliken charges =  -0.00000   1.00000
 Mulliken charges and spin densities with hydrogens summed into heavy atoms:
               1          2
     1  Na   0.789889   0.071539
     2  Na  -0.926802  -0.074788
     3  Na  -0.081463   0.098858
     4  Na   0.005803   0.132626
     5  Na   0.557850   0.309167
     6  Na  -0.160019   0.496442
     7  Na  -0.185257  -0.033845
 Electronic spatial extent (au):  <R**2>=           3883.7179
 Charge=             -0.0000 electrons
 Dipole moment (field-independent basis, Debye):
    X=             -1.0536    Y=             -0.5026    Z=              0.9067  Tot=              1.4781
 Quadrupole moment (field-independent basis, Debye-Ang):
   XX=            -67.3770   YY=            -73.4175   ZZ=            -61.7370
   XY=              6.4047   XZ=             -5.5965   YZ=              2.7650
 Traceless Quadrupole moment (field-independent basis, Debye-Ang):
   XX=              0.1335   YY=             -5.9070   ZZ=              5.7735
   XY=              6.4047   XZ=             -5.5965   YZ=              2.7650
 Octapole moment (field-independent basis, Debye-Ang**2):
  XXX=              5.1244  YYY=              3.0934  ZZZ=             18.0287  XYY=             21.8235
  XXY=             -1.1257  XXZ=             32.0409  XZZ=            -47.5571  YZZ=            -17.6290
  YYZ=             -6.9164  XYZ=              3.3837
 Hexadecapole moment (field-independent basis, Debye-Ang**3):
 XXXX=          -4745.0311 YYYY=          -1479.3763 ZZZZ=           -590.7842 XXXY=            249.3872
 XXXZ=           -107.3526 YYYX=            -17.5400 YYYZ=             11.1815 ZZZX=            -79.3230
 ZZZY=             17.6203 XXYY=           -889.1828 XXZZ=           -785.0628 YYZZ=           -348.4577
 XXYZ=             12.0899 YYXZ=              6.9198 ZZXY=             65.1091
 N-N= 2.827949423402D+02 E-N=-3.294496635212D+03  KE= 1.132790345913D+03
                          Isotropic Fermi Contact Couplings
        Atom                 a.u.       MegaHertz       Gauss      10(-4) cm-1
     1  Na(23)            -0.00324      -3.83104      -1.36701      -1.27790
     2  Na(23)            -0.03610     -42.70684     -15.23886     -14.24547
     3  Na(23)             0.04039      47.78245      17.04997      15.93851
     4  Na(23)             0.09225     109.13225      38.94110      36.40260
     5  Na(23)             0.20070     237.43863      84.72401      79.20100
     6  Na(23)             0.43925     519.64642     185.42276     173.33539
     7  Na(23)            -0.00769      -9.09736      -3.24616      -3.03455
 --------------------------------------------------------
       Center         ----  Spin Dipole Couplings  ----
                      3XX-RR        3YY-RR        3ZZ-RR
 --------------------------------------------------------
     1   Atom        0.003976     -0.003961     -0.000015
     2   Atom       -0.005759      0.011067     -0.005307
     3   Atom        0.019541     -0.012147     -0.007394
     4   Atom       -0.006463      0.010468     -0.004005
     5   Atom        0.000115      0.001427     -0.001542
     6   Atom        0.000783      0.003493     -0.004276
     7   Atom        0.008372     -0.002241     -0.006131
 --------------------------------------------------------
                        XY            XZ            YZ
 --------------------------------------------------------
     1   Atom        0.013054      0.010878      0.008084
     2   Atom        0.011545      0.007172      0.009771
     3   Atom        0.003725     -0.005533     -0.001833
     4   Atom       -0.005718     -0.001008      0.004178
     5   Atom        0.003396     -0.000290     -0.007549
     6   Atom       -0.002806     -0.000374     -0.002975
     7   Atom        0.009610      0.008241      0.007577
 --------------------------------------------------------


 ---------------------------------------------------------------------------------
              Anisotropic Spin Dipole Couplings in Principal Axis System
 ---------------------------------------------------------------------------------

       Atom             a.u.   MegaHertz   Gauss  10(-4) cm-1        Axes

              Baa    -0.0136    -1.926    -0.687    -0.642 -0.5945  0.8041 -0.0025
     1 Na(23) Bbb    -0.0084    -1.181    -0.421    -0.394 -0.4228 -0.3100  0.8515
              Bcc     0.0220     3.106     1.108     1.036  0.6840  0.5073  0.5243
 
              Baa    -0.0130    -1.831    -0.654    -0.611  0.8181 -0.1695 -0.5496
     2 Na(23) Bbb    -0.0092    -1.299    -0.463    -0.433  0.3751 -0.5672  0.7332
              Bcc     0.0222     3.130     1.117     1.044  0.4360  0.8059  0.4004
 
              Baa    -0.0129    -1.820    -0.650    -0.607 -0.0675  0.9649  0.2538
     3 Na(23) Bbb    -0.0082    -1.162    -0.415    -0.388  0.2201 -0.2337  0.9471
              Bcc     0.0211     2.982     1.064     0.995  0.9731  0.1198 -0.1966
 
              Baa    -0.0082    -1.163    -0.415    -0.388  0.9484  0.3073 -0.0777
     4 Na(23) Bbb    -0.0050    -0.713    -0.254    -0.238  0.1462 -0.2066  0.9674
              Bcc     0.0133     1.876     0.669     0.626 -0.2813  0.9289  0.2409
 
              Baa    -0.0082    -1.162    -0.415    -0.388 -0.2391  0.6489  0.7223
     5 Na(23) Bbb    -0.0004    -0.051    -0.018    -0.017  0.9161 -0.0959  0.3894
              Bcc     0.0086     1.213     0.433     0.405  0.3219  0.7548 -0.5715
 
              Baa    -0.0056    -0.785    -0.280    -0.262  0.2145  0.3643  0.9063
     6 Na(23) Bbb    -0.0003    -0.036    -0.013    -0.012  0.8617  0.3662 -0.3512
              Bcc     0.0058     0.821     0.293     0.274 -0.4598  0.8563 -0.2353
 
              Baa    -0.0120    -1.701    -0.607    -0.567 -0.0606 -0.5724  0.8177
     7 Na(23) Bbb    -0.0068    -0.964    -0.344    -0.322 -0.6358  0.6537  0.4105
              Bcc     0.0189     2.666     0.951     0.889  0.7695  0.4950  0.4036
 

 ---------------------------------------------------------------------------------

 No NMR shielding tensors so no spin-rotation constants.
 Leave Link  601 at Sun Dec  3 21:10:05 2023, MaxMem=  1879048192 cpu:               2.4 elap:               0.2
 (Enter /home/sekinelabo/g16/l701.exe)
 ... and contract with generalized density number  0.
 Compute integral first derivatives.
 Leave Link  701 at Sun Dec  3 21:10:05 2023, MaxMem=  1879048192 cpu:               1.5 elap:               0.1
 (Enter /home/sekinelabo/g16/l702.exe)
 L702 exits ... SP integral derivatives will be done elsewhere.
 Leave Link  702 at Sun Dec  3 21:10:05 2023, MaxMem=  1879048192 cpu:               0.4 elap:               0.0
 (Enter /home/sekinelabo/g16/l703.exe)
 Integral derivatives from FoFJK, PRISM(SPDF).
 Compute integral first derivatives, UseDBF=F ICtDFT=           0.
 Calling FoFJK, ICntrl=      2127 FMM=F ISym2X=0 I1Cent= 0 IOpClX= 1 NMat=1 NMatS=1 NMatT=0.
 FoFJK:  IHMeth= 1 ICntrl=    2127 DoSepK=F KAlg= 0 I1Cent=           0 FoldK=F
 IRaf=         0 NMat=       1 IRICut=       1 DoRegI=T DoRafI=F ISym2E= 0 IDoP0=0 IntGTp=1.
 FoFCou: FMM=F IPFlag=           0 FMFlag=      100000 FMFlg1=         800
         NFxFlg=           0 DoJE=F BraDBF=F KetDBF=F FulRan=T
         wScrn=  0.000000 ICntrl=      2127 IOpCl=  1 I1Cent=           0 NGrid=           0
         NMat0=    1 NMatS0=      1 NMatT0=    0 NMatD0=    1 NMtDS0=    0 NMtDT0=    0
 Symmetry not used in FoFCou.
 Leave Link  703 at Sun Dec  3 21:10:07 2023, MaxMem=  1879048192 cpu:              29.6 elap:               2.0
 (Enter /home/sekinelabo/g16/l716.exe)
 Dipole        =-4.14511724D-01-1.97731710D-01 3.56736673D-01
 ***** Axes restored to original set *****
 -------------------------------------------------------------------
 Center     Atomic                   Forces (Hartrees/Bohr)
 Number     Number              X              Y              Z
 -------------------------------------------------------------------
      1       11           0.003335259    0.001270086    0.007566436
      2       11          -0.000469477   -0.000608376   -0.002493136
      3       11          -0.000972558    0.003359908   -0.002862659
      4       11          -0.002367142   -0.002031770    0.002051887
      5       11          -0.002985249   -0.002601551   -0.002397984
      6       11           0.001741386    0.002051220   -0.000758086
      7       11           0.001717780   -0.001439518   -0.001106457
 -------------------------------------------------------------------
 Cartesian Forces:  Max     0.007566436 RMS     0.002642668
 Z-matrix is all fixed cartesians, so copy forces.
 Force constants in Cartesian coordinates: 
                1             2             3             4             5 
      1  0.286392D-01
      2  0.279849D-02  0.230928D-01
      3  0.607674D-02  0.861484D-02  0.421044D-01
      4 -0.186357D-01 -0.119758D-02  0.463731D-02  0.638326D-01
      5 -0.481715D-02 -0.127154D-01 -0.312342D-02  0.308983D-02  0.513279D-01
      6 -0.116126D-01  0.410811D-02 -0.143911D-01 -0.637418D-02 -0.297844D-02
      7  0.209331D-02  0.384752D-02 -0.122179D-02 -0.197160D-01 -0.907087D-02
      8  0.118320D-02  0.312435D-02 -0.249768D-03  0.133043D-02 -0.151391D-01
      9  0.442281D-04  0.129193D-02  0.536184D-03 -0.252439D-02  0.289497D-02
     10  0.205518D-05 -0.186952D-05 -0.382095D-05  0.514429D-02  0.162146D-02
     11  0.355064D-04 -0.322988D-04 -0.660128D-04 -0.215768D-02 -0.479182D-03
     12  0.438288D-04 -0.398694D-04 -0.814856D-04  0.160052D-02  0.743069D-03
     13 -0.904040D-02 -0.531158D-02 -0.287587D-02 -0.134181D-01  0.112097D-01
     14 -0.248864D-02 -0.116361D-01 -0.254497D-02 -0.767936D-02 -0.172597D-01
     15 -0.663902D-02 -0.166527D-01 -0.133192D-01  0.153639D-02 -0.133575D-02
     16  0.199114D-02  0.187255D-02 -0.199180D-02 -0.136535D-01 -0.188485D-02
     17 -0.107395D-02 -0.594049D-03  0.126739D-02  0.179519D-02 -0.819747D-02
     18  0.197115D-02  0.230341D-02 -0.176306D-02  0.186069D-02  0.287839D-02
     19 -0.504953D-02 -0.200753D-02 -0.462076D-02 -0.355351D-02 -0.148111D-03
     20  0.436254D-02 -0.123924D-02 -0.389807D-02  0.481917D-02  0.246295D-02
     21  0.101157D-01  0.374310D-03 -0.130858D-01 -0.736330D-03  0.921193D-03
                6             7             8             9            10 
      6  0.489782D-01
      7  0.671063D-02  0.398369D-01
      8  0.741871D-03  0.900647D-02  0.293096D-01
      9 -0.157444D-01 -0.840445D-02 -0.175980D-01  0.224931D-01
     10 -0.153112D-02 -0.194453D-01 -0.109125D-01  0.972245D-02  0.143026D-01
     11  0.898339D-03 -0.711162D-02 -0.182106D-01  0.145719D-01  0.929673D-02
     12 -0.172194D-03  0.661855D-02  0.147424D-01 -0.128882D-01 -0.818521D-02
     13  0.575417D-02  0.385762D-03  0.348035D-03  0.173872D-03 -0.348788D-05
     14 -0.236389D-02  0.517394D-03 -0.251699D-03 -0.682788D-03 -0.198653D-05
     15 -0.143674D-01 -0.169073D-02  0.258020D-02  0.447206D-02  0.000000D+00
     16  0.340485D-02 -0.314948D-02 -0.936841D-03  0.100861D-02  0.000000D+00
     17  0.159731D-02  0.277943D-02  0.119385D-02 -0.422119D-03 -0.181494D-05
     18 -0.651969D-02 -0.194951D-02 -0.183048D-03  0.113026D-02 -0.220557D-05
     19  0.364830D-02 -0.515839D-05 -0.187748D-04 -0.203274D-04  0.000000D+00
     20 -0.200329D-02  0.316709D-04 -0.264240D-04 -0.558403D-04  0.000000D+00
     21  0.221656D-02 -0.627009D-04 -0.335956D-04  0.102725D-05  0.000000D+00
               11            12            13            14            15 
     11  0.187877D-01
     12 -0.153645D-01  0.131909D-01
     13 -0.602586D-04 -0.743826D-04  0.368674D-01
     14 -0.343203D-04 -0.423647D-04  0.102438D-01  0.439526D-01
     15 -0.160508D-05 -0.198129D-05 -0.444907D-03  0.108319D-01  0.274976D-01
     16 -0.267388D-05 -0.330061D-05  0.183537D-02  0.124495D-02 -0.109173D-02
     17 -0.313559D-04 -0.387055D-04 -0.318578D-02 -0.219995D-02  0.211787D-02
     18 -0.381047D-04 -0.470361D-04 -0.556955D-03 -0.419957D-03  0.572255D-03
     19  0.000000D+00  0.000000D+00 -0.166265D-01 -0.183617D-02  0.833008D-02
     20  0.000000D+00  0.000000D+00 -0.132439D-01 -0.125708D-01  0.246011D-02
     21  0.000000D+00  0.000000D+00 -0.197593D-02 -0.477794D-02 -0.485333D-02
               16            17            18            19            20 
     16  0.129801D-01
     17 -0.300265D-03  0.986069D-02
     18 -0.130379D-02 -0.451761D-02  0.666768D-02
     19 -0.350721D-05 -0.128162D-04 -0.193725D-04  0.252382D-01
     20  0.712363D-05 -0.317162D-04 -0.230821D-04  0.402340D-02  0.114053D-01
     21 -0.228395D-04 -0.414657D-05 -0.404107D-04 -0.731792D-02  0.352018D-02
               21 
     21  0.157620D-01
 Leave Link  716 at Sun Dec  3 21:10:07 2023, MaxMem=  1879048192 cpu:               0.4 elap:               0.0
 (Enter /home/sekinelabo/g16/l103.exe)

 GradGradGradGradGradGradGradGradGradGradGradGradGradGradGradGradGradGrad
 Berny optimization.
 Search for a local minimum.
 Step number   1 out of a maximum of    2
 All quantities printed in internal units (Hartrees-Bohrs-Radians)
 Second derivative matrix not updated -- first step.
 ITU=  0
     Eigenvalues ---    0.00080   0.00379   0.00420   0.00832   0.01093
     Eigenvalues ---    0.01800   0.02445   0.03109   0.03990   0.05808
     Eigenvalues ---    0.05890   0.07086   0.07282   0.08247   0.10061
 Quadratic step=1.038D+00 exceeds max=3.000D-01 adjusted using Lamda=-1.078D-02.
 Angle between NR and scaled steps=  32.61 degrees.
 Angle between quadratic step and forces=  38.79 degrees.
 Linear search not attempted -- first point.
 B after Tr=     0.000000   -0.000000    0.000000
         Rot=    1.000000    0.000000    0.000000    0.000000 Ang=   0.00 deg.
 Variable       Old X    -DE/DX   Delta X   Delta X   Delta X     New X
                                 (Linear)    (Quad)   (Total)
    X1       20.65036   0.00334   0.00000   0.05920   0.05920  20.70956
    Y1       25.89511   0.00127   0.00000  -0.02047  -0.02047  25.87463
    Z1       17.35366   0.00757   0.00000   0.12146   0.12146  17.47512
    X2       26.16099  -0.00047   0.00000  -0.00407  -0.00407  26.15692
    Y2       24.11480  -0.00061   0.00000   0.01840   0.01840  24.13320
    Z2       21.18874  -0.00249   0.00000  -0.03747  -0.03747  21.15127
    X3       28.93851  -0.00097   0.00000  -0.07165  -0.07165  28.86686
    Y3       19.05241   0.00336   0.00000   0.05621   0.05621  19.10862
    Z3       25.15962  -0.00286   0.00000  -0.06826  -0.06826  25.09137
    X4       26.33182  -0.00237   0.00000  -0.10553  -0.10553  26.22629
    Y4       15.22704  -0.00203   0.00000   0.02460   0.02460  15.25164
    Z4       28.38085   0.00205   0.00000   0.01407   0.01407  28.39492
    X5       22.73152  -0.00299   0.00000  -0.04049  -0.04049  22.69103
    Y5       30.08727  -0.00260   0.00000  -0.04983  -0.04983  30.03744
    Z5       22.23395  -0.00240   0.00000  -0.02716  -0.02716  22.20679
    X6       20.97728   0.00174   0.00000   0.08488   0.08488  21.06216
    Y6       20.55228   0.00205   0.00000   0.09784   0.09784  20.65012
    Z6       24.48405  -0.00076   0.00000  -0.02309  -0.02309  24.46095
    X7       16.73207   0.00172   0.00000   0.07766   0.07766  16.80973
    Y7       27.59378  -0.00144   0.00000  -0.12675  -0.12675  27.46703
    Z7       23.72173  -0.00111   0.00000   0.02045   0.02045  23.74218
         Item               Value     Threshold  Converged?
 Maximum Force            0.007566     0.000450     NO 
 RMS     Force            0.002643     0.000300     NO 
 Maximum Displacement     0.126752     0.001800     NO 
 RMS     Displacement     0.065470     0.001200     NO 
 Predicted change in Energy=-1.901046D-03
 GradGradGradGradGradGradGradGradGradGradGradGradGradGradGradGradGradGrad

 Leave Link  103 at Sun Dec  3 21:10:07 2023, MaxMem=  1879048192 cpu:               0.2 elap:               0.0
 (Enter /home/sekinelabo/g16/l9999.exe)
 1\1\GINC-SEKINELABO-XA7R-R37\Force\UB3LYP\6-311+G(d)\Na7(2)\SEKINELABO
 \03-Dec-2023\0\\#P B3LYP/6-311+g(d) force\\DPGEN\\0,2\Na,10.9277,13.70
 31,9.18316\Na,13.8438,12.761,11.2126\Na,15.3136,10.0821,13.3139\Na,13.
 9342,8.0578,15.0185\Na,12.029,15.9215,11.7657\Na,11.1007,10.8758,12.95
 64\Na,8.85423,14.602,12.553\\Version=ES64L-G16RevB.01\State=2-A\HF=-11
 36.1033805\S2=0.783453\S2-1=0.\S2A=0.750715\RMSD=3.985e-09\RMSF=2.643e
 -03\Dipole=-0.1440977,0.1636813,-0.5390947\Quadrupole=-4.3335164,0.037
 648,4.2958685,3.5364971,5.4314537,-1.5649369\PG=C01 [X(Na7)]\\@


 THOUGH I SPEAK WITH THE TONGUES OF MEN AND OF ANGELS, 
 AND HAVE NOT LOVE,
 I AM BECOME AS SOUNDING BRASS, A TINKLING CYMBAL.
 AND THOUGH I HAVE THE GIFT OF PROPHECY,
 AND UNDERSTAND ALL MYSTERIES, AND ALL KNOWLEDGE.
 AND THOUGH I HAVE ALL FAITH, SO THAT I COULD REMOVE MOUNTAINS,
 AND HAVE NOT LOVE, I AM NOTHING.
 AND THOUGH I BESTOW ALL MY GOODS TO FEED THE POOR,
 AND THOUGH I GIVE MY BODY TO BE BURNED,
 AND HAVE NOT LOVE IT PROFITETH ME NOTHING.
 LOVE SUFFERETH LONG, AND IS KIND,
 LOVE ENVIETH NOT,
 LOVE VAUNTETH NOT ITSELF, IS NOT PUFFED UP,
 DOTH NOT BEHAVE ITSELF UNSEEMLY, SEEKETH NOT HER OWN,
 IS NOT EASILY PROVOKED, THINKETH NO EVIL,
 REJOICETH NOT IN INIQUITY, BUT REJOICETH IN THE TRUTH,
 BEARETH ALL THINGS, BELIEVETH ALL THINGS,
 HOPETH ALL THINGS, ENDURETH ALL THINGS.
 LOVE NEVER FAILETH, BUT WHETHER THERE BE PROPHECIES, THEY SHALL FAIL, 
 WHETHER THERE BE TONGUES, THEY SHALL CEASE,
 WHETHER THERE BE KNOWLEDGE, IT SHALL VANISH AWAY.
 FOR WE KNOW IN PART, AND WE PROPHESY IN PART.
 BUT WHEN THAT WHICH IS PERFECT IS COME, THEN THAT WHICH IS IN PART 
 SHALL BE DONE AWAY. 
 WHEN I WAS A CHILD, I SPAKE AS A CHILD, I UNDERSTOOD AS A CHILD, 
 I THOUGHT AS A CHILD.
 BUT WHEN I BECAME A MAN, I PUT AWAY CHILDISH THINGS.
 FOR NOW WE SEE THROUGH A GLASS, DARKLY, BUT THEN FACE TO FACE.
 NOW I KNOW IN PART. BUT THEN SHALL I KNOW EVEN AS ALSO I AM KNOWN.
 AND NOW ABIDETH FAITH, HOPE AND LOVE, THESE THREE.
 BUT THE GREATEST OF THESE IS LOVE.

                     I CORINTHIANS 13
 Job cpu time:       0 days  0 hours  4 minutes 33.9 seconds.
 Elapsed time:       0 days  0 hours  0 minutes 24.0 seconds.
 File lengths (MBytes):  RWF=     32 Int=      0 D2E=      0 Chk=      4 Scr=      1
 Normal termination of Gaussian 16 at Sun Dec  3 21:10:07 2023.
