ITEM: TIMESTEP
8690
ITEM: NUMBER OF ATOMS
7
ITEM: BOX BOUNDS xy xz yz ff ff ff
0.0000000000000000e+00 2.3350978411300002e+01 0.0000000000000000e+00
0.0000000000000000e+00 2.3350978411300002e+01 0.0000000000000000e+00
0.0000000000000000e+00 2.3350978411300002e+01 0.0000000000000000e+00
ITEM: ATOMS id type x y z fx fy fz
1 1 10.9457 13.4508 7.61939 0.11808 -0.0256573 0.0968887
6 1 9.96647 10.7335 9.73171 0.0635258 0.00656754 -0.176998
3 1 8.27585 11.0312 12.2021 -0.152204 0.0144249 0.0900254
4 1 14.1436 13.5568 9.69119 -0.0800605 -0.0112699 -0.0136709
7 1 15.0034 12.3506 13.1906 0.03097 0.0648257 -0.0812904
5 1 10.5889 9.14912 13.9501 -0.0260872 -0.0373858 0.0386864
2 1 12.8044 11.4564 15.3433 0.0457757 -0.011505 0.0463592
