 Set GAUSS_MDEF to "14GB".
 Entering Gaussian System, Link 0=g16
 Initial command:
 /home/sekinelabo/g16/l1.exe "/home/sekinelabo/g16temp/Gau-310497.inp" -scrdir="/home/sekinelabo/g16temp/"
 Entering Link 1 = /home/sekinelabo/g16/l1.exe PID=    310499.
  
 Copyright (c) 1988-2017, Gaussian, Inc.  All Rights Reserved.
  
 This is part of the Gaussian(R) 16 program.  It is based on
 the Gaussian(R) 09 system (copyright 2009, Gaussian, Inc.),
 the Gaussian(R) 03 system (copyright 2003, Gaussian, Inc.),
 the Gaussian(R) 98 system (copyright 1998, Gaussian, Inc.),
 the Gaussian(R) 94 system (copyright 1995, Gaussian, Inc.),
 the Gaussian 92(TM) system (copyright 1992, Gaussian, Inc.),
 the Gaussian 90(TM) system (copyright 1990, Gaussian, Inc.),
 the Gaussian 88(TM) system (copyright 1988, Gaussian, Inc.),
 the Gaussian 86(TM) system (copyright 1986, Carnegie Mellon
 University), and the Gaussian 82(TM) system (copyright 1983,
 Carnegie Mellon University). Gaussian is a federally registered
 trademark of Gaussian, Inc.
  
 This software contains proprietary and confidential information,
 including trade secrets, belonging to Gaussian, Inc.
  
 This software is provided under written license and may be
 used, copied, transmitted, or stored only in accord with that
 written license.
  
 The following legend is applicable only to US Government
 contracts under FAR:
  
                    RESTRICTED RIGHTS LEGEND
  
 Use, reproduction and disclosure by the US Government is
 subject to restrictions as set forth in subparagraphs (a)
 and (c) of the Commercial Computer Software - Restricted
 Rights clause in FAR 52.227-19.
  
 Gaussian, Inc.
 340 Quinnipiac St., Bldg. 40, Wallingford CT 06492
  
  
 ---------------------------------------------------------------
 Warning -- This program may not be used in any manner that
 competes with the business of Gaussian, Inc. or will provide
 assistance to any competitor of Gaussian, Inc.  The licensee
 of this program is prohibited from giving any competitor of
 Gaussian, Inc. access to this program.  By using this program,
 the user acknowledges that Gaussian, Inc. is engaged in the
 business of creating and licensing software in the field of
 computational chemistry and represents and warrants to the
 licensee that it is not a competitor of Gaussian, Inc. and that
 it will not use this program in any manner prohibited above.
 ---------------------------------------------------------------
  

 Cite this work as:
 Gaussian 16, Revision B.01,
 M. J. Frisch, G. W. Trucks, H. B. Schlegel, G. E. Scuseria, 
 M. A. Robb, J. R. Cheeseman, G. Scalmani, V. Barone, 
 G. A. Petersson, H. Nakatsuji, X. Li, M. Caricato, A. V. Marenich, 
 J. Bloino, B. G. Janesko, R. Gomperts, B. Mennucci, H. P. Hratchian, 
 J. V. Ortiz, A. F. Izmaylov, J. L. Sonnenberg, D. Williams-Young, 
 F. Ding, F. Lipparini, F. Egidi, J. Goings, B. Peng, A. Petrone, 
 T. Henderson, D. Ranasinghe, V. G. Zakrzewski, J. Gao, N. Rega, 
 G. Zheng, W. Liang, M. Hada, M. Ehara, K. Toyota, R. Fukuda, 
 J. Hasegawa, M. Ishida, T. Nakajima, Y. Honda, O. Kitao, H. Nakai, 
 T. Vreven, K. Throssell, J. A. Montgomery, Jr., J. E. Peralta, 
 F. Ogliaro, M. J. Bearpark, J. J. Heyd, E. N. Brothers, K. N. Kudin, 
 V. N. Staroverov, T. A. Keith, R. Kobayashi, J. Normand, 
 K. Raghavachari, A. P. Rendell, J. C. Burant, S. S. Iyengar, 
 J. Tomasi, M. Cossi, J. M. Millam, M. Klene, C. Adamo, R. Cammi, 
 J. W. Ochterski, R. L. Martin, K. Morokuma, O. Farkas, 
 J. B. Foresman, and D. J. Fox, Gaussian, Inc., Wallingford CT, 2016.
 
 ******************************************
 Gaussian 16:  ES64L-G16RevB.01 20-Dec-2017
                29-Nov-2023 
 ******************************************
 %nproc=15
 Will use up to   15 processors via shared memory.
 -------------------------
 #P B3LYP/6-311+g(d) force
 -------------------------
 1/10=7,30=1,38=1/1,3;
 2/12=2,17=6,18=5,40=1/2;
 3/5=4,6=6,7=11,11=2,25=1,30=1,71=1,74=-5/1,2,3;
 4//1;
 5/5=2,38=5/2;
 6/7=2,8=2,9=2,10=2,28=1/1;
 7/29=1/1,2,3,16;
 1/10=7,30=1/3;
 99//99;
 Leave Link    1 at Wed Nov 29 02:21:18 2023, MaxMem=           0 cpu:               0.3 elap:               0.0
 (Enter /home/sekinelabo/g16/l101.exe)
 -----
 DPGEN
 -----
 Symbolic Z-matrix:
 Charge =  0 Multiplicity = 2
 Na                    14.8097   17.735    17.0086 
 Na                    16.9295   15.6085   15.095 
 Na                    13.9765   13.6412   13.5316 
 Na                    14.5119   14.2005   17.1576 
 Na                    13.7345   11.0643   15.8011 
 Na                    15.5642   16.9531   12.0797 
 Na                    17.8993   18.223    16.7519 
 
 ITRead=  0  0  0  0  0  0  0
 MicOpt= -1 -1 -1 -1 -1 -1 -1
 NAtoms=      7 NQM=        7 NQMF=       0 NMMI=      0 NMMIF=      0
                NMic=       0 NMicF=      0.
                    Isotopes and Nuclear Properties:
 (Nuclear quadrupole moments (NQMom) in fm**2, nuclear magnetic moments (NMagM)
  in nuclear magnetons)

  Atom         1           2           3           4           5           6           7
 IAtWgt=          23          23          23          23          23          23          23
 AtmWgt=  22.9897697  22.9897697  22.9897697  22.9897697  22.9897697  22.9897697  22.9897697
 NucSpn=           3           3           3           3           3           3           3
 AtZEff=  -0.0000000  -0.0000000  -0.0000000  -0.0000000  -0.0000000  -0.0000000  -0.0000000
 NQMom=   10.4000000  10.4000000  10.4000000  10.4000000  10.4000000  10.4000000  10.4000000
 NMagM=    2.2175200   2.2175200   2.2175200   2.2175200   2.2175200   2.2175200   2.2175200
 AtZNuc=  11.0000000  11.0000000  11.0000000  11.0000000  11.0000000  11.0000000  11.0000000
 Leave Link  101 at Wed Nov 29 02:21:19 2023, MaxMem=  1879048192 cpu:               2.4 elap:               0.2
 (Enter /home/sekinelabo/g16/l103.exe)

 GradGradGradGradGradGradGradGradGradGradGradGradGradGradGradGradGradGrad
 Berny optimization.
 Initialization pass.
 Trust Radius=3.00D-01 FncErr=1.00D-07 GrdErr=1.00D-07 EigMax=2.50D+02 EigMin=1.00D-04
 Number of steps in this run=      2 maximum allowed number of steps=      2.
 GradGradGradGradGradGradGradGradGradGradGradGradGradGradGradGradGradGrad

 Leave Link  103 at Wed Nov 29 02:21:19 2023, MaxMem=  1879048192 cpu:               0.2 elap:               0.0
 (Enter /home/sekinelabo/g16/l202.exe)
                          Input orientation:                          
 ---------------------------------------------------------------------
 Center     Atomic      Atomic             Coordinates (Angstroms)
 Number     Number       Type             X           Y           Z
 ---------------------------------------------------------------------
      1         11           0       14.809700   17.735000   17.008600
      2         11           0       16.929500   15.608500   15.095000
      3         11           0       13.976500   13.641200   13.531600
      4         11           0       14.511900   14.200500   17.157600
      5         11           0       13.734500   11.064300   15.801100
      6         11           0       15.564200   16.953100   12.079700
      7         11           0       17.899300   18.223000   16.751900
 ---------------------------------------------------------------------
                    Distance matrix (angstroms):
                    1          2          3          4          5
     1  Na   0.000000
     2  Na   3.560536   0.000000
     3  Na   5.435343   3.877460   0.000000
     4  Na   3.550152   3.475856   3.707741   0.000000
     5  Na   6.863844   5.599675   3.442326   3.504311   0.000000
     6  Na   5.047246   3.572678   3.949365   5.871048   7.202401
     7  Na   3.138418   3.243677   6.837513   5.274427   8.336460
                    6          7
     6  Na   0.000000
     7  Na   5.375388   0.000000
 Stoichiometry    Na7(2)
 Framework group  C1[X(Na7)]
 Deg. of freedom    15
 Full point group                 C1      NOp   1
 Largest Abelian subgroup         C1      NOp   1
 Largest concise Abelian subgroup C1      NOp   1
                         Standard orientation:                         
 ---------------------------------------------------------------------
 Center     Atomic      Atomic             Coordinates (Angstroms)
 Number     Number       Type             X           Y           Z
 ---------------------------------------------------------------------
      1         11           0        2.026652   -1.399113    1.640359
      2         11           0        0.927900    0.273435   -1.304595
      3         11           0       -2.301791    1.628408    0.359088
      4         11           0       -1.226386   -1.919705    0.317367
      5         11           0       -4.484174   -0.899851   -0.474408
      6         11           0        1.219045    3.417582    0.366812
      7         11           0        3.838753   -1.100755   -0.904624
 ---------------------------------------------------------------------
 Rotational constants (GHZ):           0.7887361           0.4078372           0.3132743
 Leave Link  202 at Wed Nov 29 02:21:19 2023, MaxMem=  1879048192 cpu:               0.0 elap:               0.0
 (Enter /home/sekinelabo/g16/l301.exe)
 Standard basis: 6-311+G(d) (5D, 7F)
 Ernie: Thresh=  0.10000D-02 Tol=  0.10000D-05 Strict=F.
 There are   217 symmetry adapted cartesian basis functions of A   symmetry.
 There are   210 symmetry adapted basis functions of A   symmetry.
   210 basis functions,   350 primitive gaussians,   217 cartesian basis functions
    39 alpha electrons       38 beta electrons
       nuclear repulsion energy       305.4970210395 Hartrees.
 IExCor=  402 DFT=T Ex+Corr=B3LYP ExCW=0 ScaHFX=  0.200000
 ScaDFX=  0.800000  0.720000  1.000000  0.810000 ScalE2=  1.000000  1.000000
 IRadAn=      5 IRanWt=     -1 IRanGd=            0 ICorTp=0 IEmpDi=  4
 NAtoms=    7 NActive=    7 NUniq=    7 SFac= 1.00D+00 NAtFMM=   60 NAOKFM=F Big=F
 Integral buffers will be    131072 words long.
 Raffenetti 2 integral format.
 Two-electron integral symmetry is turned on.
 Leave Link  301 at Wed Nov 29 02:21:19 2023, MaxMem=  1879048192 cpu:               0.5 elap:               0.0
 (Enter /home/sekinelabo/g16/l302.exe)
 NPDir=0 NMtPBC=     1 NCelOv=     1 NCel=       1 NClECP=     1 NCelD=      1
         NCelK=      1 NCelE2=     1 NClLst=     1 CellRange=     0.0.
 One-electron integrals computed using PRISM.
 One-electron integral symmetry used in STVInt
 NBasis=   210 RedAO= T EigKep=  6.94D-06  NBF=   210
 NBsUse=   210 1.00D-06 EigRej= -1.00D+00 NBFU=   210
 Precomputing XC quadrature grid using
 IXCGrd= 4 IRadAn=           5 IRanWt=          -1 IRanGd=           0 AccXCQ= 0.00D+00.
 Generated NRdTot=       0 NPtTot=           0 NUsed=           0 NTot=          32
 NSgBfM=   209   209   209   209   209 MxSgAt=     7 MxSgA2=     7.
 Leave Link  302 at Wed Nov 29 02:21:19 2023, MaxMem=  1879048192 cpu:               1.9 elap:               0.1
 (Enter /home/sekinelabo/g16/l303.exe)
 DipDrv:  MaxL=1.
 Leave Link  303 at Wed Nov 29 02:21:19 2023, MaxMem=  1879048192 cpu:               0.5 elap:               0.0
 (Enter /home/sekinelabo/g16/l401.exe)
 ExpMin= 7.60D-03 ExpMax= 3.62D+04 ExpMxC= 1.21D+03 IAcc=3 IRadAn=         5 AccDes= 0.00D+00
 Harris functional with IExCor=  402 and IRadAn=       5 diagonalized for initial guess.
 HarFok:  IExCor=  402 AccDes= 0.00D+00 IRadAn=         5 IDoV= 1 UseB2=F ITyADJ=14
 ICtDFT=  3500011 ScaDFX=  1.000000  1.000000  1.000000  1.000000
 FoFCou: FMM=F IPFlag=           0 FMFlag=      100000 FMFlg1=           0
         NFxFlg=           0 DoJE=T BraDBF=F KetDBF=T FulRan=T
         wScrn=  0.000000 ICntrl=       500 IOpCl=  0 I1Cent=   200000004 NGrid=           0
         NMat0=    1 NMatS0=      1 NMatT0=    0 NMatD0=    1 NMtDS0=    0 NMtDT0=    0
 Petite list used in FoFCou.
 Harris En= -1135.88868664532    
 JPrj=0 DoOrth=F DoCkMO=F.
 Initial guess <Sx>= 0.0000 <Sy>= 0.0000 <Sz>= 0.5000 <S**2>= 0.7500 S= 0.5000
 Leave Link  401 at Wed Nov 29 02:21:19 2023, MaxMem=  1879048192 cpu:               4.4 elap:               0.3
 (Enter /home/sekinelabo/g16/l502.exe)
 Keep R1 and R2 ints in memory in canonical form, NReq=506573307.
 FoFCou: FMM=F IPFlag=           0 FMFlag=           0 FMFlg1=           0
         NFxFlg=           0 DoJE=F BraDBF=F KetDBF=F FulRan=T
         wScrn=  0.000000 ICntrl=       600 IOpCl=  0 I1Cent=           0 NGrid=           0
         NMat0=    1 NMatS0=  22155 NMatT0=    0 NMatD0=    1 NMtDS0=    0 NMtDT0=    0
 Symmetry not used in FoFCou.
 Two-electron integral symmetry not used.
 UHF open shell SCF:
 Using DIIS extrapolation, IDIIS=  1040.
 NGot=  1879048192 LenX=  1388082593 LenY=  1388035063
 Requested convergence on RMS density matrix=1.00D-08 within 128 cycles.
 Requested convergence on MAX density matrix=1.00D-06.
 Requested convergence on             energy=1.00D-06.
 No special actions if energy rises.

 Cycle   1  Pass 1  IDiag  1:
 E= -1136.09187688826    
 DIIS: error= 1.25D-02 at cycle   1 NSaved=   1.
 NSaved= 1 IEnMin= 1 EnMin= -1136.09187688826     IErMin= 1 ErrMin= 1.25D-02
 ErrMax= 1.25D-02  0.00D+00 EMaxC= 1.00D-01 BMatC= 1.85D-01 BMatP= 1.85D-01
 IDIUse=3 WtCom= 8.75D-01 WtEn= 1.25D-01
 Coeff-Com:  0.100D+01
 Coeff-En:   0.100D+01
 Coeff:      0.100D+01
 Gap=     0.035 Goal=   None    Shift=    0.000
 Gap=     0.043 Goal=   None    Shift=    0.000
 GapD=    0.035 DampG=0.250 DampE=0.500 DampFc=0.2500 IDamp=-1.
 Damping current iteration by 2.50D-01
 RMSDP=6.48D-03 MaxDP=3.38D-01              OVMax= 1.82D-01

 Cycle   2  Pass 1  IDiag  1:
 E= -1136.10134347691     Delta-E=       -0.009466588650 Rises=F Damp=T
 DIIS: error= 8.82D-03 at cycle   2 NSaved=   2.
 NSaved= 2 IEnMin= 2 EnMin= -1136.10134347691     IErMin= 2 ErrMin= 8.82D-03
 ErrMax= 8.82D-03  0.00D+00 EMaxC= 1.00D-01 BMatC= 7.14D-02 BMatP= 1.85D-01
 IDIUse=3 WtCom= 9.12D-01 WtEn= 8.82D-02
 Coeff-Com: -0.129D+01 0.229D+01
 Coeff-En:   0.000D+00 0.100D+01
 Coeff:     -0.118D+01 0.218D+01
 Gap=     0.033 Goal=   None    Shift=    0.000
 Gap=     0.047 Goal=   None    Shift=    0.000
 RMSDP=3.95D-03 MaxDP=2.15D-01 DE=-9.47D-03 OVMax= 1.24D-01

 Cycle   3  Pass 1  IDiag  1:
 E= -1136.11896357225     Delta-E=       -0.017620095337 Rises=F Damp=F
 DIIS: error= 2.29D-03 at cycle   3 NSaved=   3.
 NSaved= 3 IEnMin= 3 EnMin= -1136.11896357225     IErMin= 3 ErrMin= 2.29D-03
 ErrMax= 2.29D-03  0.00D+00 EMaxC= 1.00D-01 BMatC= 1.53D-03 BMatP= 7.14D-02
 IDIUse=3 WtCom= 9.77D-01 WtEn= 2.29D-02
 Coeff-Com: -0.117D+00 0.213D+00 0.904D+00
 Coeff-En:   0.000D+00 0.000D+00 0.100D+01
 Coeff:     -0.115D+00 0.208D+00 0.906D+00
 Gap=     0.035 Goal=   None    Shift=    0.000
 Gap=     0.048 Goal=   None    Shift=    0.000
 RMSDP=2.12D-03 MaxDP=1.63D-01 DE=-1.76D-02 OVMax= 7.71D-02

 Cycle   4  Pass 1  IDiag  1:
 E= -1136.11841702217     Delta-E=        0.000546550081 Rises=F Damp=F
 DIIS: error= 2.69D-03 at cycle   4 NSaved=   4.
 NSaved= 4 IEnMin= 3 EnMin= -1136.11896357225     IErMin= 3 ErrMin= 2.29D-03
 ErrMax= 2.69D-03  0.00D+00 EMaxC= 1.00D-01 BMatC= 2.16D-03 BMatP= 1.53D-03
 IDIUse=3 WtCom= 1.62D-01 WtEn= 8.38D-01
 Coeff-Com:  0.962D-02-0.137D-01 0.545D+00 0.459D+00
 Coeff-En:   0.000D+00 0.000D+00 0.569D+00 0.431D+00
 Coeff:      0.156D-02-0.221D-02 0.565D+00 0.436D+00
 Gap=     0.034 Goal=   None    Shift=    0.000
 Gap=     0.048 Goal=   None    Shift=    0.000
 RMSDP=1.11D-03 MaxDP=5.88D-02 DE= 5.47D-04 OVMax= 3.83D-02

 Cycle   5  Pass 1  IDiag  1:
 E= -1136.12047618769     Delta-E=       -0.002059165518 Rises=F Damp=F
 DIIS: error= 1.69D-04 at cycle   5 NSaved=   5.
 NSaved= 5 IEnMin= 5 EnMin= -1136.12047618769     IErMin= 5 ErrMin= 1.69D-04
 ErrMax= 1.69D-04  0.00D+00 EMaxC= 1.00D-01 BMatC= 1.70D-05 BMatP= 1.53D-03
 IDIUse=3 WtCom= 9.98D-01 WtEn= 1.69D-03
 Coeff-Com: -0.132D-02 0.776D-03 0.169D+00 0.111D+00 0.720D+00
 Coeff-En:   0.000D+00 0.000D+00 0.000D+00 0.000D+00 0.100D+01
 Coeff:     -0.132D-02 0.774D-03 0.169D+00 0.111D+00 0.721D+00
 Gap=     0.034 Goal=   None    Shift=    0.000
 Gap=     0.049 Goal=   None    Shift=    0.000
 RMSDP=2.09D-04 MaxDP=1.85D-02 DE=-2.06D-03 OVMax= 1.16D-02

 Cycle   6  Pass 1  IDiag  1:
 E= -1136.12049818070     Delta-E=       -0.000021993011 Rises=F Damp=F
 DIIS: error= 1.93D-04 at cycle   6 NSaved=   6.
 NSaved= 6 IEnMin= 6 EnMin= -1136.12049818070     IErMin= 5 ErrMin= 1.69D-04
 ErrMax= 1.93D-04  0.00D+00 EMaxC= 1.00D-01 BMatC= 9.24D-06 BMatP= 1.70D-05
 IDIUse=3 WtCom= 9.98D-01 WtEn= 1.69D-03
 EnCoef did     1 forward-backward iterations
 Coeff-Com: -0.498D-02 0.612D-02-0.874D-01-0.968D-01 0.491D+00 0.692D+00
 Coeff-En:   0.000D+00 0.000D+00 0.000D+00 0.000D+00 0.652D-02 0.993D+00
 Coeff:     -0.497D-02 0.611D-02-0.872D-01-0.967D-01 0.490D+00 0.692D+00
 Gap=     0.034 Goal=   None    Shift=    0.000
 Gap=     0.049 Goal=   None    Shift=    0.000
 RMSDP=1.62D-04 MaxDP=1.20D-02 DE=-2.20D-05 OVMax= 6.65D-03

 Cycle   7  Pass 1  IDiag  1:
 E= -1136.12052007942     Delta-E=       -0.000021898723 Rises=F Damp=F
 DIIS: error= 4.46D-05 at cycle   7 NSaved=   7.
 NSaved= 7 IEnMin= 7 EnMin= -1136.12052007942     IErMin= 7 ErrMin= 4.46D-05
 ErrMax= 4.46D-05  0.00D+00 EMaxC= 1.00D-01 BMatC= 9.93D-07 BMatP= 9.24D-06
 IDIUse=1 WtCom= 1.00D+00 WtEn= 0.00D+00
 Coeff-Com: -0.134D-02 0.178D-02-0.639D-01-0.539D-01 0.382D-01 0.183D+00
 Coeff-Com:  0.897D+00
 Coeff:     -0.134D-02 0.178D-02-0.639D-01-0.539D-01 0.382D-01 0.183D+00
 Coeff:      0.897D+00
 Gap=     0.034 Goal=   None    Shift=    0.000
 Gap=     0.048 Goal=   None    Shift=    0.000
 RMSDP=8.35D-05 MaxDP=6.25D-03 DE=-2.19D-05 OVMax= 5.55D-03

 Cycle   8  Pass 1  IDiag  1:
 E= -1136.12052556854     Delta-E=       -0.000005489116 Rises=F Damp=F
 DIIS: error= 3.33D-05 at cycle   8 NSaved=   8.
 NSaved= 8 IEnMin= 8 EnMin= -1136.12052556854     IErMin= 8 ErrMin= 3.33D-05
 ErrMax= 3.33D-05  0.00D+00 EMaxC= 1.00D-01 BMatC= 5.86D-07 BMatP= 9.93D-07
 IDIUse=1 WtCom= 1.00D+00 WtEn= 0.00D+00
 Coeff-Com:  0.986D-03-0.117D-02-0.132D-01-0.476D-02-0.110D+00-0.980D-01
 Coeff-Com:  0.519D+00 0.707D+00
 Coeff:      0.986D-03-0.117D-02-0.132D-01-0.476D-02-0.110D+00-0.980D-01
 Coeff:      0.519D+00 0.707D+00
 Gap=     0.034 Goal=   None    Shift=    0.000
 Gap=     0.048 Goal=   None    Shift=    0.000
 RMSDP=5.11D-05 MaxDP=3.43D-03 DE=-5.49D-06 OVMax= 3.78D-03

 Cycle   9  Pass 1  IDiag  1:
 E= -1136.12052815574     Delta-E=       -0.000002587199 Rises=F Damp=F
 DIIS: error= 1.65D-05 at cycle   9 NSaved=   9.
 NSaved= 9 IEnMin= 9 EnMin= -1136.12052815574     IErMin= 9 ErrMin= 1.65D-05
 ErrMax= 1.65D-05  0.00D+00 EMaxC= 1.00D-01 BMatC= 1.13D-07 BMatP= 5.86D-07
 IDIUse=1 WtCom= 1.00D+00 WtEn= 0.00D+00
 Coeff-Com:  0.760D-03-0.959D-03 0.134D-01 0.106D-01-0.195D-01-0.638D-01
 Coeff-Com: -0.187D+00 0.890D-01 0.116D+01
 Coeff:      0.760D-03-0.959D-03 0.134D-01 0.106D-01-0.195D-01-0.638D-01
 Coeff:     -0.187D+00 0.890D-01 0.116D+01
 Gap=     0.034 Goal=   None    Shift=    0.000
 Gap=     0.048 Goal=   None    Shift=    0.000
 RMSDP=4.47D-05 MaxDP=1.92D-03 DE=-2.59D-06 OVMax= 4.11D-03

 Cycle  10  Pass 1  IDiag  1:
 E= -1136.12052938871     Delta-E=       -0.000001232977 Rises=F Damp=F
 DIIS: error= 1.11D-05 at cycle  10 NSaved=  10.
 NSaved=10 IEnMin=10 EnMin= -1136.12052938871     IErMin=10 ErrMin= 1.11D-05
 ErrMax= 1.11D-05  0.00D+00 EMaxC= 1.00D-01 BMatC= 4.77D-08 BMatP= 1.13D-07
 IDIUse=1 WtCom= 1.00D+00 WtEn= 0.00D+00
 Coeff-Com: -0.219D-03 0.273D-03 0.105D-01 0.606D-02 0.335D-01-0.780D-02
 Coeff-Com: -0.220D+00-0.202D+00 0.416D+00 0.964D+00
 Coeff:     -0.219D-03 0.273D-03 0.105D-01 0.606D-02 0.335D-01-0.780D-02
 Coeff:     -0.220D+00-0.202D+00 0.416D+00 0.964D+00
 Gap=     0.034 Goal=   None    Shift=    0.000
 Gap=     0.048 Goal=   None    Shift=    0.000
 RMSDP=3.42D-05 MaxDP=1.64D-03 DE=-1.23D-06 OVMax= 2.65D-03

 Cycle  11  Pass 1  IDiag  1:
 E= -1136.12052980748     Delta-E=       -0.000000418766 Rises=F Damp=F
 DIIS: error= 6.03D-06 at cycle  11 NSaved=  11.
 NSaved=11 IEnMin=11 EnMin= -1136.12052980748     IErMin=11 ErrMin= 6.03D-06
 ErrMax= 6.03D-06  0.00D+00 EMaxC= 1.00D-01 BMatC= 1.89D-08 BMatP= 4.77D-08
 IDIUse=1 WtCom= 1.00D+00 WtEn= 0.00D+00
 Coeff-Com: -0.576D-03 0.736D-03 0.305D-03-0.109D-02 0.320D-01 0.186D-01
 Coeff-Com: -0.613D-01-0.161D+00-0.176D+00 0.529D+00 0.819D+00
 Coeff:     -0.576D-03 0.736D-03 0.305D-03-0.109D-02 0.320D-01 0.186D-01
 Coeff:     -0.613D-01-0.161D+00-0.176D+00 0.529D+00 0.819D+00
 Gap=     0.034 Goal=   None    Shift=    0.000
 Gap=     0.048 Goal=   None    Shift=    0.000
 RMSDP=2.07D-05 MaxDP=9.69D-04 DE=-4.19D-07 OVMax= 1.68D-03

 Cycle  12  Pass 1  IDiag  1:
 E= -1136.12052993302     Delta-E=       -0.000000125544 Rises=F Damp=F
 DIIS: error= 3.46D-06 at cycle  12 NSaved=  12.
 NSaved=12 IEnMin=12 EnMin= -1136.12052993302     IErMin=12 ErrMin= 3.46D-06
 ErrMax= 3.46D-06  0.00D+00 EMaxC= 1.00D-01 BMatC= 2.47D-09 BMatP= 1.89D-08
 IDIUse=1 WtCom= 1.00D+00 WtEn= 0.00D+00
 Coeff-Com: -0.770D-04 0.967D-04-0.220D-02-0.136D-02 0.981D-03 0.644D-02
 Coeff-Com:  0.313D-01 0.570D-02-0.116D+00-0.106D+00 0.165D+00 0.102D+01
 Coeff:     -0.770D-04 0.967D-04-0.220D-02-0.136D-02 0.981D-03 0.644D-02
 Coeff:      0.313D-01 0.570D-02-0.116D+00-0.106D+00 0.165D+00 0.102D+01
 Gap=     0.034 Goal=   None    Shift=    0.000
 Gap=     0.048 Goal=   None    Shift=    0.000
 RMSDP=9.89D-06 MaxDP=5.08D-04 DE=-1.26D-07 OVMax= 7.83D-04

 Cycle  13  Pass 1  IDiag  1:
 E= -1136.12052995786     Delta-E=       -0.000000024835 Rises=F Damp=F
 DIIS: error= 1.65D-06 at cycle  13 NSaved=  13.
 NSaved=13 IEnMin=13 EnMin= -1136.12052995786     IErMin=13 ErrMin= 1.65D-06
 ErrMax= 1.65D-06  0.00D+00 EMaxC= 1.00D-01 BMatC= 6.44D-10 BMatP= 2.47D-09
 IDIUse=1 WtCom= 1.00D+00 WtEn= 0.00D+00
 Coeff-Com:  0.149D-03-0.191D-03-0.602D-04 0.145D-03-0.561D-02-0.580D-02
 Coeff-Com:  0.109D-01 0.374D-01 0.456D-01-0.128D+00-0.194D+00-0.487D-01
 Coeff-Com:  0.129D+01
 Coeff:      0.149D-03-0.191D-03-0.602D-04 0.145D-03-0.561D-02-0.580D-02
 Coeff:      0.109D-01 0.374D-01 0.456D-01-0.128D+00-0.194D+00-0.487D-01
 Coeff:      0.129D+01
 Gap=     0.034 Goal=   None    Shift=    0.000
 Gap=     0.048 Goal=   None    Shift=    0.000
 RMSDP=5.82D-06 MaxDP=2.79D-04 DE=-2.48D-08 OVMax= 4.84D-04

 Cycle  14  Pass 1  IDiag  1:
 E= -1136.12052996587     Delta-E=       -0.000000008009 Rises=F Damp=F
 DIIS: error= 6.93D-07 at cycle  14 NSaved=  14.
 NSaved=14 IEnMin=14 EnMin= -1136.12052996587     IErMin=14 ErrMin= 6.93D-07
 ErrMax= 6.93D-07  0.00D+00 EMaxC= 1.00D-01 BMatC= 1.60D-10 BMatP= 6.44D-10
 IDIUse=1 WtCom= 1.00D+00 WtEn= 0.00D+00
 Coeff-Com:  0.275D-04-0.335D-04 0.335D-03 0.152D-03 0.558D-04-0.186D-02
 Coeff-Com: -0.889D-02 0.423D-02 0.422D-01 0.901D-03-0.721D-01-0.257D+00
 Coeff-Com:  0.179D+00 0.111D+01
 Coeff:      0.275D-04-0.335D-04 0.335D-03 0.152D-03 0.558D-04-0.186D-02
 Coeff:     -0.889D-02 0.423D-02 0.422D-01 0.901D-03-0.721D-01-0.257D+00
 Coeff:      0.179D+00 0.111D+01
 Gap=     0.034 Goal=   None    Shift=    0.000
 Gap=     0.048 Goal=   None    Shift=    0.000
 RMSDP=2.53D-06 MaxDP=1.18D-04 DE=-8.01D-09 OVMax= 2.07D-04

 Cycle  15  Pass 1  IDiag  1:
 E= -1136.12052996756     Delta-E=       -0.000000001695 Rises=F Damp=F
 DIIS: error= 3.38D-07 at cycle  15 NSaved=  15.
 NSaved=15 IEnMin=15 EnMin= -1136.12052996756     IErMin=15 ErrMin= 3.38D-07
 ErrMax= 3.38D-07  0.00D+00 EMaxC= 1.00D-01 BMatC= 3.74D-11 BMatP= 1.60D-10
 IDIUse=1 WtCom= 1.00D+00 WtEn= 0.00D+00
 Coeff-Com: -0.507D-04 0.663D-04 0.919D-04-0.220D-04 0.166D-02 0.168D-02
 Coeff-Com: -0.403D-02-0.122D-01-0.714D-02 0.377D-01 0.532D-01-0.104D-01
 Coeff-Com: -0.388D+00 0.183D+00 0.114D+01
 Coeff:     -0.507D-04 0.663D-04 0.919D-04-0.220D-04 0.166D-02 0.168D-02
 Coeff:     -0.403D-02-0.122D-01-0.714D-02 0.377D-01 0.532D-01-0.104D-01
 Coeff:     -0.388D+00 0.183D+00 0.114D+01
 Gap=     0.034 Goal=   None    Shift=    0.000
 Gap=     0.048 Goal=   None    Shift=    0.000
 RMSDP=1.11D-06 MaxDP=7.45D-05 DE=-1.70D-09 OVMax= 8.25D-05

 Cycle  16  Pass 1  IDiag  1:
 E= -1136.12052996790     Delta-E=       -0.000000000334 Rises=F Damp=F
 DIIS: error= 1.28D-07 at cycle  16 NSaved=  16.
 NSaved=16 IEnMin=16 EnMin= -1136.12052996790     IErMin=16 ErrMin= 1.28D-07
 ErrMax= 1.28D-07  0.00D+00 EMaxC= 1.00D-01 BMatC= 4.55D-12 BMatP= 3.74D-11
 IDIUse=1 WtCom= 1.00D+00 WtEn= 0.00D+00
 Coeff-Com: -0.423D-05 0.507D-05-0.176D-04-0.114D-05 0.679D-04 0.288D-03
 Coeff-Com:  0.678D-03-0.132D-02-0.510D-02 0.281D-02 0.953D-02 0.382D-01
 Coeff-Com: -0.540D-01-0.121D+00 0.889D-01 0.104D+01
 Coeff:     -0.423D-05 0.507D-05-0.176D-04-0.114D-05 0.679D-04 0.288D-03
 Coeff:      0.678D-03-0.132D-02-0.510D-02 0.281D-02 0.953D-02 0.382D-01
 Coeff:     -0.540D-01-0.121D+00 0.889D-01 0.104D+01
 Gap=     0.034 Goal=   None    Shift=    0.000
 Gap=     0.048 Goal=   None    Shift=    0.000
 RMSDP=2.21D-07 MaxDP=1.34D-05 DE=-3.34D-10 OVMax= 1.45D-05

 Cycle  17  Pass 1  IDiag  1:
 E= -1136.12052996793     Delta-E=       -0.000000000036 Rises=F Damp=F
 DIIS: error= 7.07D-08 at cycle  17 NSaved=  17.
 NSaved=17 IEnMin=17 EnMin= -1136.12052996793     IErMin=17 ErrMin= 7.07D-08
 ErrMax= 7.07D-08  0.00D+00 EMaxC= 1.00D-01 BMatC= 1.44D-12 BMatP= 4.55D-12
 IDIUse=1 WtCom= 1.00D+00 WtEn= 0.00D+00
 Coeff-Com:  0.108D-04-0.142D-04-0.273D-04-0.169D-05-0.326D-03-0.405D-03
 Coeff-Com:  0.104D-02 0.265D-02 0.533D-03-0.769D-02-0.987D-02 0.287D-02
 Coeff-Com:  0.818D-01-0.513D-01-0.236D+00 0.229D-01 0.119D+01
 Coeff:      0.108D-04-0.142D-04-0.273D-04-0.169D-05-0.326D-03-0.405D-03
 Coeff:      0.104D-02 0.265D-02 0.533D-03-0.769D-02-0.987D-02 0.287D-02
 Coeff:      0.818D-01-0.513D-01-0.236D+00 0.229D-01 0.119D+01
 Gap=     0.034 Goal=   None    Shift=    0.000
 Gap=     0.048 Goal=   None    Shift=    0.000
 RMSDP=1.63D-07 MaxDP=1.09D-05 DE=-3.59D-11 OVMax= 1.12D-05

 Cycle  18  Pass 1  IDiag  1:
 E= -1136.12052996796     Delta-E=       -0.000000000021 Rises=F Damp=F
 DIIS: error= 4.35D-08 at cycle  18 NSaved=  18.
 NSaved=18 IEnMin=18 EnMin= -1136.12052996796     IErMin=18 ErrMin= 4.35D-08
 ErrMax= 4.35D-08  0.00D+00 EMaxC= 1.00D-01 BMatC= 4.53D-13 BMatP= 1.44D-12
 IDIUse=1 WtCom= 1.00D+00 WtEn= 0.00D+00
 Coeff-Com:  0.521D-06-0.553D-06 0.380D-05-0.110D-05-0.311D-04-0.408D-04
 Coeff-Com: -0.146D-03 0.232D-03 0.122D-02-0.682D-03-0.149D-02-0.944D-02
 Coeff-Com:  0.553D-02 0.347D-01 0.122D-02-0.300D+00-0.128D+00 0.140D+01
 Coeff:      0.521D-06-0.553D-06 0.380D-05-0.110D-05-0.311D-04-0.408D-04
 Coeff:     -0.146D-03 0.232D-03 0.122D-02-0.682D-03-0.149D-02-0.944D-02
 Coeff:      0.553D-02 0.347D-01 0.122D-02-0.300D+00-0.128D+00 0.140D+01
 Gap=     0.034 Goal=   None    Shift=    0.000
 Gap=     0.048 Goal=   None    Shift=    0.000
 RMSDP=1.32D-07 MaxDP=1.11D-05 DE=-2.09D-11 OVMax= 8.53D-06

 Cycle  19  Pass 1  IDiag  1:
 E= -1136.12052996795     Delta-E=        0.000000000007 Rises=F Damp=F
 DIIS: error= 1.96D-08 at cycle  19 NSaved=  19.
 NSaved=19 IEnMin=18 EnMin= -1136.12052996796     IErMin=19 ErrMin= 1.96D-08
 ErrMax= 1.96D-08  0.00D+00 EMaxC= 1.00D-01 BMatC= 1.22D-13 BMatP= 4.53D-13
 IDIUse=1 WtCom= 1.00D+00 WtEn= 0.00D+00
 Coeff-Com: -0.336D-05 0.443D-05 0.842D-05 0.288D-06 0.990D-04 0.113D-03
 Coeff-Com: -0.282D-03-0.825D-03-0.305D-03 0.261D-02 0.292D-02-0.322D-04
 Coeff-Com: -0.241D-01 0.137D-01 0.668D-01 0.537D-01-0.395D+00-0.188D+00
 Coeff-Com:  0.147D+01
 Coeff:     -0.336D-05 0.443D-05 0.842D-05 0.288D-06 0.990D-04 0.113D-03
 Coeff:     -0.282D-03-0.825D-03-0.305D-03 0.261D-02 0.292D-02-0.322D-04
 Coeff:     -0.241D-01 0.137D-01 0.668D-01 0.537D-01-0.395D+00-0.188D+00
 Coeff:      0.147D+01
 Gap=     0.034 Goal=   None    Shift=    0.000
 Gap=     0.048 Goal=   None    Shift=    0.000
 RMSDP=9.03D-08 MaxDP=7.14D-06 DE= 6.82D-12 OVMax= 5.57D-06

 Cycle  20  Pass 1  IDiag  1:
 E= -1136.12052996795     Delta-E=       -0.000000000003 Rises=F Damp=F
 DIIS: error= 6.71D-09 at cycle  20 NSaved=  20.
 NSaved=20 IEnMin=18 EnMin= -1136.12052996796     IErMin=20 ErrMin= 6.71D-09
 ErrMax= 6.71D-09  0.00D+00 EMaxC= 1.00D-01 BMatC= 2.30D-14 BMatP= 1.22D-13
 IDIUse=1 WtCom= 1.00D+00 WtEn= 0.00D+00
 Coeff-Com: -0.157D-06 0.183D-06 0.292D-06 0.101D-05 0.539D-05 0.114D-04
 Coeff-Com:  0.117D-04-0.657D-04-0.150D-03 0.783D-04 0.441D-03 0.205D-02
 Coeff-Com: -0.257D-02-0.590D-02 0.649D-02 0.541D-01 0.157D-01-0.304D+00
 Coeff-Com:  0.105D+00 0.113D+01
 Coeff:     -0.157D-06 0.183D-06 0.292D-06 0.101D-05 0.539D-05 0.114D-04
 Coeff:      0.117D-04-0.657D-04-0.150D-03 0.783D-04 0.441D-03 0.205D-02
 Coeff:     -0.257D-02-0.590D-02 0.649D-02 0.541D-01 0.157D-01-0.304D+00
 Coeff:      0.105D+00 0.113D+01
 Gap=     0.034 Goal=   None    Shift=    0.000
 Gap=     0.048 Goal=   None    Shift=    0.000
 RMSDP=3.26D-08 MaxDP=2.82D-06 DE=-2.73D-12 OVMax= 1.71D-06

 Cycle  21  Pass 1  IDiag  1:
 E= -1136.12052996795     Delta-E=       -0.000000000003 Rises=F Damp=F
 DIIS: error= 3.45D-09 at cycle  21 NSaved=  20.
 NSaved=20 IEnMin=17 EnMin= -1136.12052996796     IErMin=20 ErrMin= 3.45D-09
 ErrMax= 3.45D-09  0.00D+00 EMaxC= 1.00D-01 BMatC= 6.54D-15 BMatP= 2.30D-14
 IDIUse=1 WtCom= 1.00D+00 WtEn= 0.00D+00
 Large coefficients: NSaved= 20 BigCof=    0.00 CofMax=   10.00 Det=-9.74D-15
 Inversion failed.  Reducing to 19 matrices.
 Large coefficients: NSaved= 19 BigCof=    0.00 CofMax=   10.00 Det=-9.76D-15
 Inversion failed.  Reducing to 18 matrices.
 Large coefficients: NSaved= 18 BigCof=    0.00 CofMax=   10.00 Det=-9.86D-15
 Inversion failed.  Reducing to 17 matrices.
 Coeff-Com:  0.650D-05-0.561D-06-0.161D-04-0.649D-05-0.130D-04 0.180D-04
 Coeff-Com: -0.573D-05-0.207D-03 0.940D-03-0.186D-02-0.397D-02 0.716D-02
 Coeff-Com:  0.427D-01-0.321D-01-0.202D+00 0.255D+00 0.934D+00
 Coeff:      0.650D-05-0.561D-06-0.161D-04-0.649D-05-0.130D-04 0.180D-04
 Coeff:     -0.573D-05-0.207D-03 0.940D-03-0.186D-02-0.397D-02 0.716D-02
 Coeff:      0.427D-01-0.321D-01-0.202D+00 0.255D+00 0.934D+00
 Gap=     0.034 Goal=   None    Shift=    0.000
 Gap=     0.048 Goal=   None    Shift=    0.000
 RMSDP=1.05D-08 MaxDP=7.40D-07 DE=-2.73D-12 OVMax= 6.25D-07

 Cycle  22  Pass 1  IDiag  1:
 E= -1136.12052996797     Delta-E=       -0.000000000012 Rises=F Damp=F
 DIIS: error= 1.71D-09 at cycle  22 NSaved=  18.
 NSaved=18 IEnMin=18 EnMin= -1136.12052996797     IErMin=18 ErrMin= 1.71D-09
 ErrMax= 1.71D-09  0.00D+00 EMaxC= 1.00D-01 BMatC= 1.57D-15 BMatP= 6.54D-15
 IDIUse=1 WtCom= 1.00D+00 WtEn= 0.00D+00
 Large coefficients: NSaved= 18 BigCof=    0.00 CofMax=   10.00 Det=-2.31D-15
 Inversion failed.  Reducing to 17 matrices.
 Large coefficients: NSaved= 17 BigCof=    0.00 CofMax=   10.00 Det=-2.63D-15
 Inversion failed.  Reducing to 16 matrices.
 Large coefficients: NSaved= 16 BigCof=    0.00 CofMax=   10.00 Det=-2.73D-15
 Inversion failed.  Reducing to 15 matrices.
 Coeff-Com:  0.613D-05 0.667D-05-0.356D-04-0.320D-04 0.253D-04 0.216D-03
 Coeff-Com:  0.744D-03-0.123D-02-0.112D-01-0.229D-02 0.681D-01-0.127D-01
 Coeff-Com: -0.326D+00-0.930D-01 0.138D+01
 Coeff:      0.613D-05 0.667D-05-0.356D-04-0.320D-04 0.253D-04 0.216D-03
 Coeff:      0.744D-03-0.123D-02-0.112D-01-0.229D-02 0.681D-01-0.127D-01
 Coeff:     -0.326D+00-0.930D-01 0.138D+01
 Gap=     0.034 Goal=   None    Shift=    0.000
 Gap=     0.048 Goal=   None    Shift=    0.000
 RMSDP=6.63D-09 MaxDP=3.12D-07 DE=-1.18D-11 OVMax= 4.46D-07

 SCF Done:  E(UB3LYP) =  -1136.12052997     A.U. after   22 cycles
            NFock= 22  Conv=0.66D-08     -V/T= 2.0029
 <Sx>= 0.0000 <Sy>= 0.0000 <Sz>= 0.5000 <S**2>= 0.7791 S= 0.5144
 <L.S>= 0.000000000000E+00
 KE= 1.132869196169D+03 PE=-3.340206560093D+03 EE= 7.657198129158D+02
 Annihilation of the first spin contaminant:
 S**2 before annihilation     0.7791,   after     0.7505
 Leave Link  502 at Wed Nov 29 02:21:37 2023, MaxMem=  1879048192 cpu:             199.5 elap:              18.0
 (Enter /home/sekinelabo/g16/l601.exe)
 Copying SCF densities to generalized density rwf, IOpCl= 1 IROHF=0.

 **********************************************************************

            Population analysis using the SCF Density.

 **********************************************************************

 Orbital symmetries:
 Alpha Orbitals:
       Occupied  (A) (A) (A) (A) (A) (A) (A) (A) (A) (A) (A) (A)
                 (A) (A) (A) (A) (A) (A) (A) (A) (A) (A) (A) (A)
                 (A) (A) (A) (A) (A) (A) (A) (A) (A) (A) (A) (A)
                 (A) (A) (A)
       Virtual   (A) (A) (A) (A) (A) (A) (A) (A) (A) (A) (A) (A)
                 (A) (A) (A) (A) (A) (A) (A) (A) (A) (A) (A) (A)
                 (A) (A) (A) (A) (A) (A) (A) (A) (A) (A) (A) (A)
                 (A) (A) (A) (A) (A) (A) (A) (A) (A) (A) (A) (A)
                 (A) (A) (A) (A) (A) (A) (A) (A) (A) (A) (A) (A)
                 (A) (A) (A) (A) (A) (A) (A) (A) (A) (A) (A) (A)
                 (A) (A) (A) (A) (A) (A) (A) (A) (A) (A) (A) (A)
                 (A) (A) (A) (A) (A) (A) (A) (A) (A) (A) (A) (A)
                 (A) (A) (A) (A) (A) (A) (A) (A) (A) (A) (A) (A)
                 (A) (A) (A) (A) (A) (A) (A) (A) (A) (A) (A) (A)
                 (A) (A) (A) (A) (A) (A) (A) (A) (A) (A) (A) (A)
                 (A) (A) (A) (A) (A) (A) (A) (A) (A) (A) (A) (A)
                 (A) (A) (A) (A) (A) (A) (A) (A) (A) (A) (A) (A)
                 (A) (A) (A) (A) (A) (A) (A) (A) (A) (A) (A) (A)
                 (A) (A) (A)
 Beta  Orbitals:
       Occupied  (A) (A) (A) (A) (A) (A) (A) (A) (A) (A) (A) (A)
                 (A) (A) (A) (A) (A) (A) (A) (A) (A) (A) (A) (A)
                 (A) (A) (A) (A) (A) (A) (A) (A) (A) (A) (A) (A)
                 (A) (A)
       Virtual   (A) (A) (A) (A) (A) (A) (A) (A) (A) (A) (A) (A)
                 (A) (A) (A) (A) (A) (A) (A) (A) (A) (A) (A) (A)
                 (A) (A) (A) (A) (A) (A) (A) (A) (A) (A) (A) (A)
                 (A) (A) (A) (A) (A) (A) (A) (A) (A) (A) (A) (A)
                 (A) (A) (A) (A) (A) (A) (A) (A) (A) (A) (A) (A)
                 (A) (A) (A) (A) (A) (A) (A) (A) (A) (A) (A) (A)
                 (A) (A) (A) (A) (A) (A) (A) (A) (A) (A) (A) (A)
                 (A) (A) (A) (A) (A) (A) (A) (A) (A) (A) (A) (A)
                 (A) (A) (A) (A) (A) (A) (A) (A) (A) (A) (A) (A)
                 (A) (A) (A) (A) (A) (A) (A) (A) (A) (A) (A) (A)
                 (A) (A) (A) (A) (A) (A) (A) (A) (A) (A) (A) (A)
                 (A) (A) (A) (A) (A) (A) (A) (A) (A) (A) (A) (A)
                 (A) (A) (A) (A) (A) (A) (A) (A) (A) (A) (A) (A)
                 (A) (A) (A) (A) (A) (A) (A) (A) (A) (A) (A) (A)
                 (A) (A) (A) (A)
 The electronic state is 2-A.
 Alpha  occ. eigenvalues --  -38.44672 -38.44526 -38.44470 -38.43798 -38.43686
 Alpha  occ. eigenvalues --  -38.43632 -38.43443  -2.20548  -2.20382  -2.20265
 Alpha  occ. eigenvalues --   -2.19620  -2.19545  -2.19513  -2.19203  -1.14253
 Alpha  occ. eigenvalues --   -1.14230  -1.14160  -1.14058  -1.14036  -1.14025
 Alpha  occ. eigenvalues --   -1.13973  -1.13955  -1.13855  -1.13278  -1.13273
 Alpha  occ. eigenvalues --   -1.13253  -1.13244  -1.13220  -1.13170  -1.13148
 Alpha  occ. eigenvalues --   -1.13128  -1.13125  -1.12881  -1.12870  -1.12832
 Alpha  occ. eigenvalues --   -0.17541  -0.14131  -0.11780  -0.10340
 Alpha virt. eigenvalues --   -0.06904  -0.05554  -0.04239  -0.03613  -0.02973
 Alpha virt. eigenvalues --   -0.02375  -0.01693  -0.01432  -0.00978  -0.00723
 Alpha virt. eigenvalues --   -0.00205  -0.00121   0.00361   0.00582   0.00669
 Alpha virt. eigenvalues --    0.00858   0.00990   0.01170   0.01201   0.01244
 Alpha virt. eigenvalues --    0.01399   0.01449   0.01573   0.01717   0.01924
 Alpha virt. eigenvalues --    0.02068   0.02093   0.02261   0.02343   0.02507
 Alpha virt. eigenvalues --    0.02633   0.02730   0.02865   0.03019   0.03040
 Alpha virt. eigenvalues --    0.03162   0.03174   0.03374   0.03385   0.03506
 Alpha virt. eigenvalues --    0.03651   0.03851   0.03911   0.04142   0.04484
 Alpha virt. eigenvalues --    0.04689   0.05045   0.05168   0.05275   0.05618
 Alpha virt. eigenvalues --    0.05839   0.06029   0.06663   0.06942   0.07286
 Alpha virt. eigenvalues --    0.07620   0.07791   0.07920   0.08086   0.08297
 Alpha virt. eigenvalues --    0.08965   0.09293   0.09524   0.09750   0.10072
 Alpha virt. eigenvalues --    0.10424   0.11911   0.12300   0.12533   0.12879
 Alpha virt. eigenvalues --    0.13198   0.13363   0.13753   0.13844   0.14398
 Alpha virt. eigenvalues --    0.14626   0.14720   0.15562   0.16107   0.18148
 Alpha virt. eigenvalues --    0.25242   0.26205   0.28403   0.28765   0.29650
 Alpha virt. eigenvalues --    0.30177   0.30477   0.31290   0.31666   0.33230
 Alpha virt. eigenvalues --    0.33586   0.34556   0.34743   0.36265   0.36908
 Alpha virt. eigenvalues --    0.37973   0.38612   0.39015   0.40617   0.41892
 Alpha virt. eigenvalues --    0.42318   0.42634   0.43070   0.43627   0.43748
 Alpha virt. eigenvalues --    0.43970   0.44248   0.44449   0.44580   0.45189
 Alpha virt. eigenvalues --    0.45502   0.45972   0.46249   0.46347   0.46632
 Alpha virt. eigenvalues --    0.47159   0.47533   0.48059   0.49050   0.49649
 Alpha virt. eigenvalues --    0.50742   0.51211   0.51366   0.51951   0.53013
 Alpha virt. eigenvalues --    0.54473   0.55077   0.56159   0.56777   0.57485
 Alpha virt. eigenvalues --    0.58086   0.60989   0.61518   0.63067   0.66841
 Alpha virt. eigenvalues --    0.68631   2.03696   2.09347   2.10333   2.15640
 Alpha virt. eigenvalues --    2.16242   2.19878   2.22356   4.42145   4.43774
 Alpha virt. eigenvalues --    4.44505   4.45061   4.45219   4.45272   4.45663
 Alpha virt. eigenvalues --    4.45965   4.46651   4.46759   4.47227   4.47552
 Alpha virt. eigenvalues --    4.48017   4.49113   4.50813   4.51329   4.52025
 Alpha virt. eigenvalues --    4.53018   4.54479   4.56958   4.62489  96.23358
 Alpha virt. eigenvalues --   96.30006  96.31124  96.37336  96.38596  96.42833
 Alpha virt. eigenvalues --   96.45744
  Beta  occ. eigenvalues --  -38.44657 -38.44501 -38.44463 -38.43751 -38.43646
  Beta  occ. eigenvalues --  -38.43562 -38.43450  -2.20527  -2.20342  -2.20255
  Beta  occ. eigenvalues --   -2.19531  -2.19477  -2.19382  -2.19216  -1.14228
  Beta  occ. eigenvalues --   -1.14198  -1.14145  -1.14019  -1.14013  -1.13970
  Beta  occ. eigenvalues --   -1.13966  -1.13946  -1.13836  -1.13215  -1.13213
  Beta  occ. eigenvalues --   -1.13207  -1.13190  -1.13169  -1.13077  -1.13067
  Beta  occ. eigenvalues --   -1.13055  -1.13038  -1.12890  -1.12879  -1.12839
  Beta  occ. eigenvalues --   -0.16946  -0.13598  -0.11591
  Beta virt. eigenvalues --   -0.06762  -0.06641  -0.05484  -0.03791  -0.03314
  Beta virt. eigenvalues --   -0.02656  -0.02081  -0.01476  -0.01196  -0.00556
  Beta virt. eigenvalues --   -0.00385  -0.00023   0.00007   0.00512   0.00692
  Beta virt. eigenvalues --    0.00729   0.00909   0.01046   0.01193   0.01269
  Beta virt. eigenvalues --    0.01289   0.01486   0.01538   0.01651   0.01889
  Beta virt. eigenvalues --    0.01969   0.02149   0.02213   0.02341   0.02461
  Beta virt. eigenvalues --    0.02592   0.02688   0.02816   0.02932   0.03036
  Beta virt. eigenvalues --    0.03149   0.03184   0.03273   0.03414   0.03469
  Beta virt. eigenvalues --    0.03551   0.03676   0.03937   0.04046   0.04225
  Beta virt. eigenvalues --    0.04597   0.04755   0.05151   0.05267   0.05389
  Beta virt. eigenvalues --    0.05690   0.05913   0.06091   0.06750   0.06983
  Beta virt. eigenvalues --    0.07446   0.07716   0.07816   0.08009   0.08305
  Beta virt. eigenvalues --    0.08444   0.09121   0.09418   0.09632   0.09999
  Beta virt. eigenvalues --    0.10204   0.10733   0.12049   0.12427   0.12635
  Beta virt. eigenvalues --    0.13048   0.13359   0.13655   0.13863   0.14059
  Beta virt. eigenvalues --    0.14583   0.14741   0.14847   0.15699   0.16356
  Beta virt. eigenvalues --    0.18332   0.25551   0.26448   0.28533   0.29073
  Beta virt. eigenvalues --    0.29909   0.30389   0.30793   0.31520   0.32010
  Beta virt. eigenvalues --    0.33458   0.33864   0.34820   0.35100   0.36485
  Beta virt. eigenvalues --    0.37016   0.38134   0.38744   0.39436   0.40823
  Beta virt. eigenvalues --    0.42226   0.42466   0.42843   0.43217   0.43755
  Beta virt. eigenvalues --    0.43846   0.44167   0.44394   0.44541   0.44821
  Beta virt. eigenvalues --    0.45351   0.45658   0.46018   0.46470   0.46581
  Beta virt. eigenvalues --    0.46793   0.47228   0.47637   0.48229   0.49144
  Beta virt. eigenvalues --    0.49806   0.50901   0.51301   0.51495   0.52126
  Beta virt. eigenvalues --    0.53154   0.54632   0.55217   0.56295   0.56860
  Beta virt. eigenvalues --    0.57558   0.58127   0.61103   0.61669   0.63164
  Beta virt. eigenvalues --    0.67039   0.68884   2.03786   2.09487   2.10352
  Beta virt. eigenvalues --    2.15737   2.16462   2.19970   2.22460   4.42209
  Beta virt. eigenvalues --    4.43845   4.44556   4.45129   4.45244   4.45339
  Beta virt. eigenvalues --    4.45723   4.45989   4.46663   4.46790   4.47239
  Beta virt. eigenvalues --    4.47578   4.48058   4.49158   4.50842   4.51342
  Beta virt. eigenvalues --    4.52083   4.53059   4.54535   4.57024   4.62547
  Beta virt. eigenvalues --   96.23391  96.30053  96.31130  96.37367  96.38668
  Beta virt. eigenvalues --   96.42865  96.45784
          Condensed to atoms (all electrons):
               1          2          3          4          5          6
     1  Na  10.632787  -0.221782   0.048481   0.327876  -0.138780   0.057974
     2  Na  -0.221782  11.934600   0.059077  -0.981871   0.326371  -0.235574
     3  Na   0.048481   0.059077  10.590591   0.145647   0.046839   0.212396
     4  Na   0.327876  -0.981871   0.145647  11.866374  -0.271137   0.208379
     5  Na  -0.138780   0.326371   0.046839  -0.271137  10.807884  -0.060225
     6  Na   0.057974  -0.235574   0.212396   0.208379  -0.060225  10.883598
     7  Na   0.076095  -0.368761   0.049003   0.309880  -0.085148   0.127113
               7
     1  Na   0.076095
     2  Na  -0.368761
     3  Na   0.049003
     4  Na   0.309880
     5  Na  -0.085148
     6  Na   0.127113
     7  Na  11.020462
          Atomic-Atomic Spin Densities.
               1          2          3          4          5          6
     1  Na   0.087590  -0.008585   0.004131   0.087243  -0.023330   0.011244
     2  Na  -0.008585   0.213508   0.066992  -0.219618   0.047253  -0.082076
     3  Na   0.004131   0.066992   0.099899  -0.044243   0.044572  -0.012372
     4  Na   0.087243  -0.219618  -0.044243   0.328124  -0.117677   0.126034
     5  Na  -0.023330   0.047253   0.044572  -0.117677   0.334226  -0.048894
     6  Na   0.011244  -0.082076  -0.012372   0.126034  -0.048894  -0.041117
     7  Na  -0.094270   0.256192  -0.008845  -0.139972   0.057143  -0.040184
               7
     1  Na  -0.094270
     2  Na   0.256192
     3  Na  -0.008845
     4  Na  -0.139972
     5  Na   0.057143
     6  Na  -0.040184
     7  Na   0.256296
 Mulliken charges and spin densities:
               1          2
     1  Na   0.217349   0.064022
     2  Na   0.487940   0.273667
     3  Na  -0.152034   0.150133
     4  Na  -0.605147   0.019890
     5  Na   0.374196   0.293292
     6  Na  -0.193661  -0.087365
     7  Na  -0.128643   0.286360
 Sum of Mulliken charges =  -0.00000   1.00000
 Mulliken charges and spin densities with hydrogens summed into heavy atoms:
               1          2
     1  Na   0.217349   0.064022
     2  Na   0.487940   0.273667
     3  Na  -0.152034   0.150133
     4  Na  -0.605147   0.019890
     5  Na   0.374196   0.293292
     6  Na  -0.193661  -0.087365
     7  Na  -0.128643   0.286360
 Electronic spatial extent (au):  <R**2>=           3133.6242
 Charge=             -0.0000 electrons
 Dipole moment (field-independent basis, Debye):
    X=              0.0543    Y=             -0.2559    Z=              0.7077  Tot=              0.7544
 Quadrupole moment (field-independent basis, Debye-Ang):
   XX=            -63.7990   YY=            -70.9457   ZZ=            -66.1201
   XY=              1.1176   XZ=              4.4351   YZ=              3.0233
 Traceless Quadrupole moment (field-independent basis, Debye-Ang):
   XX=              3.1560   YY=             -3.9908   ZZ=              0.8348
   XY=              1.1176   XZ=              4.4351   YZ=              3.0233
 Octapole moment (field-independent basis, Debye-Ang**2):
  XXX=            -21.0145  YYY=             10.3022  ZZZ=              8.6668  XYY=              1.3906
  XXY=             -6.5725  XXZ=             10.4290  XZZ=             12.2978  YZZ=             -6.2775
  YYZ=             10.5165  XYZ=             -5.4548
 Hexadecapole moment (field-independent basis, Debye-Ang**3):
 XXXX=          -3034.9303 YYYY=          -1640.8871 ZZZZ=           -579.4243 XXXY=             21.8436
 XXXZ=             63.7115 YYYX=             67.9392 YYYZ=             39.9685 ZZZX=             51.1174
 ZZZY=              1.7302 XXYY=           -761.4608 XXZZ=           -626.1953 YYZZ=           -389.1039
 XXYZ=             28.1705 YYXZ=             18.0352 ZZXY=            -19.4488
 N-N= 3.054970210395D+02 E-N=-3.340206560217D+03  KE= 1.132869196169D+03
                          Isotropic Fermi Contact Couplings
        Atom                 a.u.       MegaHertz       Gauss      10(-4) cm-1
     1  Na(23)             0.04161      49.22737      17.56555      16.42048
     2  Na(23)             0.00786       9.29854       3.31795       3.10166
     3  Na(23)            -0.00026      -0.31023      -0.11070      -0.10348
     4  Na(23)             0.12449     147.26967      52.54948      49.12387
     5  Na(23)             0.20845     246.60787      87.99582      82.25953
     6  Na(23)            -0.03257     -38.53611     -13.75064     -12.85426
     7  Na(23)             0.30836     364.80363     130.17101     121.68539
 --------------------------------------------------------
       Center         ----  Spin Dipole Couplings  ----
                      3XX-RR        3YY-RR        3ZZ-RR
 --------------------------------------------------------
     1   Atom        0.045602     -0.022556     -0.023046
     2   Atom        0.020944     -0.023169      0.002225
     3   Atom        0.024922     -0.016809     -0.008113
     4   Atom        0.024413     -0.016597     -0.007816
     5   Atom       -0.007370      0.006463      0.000907
     6   Atom        0.000172      0.000260     -0.000431
     7   Atom       -0.004513      0.006360     -0.001847
 --------------------------------------------------------
                        XY            XZ            YZ
 --------------------------------------------------------
     1   Atom        0.010298     -0.014582     -0.002292
     2   Atom        0.004510     -0.035272     -0.004467
     3   Atom        0.001127      0.009802     -0.000611
     4   Atom        0.007036      0.021898      0.002650
     5   Atom       -0.000093     -0.001881     -0.000115
     6   Atom        0.001865     -0.001783      0.000196
     7   Atom       -0.000705      0.006711     -0.003692
 --------------------------------------------------------


 ---------------------------------------------------------------------------------
              Anisotropic Spin Dipole Couplings in Principal Axis System
 ---------------------------------------------------------------------------------

       Atom             a.u.   MegaHertz   Gauss  10(-4) cm-1        Axes

              Baa    -0.0260    -3.676    -1.312    -1.226  0.1853  0.0956  0.9780
     1 Na(23) Bbb    -0.0241    -3.399    -1.213    -1.134 -0.1594  0.9850 -0.0661
              Bcc     0.0501     7.075     2.525     2.360  0.9697  0.1437 -0.1978
 
              Baa    -0.0253    -3.573    -1.275    -1.192  0.5154  0.4446  0.7326
     2 Na(23) Bbb    -0.0233    -3.294    -1.175    -1.099 -0.3344  0.8915 -0.3057
              Bcc     0.0486     6.867     2.450     2.291  0.7890  0.0874 -0.6081
 
              Baa    -0.0170    -2.394    -0.854    -0.799 -0.0576  0.9896  0.1322
     3 Na(23) Bbb    -0.0107    -1.507    -0.538    -0.503 -0.2586 -0.1427  0.9554
              Bcc     0.0276     3.902     1.392     1.302  0.9643  0.0208  0.2641
 
              Baa    -0.0193    -2.723    -0.972    -0.908 -0.4583  0.4366  0.7742
     4 Na(23) Bbb    -0.0173    -2.437    -0.869    -0.813  0.0864  0.8888 -0.4501
              Bcc     0.0365     5.160     1.841     1.721  0.8846  0.1393  0.4451
 
              Baa    -0.0078    -1.098    -0.392    -0.366  0.9773  0.0081  0.2117
     5 Na(23) Bbb     0.0013     0.185     0.066     0.062 -0.2118  0.0180  0.9771
              Bcc     0.0065     0.913     0.326     0.305 -0.0041  0.9998 -0.0193
 
              Baa    -0.0027    -0.376    -0.134    -0.125  0.6703 -0.4666  0.5770
     6 Na(23) Bbb     0.0001     0.013     0.005     0.005 -0.1353  0.6877  0.7133
              Bcc     0.0026     0.362     0.129     0.121  0.7296  0.5563 -0.3978
 
              Baa    -0.0102    -1.444    -0.515    -0.482  0.7506 -0.1130 -0.6510
     7 Na(23) Bbb     0.0015     0.216     0.077     0.072  0.5961  0.5406  0.5936
              Bcc     0.0087     1.228     0.438     0.410 -0.2849  0.8336 -0.4732
 

 ---------------------------------------------------------------------------------

 No NMR shielding tensors so no spin-rotation constants.
 Leave Link  601 at Wed Nov 29 02:21:38 2023, MaxMem=  1879048192 cpu:               2.3 elap:               0.2
 (Enter /home/sekinelabo/g16/l701.exe)
 ... and contract with generalized density number  0.
 Compute integral first derivatives.
 Leave Link  701 at Wed Nov 29 02:21:38 2023, MaxMem=  1879048192 cpu:               1.6 elap:               0.1
 (Enter /home/sekinelabo/g16/l702.exe)
 L702 exits ... SP integral derivatives will be done elsewhere.
 Leave Link  702 at Wed Nov 29 02:21:38 2023, MaxMem=  1879048192 cpu:               0.4 elap:               0.0
 (Enter /home/sekinelabo/g16/l703.exe)
 Integral derivatives from FoFJK, PRISM(SPDF).
 Compute integral first derivatives, UseDBF=F ICtDFT=           0.
 Calling FoFJK, ICntrl=      2127 FMM=F ISym2X=0 I1Cent= 0 IOpClX= 1 NMat=1 NMatS=1 NMatT=0.
 FoFJK:  IHMeth= 1 ICntrl=    2127 DoSepK=F KAlg= 0 I1Cent=           0 FoldK=F
 IRaf=         0 NMat=       1 IRICut=       1 DoRegI=T DoRafI=F ISym2E= 0 IDoP0=0 IntGTp=1.
 FoFCou: FMM=F IPFlag=           0 FMFlag=      100000 FMFlg1=         800
         NFxFlg=           0 DoJE=F BraDBF=F KetDBF=F FulRan=T
         wScrn=  0.000000 ICntrl=      2127 IOpCl=  1 I1Cent=           0 NGrid=           0
         NMat0=    1 NMatS0=      1 NMatT0=    0 NMatD0=    1 NMtDS0=    0 NMtDT0=    0
 Symmetry not used in FoFCou.
 Leave Link  703 at Wed Nov 29 02:21:40 2023, MaxMem=  1879048192 cpu:              31.2 elap:               2.1
 (Enter /home/sekinelabo/g16/l716.exe)
 Dipole        = 2.13626406D-02-1.00662535D-01 2.78413250D-01
 ***** Axes restored to original set *****
 -------------------------------------------------------------------
 Center     Atomic                   Forces (Hartrees/Bohr)
 Number     Number              X              Y              Z
 -------------------------------------------------------------------
      1       11          -0.002279801   -0.003803950    0.000399272
      2       11          -0.003174896    0.001218978   -0.004844503
      3       11           0.003344853    0.003571684    0.000585873
      4       11          -0.002897793    0.000119368    0.000501615
      5       11           0.000387762    0.000664679   -0.000038340
      6       11          -0.000314270   -0.004273973    0.002483703
      7       11           0.004934146    0.002503213    0.000912380
 -------------------------------------------------------------------
 Cartesian Forces:  Max     0.004934146 RMS     0.002622119
 Z-matrix is all fixed cartesians, so copy forces.
 Force constants in Cartesian coordinates: 
                1             2             3             4             5 
      1  0.636203D-01
      2 -0.685152D-02  0.502498D-01
      3 -0.615965D-02  0.756536D-02  0.310767D-01
      4 -0.205855D-01  0.694433D-02  0.541977D-02  0.108009D+00
      5  0.846095D-02 -0.151833D-01 -0.450175D-02 -0.865358D-02  0.938292D-01
      6  0.317361D-02 -0.105862D-02 -0.117950D-01 -0.431641D-02  0.730101D-02
      7  0.357028D-02  0.141768D-02  0.108830D-02 -0.252389D-01 -0.192195D-02
      8 -0.336352D-02 -0.116903D-02 -0.685263D-02  0.982374D-02 -0.148581D-01
      9 -0.205400D-02 -0.151043D-02  0.276470D-03  0.421999D-02  0.369857D-03
     10 -0.152879D-01  0.111665D-01 -0.242907D-02 -0.226200D-01 -0.835262D-02
     11 -0.434491D-02 -0.219415D-01  0.134313D-01  0.406536D-02 -0.156151D-01
     12 -0.203469D-02 -0.467399D-02 -0.193446D-01 -0.202351D-02 -0.276666D-02
     13  0.238597D-02 -0.115071D-03  0.148284D-02  0.883452D-03 -0.682862D-02
     14 -0.124839D-02 -0.202641D-04 -0.251210D-02 -0.379495D-03 -0.167098D-02
     15  0.152128D-02  0.635630D-04  0.501551D-02  0.292651D-03  0.186348D-02
     16  0.122755D-02 -0.130736D-02  0.286799D-02 -0.178428D-01  0.552472D-02
     17 -0.126904D-02  0.127545D-02 -0.285136D-02 -0.147690D-02 -0.176885D-01
     18 -0.114694D-02  0.116298D-02 -0.256672D-02  0.285436D-02  0.433233D-02
     19 -0.349307D-01 -0.112546D-01 -0.227018D-02 -0.226057D-01  0.117711D-01
     20  0.861643D-02 -0.132112D-01 -0.427881D-02 -0.103234D-01 -0.288132D-01
     21  0.670039D-02 -0.154887D-02 -0.266234D-02 -0.644684D-02 -0.659827D-02
                6             7             8             9            10 
      6  0.828173D-01
      7 -0.884475D-02  0.531440D-01
      8 -0.101236D-02  0.105519D-01  0.605697D-01
      9 -0.153956D-01  0.164271D-01 -0.573275D-03  0.701602D-01
     10  0.138927D-01 -0.943771D-02 -0.432938D-02 -0.748449D-02  0.504776D-01
     11 -0.574778D-02 -0.251852D-02 -0.152153D-01 -0.708301D-03  0.847151D-02
     12 -0.274184D-01  0.430453D-02  0.180777D-02 -0.224738D-01 -0.281957D-02
     13  0.715594D-03 -0.141579D-01  0.394626D-03 -0.103706D-01 -0.892051D-02
     14  0.957426D-03 -0.621596D-02 -0.177687D-01 -0.420607D-02 -0.141797D-02
     15  0.496538D-02 -0.355421D-02  0.146866D-01 -0.211222D-01 -0.335508D-02
     16 -0.126110D-01 -0.117682D-01 -0.866117D-02  0.105658D-02  0.502305D-02
     17  0.518792D-02  0.708848D-04 -0.136713D-01  0.667569D-02  0.131856D-02
     18 -0.121828D-01 -0.926675D-02 -0.731297D-02 -0.125786D-01  0.628768D-03
     19  0.799031D-02  0.388840D-02 -0.441621D-02 -0.179459D-02  0.765500D-03
     20 -0.562760D-02 -0.138406D-02  0.211263D-02 -0.474704D-04 -0.685662D-02
     21 -0.209908D-01 -0.154200D-03 -0.743167D-03  0.113363D-02  0.156678D-02
               11            12            13            14            15 
     11  0.718654D-01
     12 -0.189854D-02  0.902787D-01
     13 -0.129234D-02  0.191441D-02  0.157702D-01
     14 -0.201496D-01  0.763286D-02  0.862744D-02  0.391308D-01
     15 -0.132886D-01 -0.225208D-01  0.390736D-02 -0.380360D-02  0.311243D-01
     16 -0.997586D-03  0.329443D-02  0.400924D-02  0.658478D-03  0.116803D-02
     17  0.146451D-02  0.796616D-03 -0.792607D-03  0.493474D-03  0.524892D-03
     18  0.482128D-02 -0.205157D-02  0.251678D-02  0.188037D-02  0.242856D-02
     19 -0.338351D-02 -0.263558D-02  0.295690D-04 -0.241040D-04  0.199751D-04
     20 -0.408377D-03 -0.898065D-03  0.656558D-05 -0.147671D-04 -0.463278D-04
     21  0.339069D-02  0.353052D-02 -0.166408D-03  0.511157D-04  0.109235D-03
               16            17            18            19            20 
     16  0.194841D-01
     17  0.410012D-02  0.247166D-01
     18  0.522360D-02 -0.609531D-02  0.283885D-01
     19 -0.132937D-03 -0.195101D-02 -0.809813D-03  0.529859D-01
     20  0.682798D-03  0.340974D-02  0.121133D-02  0.925834D-02  0.369251D-01
     21 -0.999610D-03 -0.423845D-02 -0.143742D-02 -0.500113D-03  0.968694D-02
               21 
     21  0.203172D-01
 Leave Link  716 at Wed Nov 29 02:21:40 2023, MaxMem=  1879048192 cpu:               0.4 elap:               0.0
 (Enter /home/sekinelabo/g16/l103.exe)

 GradGradGradGradGradGradGradGradGradGradGradGradGradGradGradGradGradGrad
 Berny optimization.
 Search for a local minimum.
 Step number   1 out of a maximum of    2
 All quantities printed in internal units (Hartrees-Bohrs-Radians)
 Second derivative matrix not updated -- first step.
 ITU=  0
     Eigenvalues ---    0.01565   0.02431   0.02508   0.02895   0.03171
     Eigenvalues ---    0.04639   0.06988   0.07441   0.08102   0.09407
     Eigenvalues ---    0.10240   0.10795   0.11553   0.13052   0.14147
 Angle between quadratic step and forces=  32.15 degrees.
 Linear search not attempted -- first point.
 B after Tr=     0.000000    0.000000    0.000000
         Rot=    1.000000    0.000000   -0.000000    0.000000 Ang=   0.00 deg.
 Variable       Old X    -DE/DX   Delta X   Delta X   Delta X     New X
                                 (Linear)    (Quad)   (Total)
    X1       27.98628  -0.00228   0.00000  -0.02980  -0.02980  27.95648
    Y1       33.51429  -0.00380   0.00000  -0.04890  -0.04890  33.46540
    Z1       32.14160   0.00040   0.00000   0.02026   0.02026  32.16185
    X2       31.99212  -0.00317   0.00000  -0.03170  -0.03170  31.96042
    Y2       29.49579   0.00122   0.00000   0.00037   0.00037  29.49616
    Z2       28.52542  -0.00484   0.00000  -0.03925  -0.03925  28.48617
    X3       26.41176   0.00334   0.00000   0.04310   0.04310  26.45485
    Y3       25.77813   0.00357   0.00000   0.06314   0.06314  25.84127
    Z3       25.57102   0.00059   0.00000   0.00495   0.00495  25.57596
    X4       27.42352  -0.00290   0.00000  -0.03492  -0.03492  27.38860
    Y4       26.83506   0.00012   0.00000   0.00698   0.00698  26.84203
    Z4       32.42316   0.00050   0.00000  -0.01527  -0.01527  32.40789
    X5       25.95444   0.00039   0.00000   0.01857   0.01857  25.97302
    Y5       20.90850   0.00066   0.00000   0.04983   0.04983  20.95832
    Z5       29.85975  -0.00004   0.00000  -0.03094  -0.03094  29.82881
    X6       29.41208  -0.00031   0.00000  -0.01447  -0.01447  29.39761
    Y6       32.03672  -0.00427   0.00000  -0.10874  -0.10874  31.92797
    Z6       22.82732   0.00248   0.00000   0.08343   0.08343  22.91076
    X7       33.82477   0.00493   0.00000   0.04921   0.04921  33.87399
    Y7       34.43648   0.00250   0.00000   0.03733   0.03733  34.47381
    Z7       31.65650   0.00091   0.00000  -0.02317  -0.02317  31.63333
         Item               Value     Threshold  Converged?
 Maximum Force            0.004934     0.000450     NO 
 RMS     Force            0.002622     0.000300     NO 
 Maximum Displacement     0.108742     0.001800     NO 
 RMS     Displacement     0.044044     0.001200     NO 
 Predicted change in Energy=-1.026662D-03
 GradGradGradGradGradGradGradGradGradGradGradGradGradGradGradGradGradGrad

 Leave Link  103 at Wed Nov 29 02:21:40 2023, MaxMem=  1879048192 cpu:               0.2 elap:               0.0
 (Enter /home/sekinelabo/g16/l9999.exe)
 1\1\GINC-SEKINELABO-XA7R-R37\Force\UB3LYP\6-311+G(d)\Na7(2)\SEKINELABO
 \29-Nov-2023\0\\#P B3LYP/6-311+g(d) force\\DPGEN\\0,2\Na,14.8097,17.73
 5,17.0086\Na,16.9295,15.6085,15.095\Na,13.9765,13.6412,13.5316\Na,14.5
 119,14.2005,17.1576\Na,13.7345,11.0643,15.8011\Na,15.5642,16.9531,12.0
 797\Na,17.8993,18.223,16.7519\\Version=ES64L-G16RevB.01\State=2-A\HF=-
 1136.12053\S2=0.779052\S2-1=0.\S2A=0.750488\RMSD=6.628e-09\RMSF=2.622e
 -03\Dipole=-0.2380452,0.1339986,0.1161125\Quadrupole=-1.6832254,4.9432
 021,-3.2599766,-1.4070323,1.4811134,-0.9169899\PG=C01 [X(Na7)]\\@


 KNOWLEDGE IS OF TWO KINDS:  WE KNOW A SUBJECT OURSELVES OR WE KNOW 
 WHERE WE CAN FIND INFORMATION UPON IT.

                                    -- SAMUEL JOHNSON
 Job cpu time:       0 days  0 hours  4 minutes  6.7 seconds.
 Elapsed time:       0 days  0 hours  0 minutes 21.2 seconds.
 File lengths (MBytes):  RWF=     32 Int=      0 D2E=      0 Chk=      4 Scr=      1
 Normal termination of Gaussian 16 at Wed Nov 29 02:21:40 2023.
